
                                 *****************
                                 * O   R   C   A *
                                 *****************

                                            #,                                       
                                            ###                                      
                                            ####                                     
                                            #####                                    
                                            ######                                   
                                           ########,                                 
                                     ,,################,,,,,                         
                               ,,#################################,,                 
                          ,,##########################################,,             
                       ,#########################################, ''#####,          
                    ,#############################################,,   '####,        
                  ,##################################################,,,,####,       
                ,###########''''           ''''###############################       
              ,#####''   ,,,,##########,,,,          '''####'''          '####       
            ,##' ,,,,###########################,,,                        '##       
           ' ,,###''''                  '''############,,,                           
         ,,##''                                '''############,,,,        ,,,,,,###''
      ,#''                                            '''#######################'''  
     '                                                          ''''####''''         
             ,#######,   #######,   ,#######,      ##                                
            ,#'     '#,  ##    ##  ,#'     '#,    #''#        ,####,    ,#,          
            ##       ##  ##   ,#'  ##            #'  '#       #'       ,# #          
            ##       ##  #######   ##           ,######,      #####,      #          
            '#,     ,#'  ##    ##  '#,     ,#' ,#      #,     #,   #      #          
             '#######'   ##     ##  '#######'  #'      '#     '####' #    #          



                #########################################################
                #                        -***-                          #
                #          Department of theory and spectroscopy        #
                #                                                       #
                #                      Frank Neese                      #
                #                                                       #
                #     Directorship, Architecture, Infrastructure        #
                #                    SHARK, DRIVERS                     #
                #        Core code/Algorithms in most modules           #
                #                                                       #
                #        Max Planck Institute fuer Kohlenforschung      #
                #                Kaiser Wilhelm Platz 1                 #
                #                 D-45470 Muelheim/Ruhr                 #
                #                      Germany                          #
                #                                                       #
                #                  All rights reserved                  #
                #                        -***-                          #
                #########################################################


                         Program Version 6.1.0  -  RELEASE   -
                                (GIT: $679e74b$)
                          ($2025-06-10 18:02:51 +0200$)


 With contributions from (in alphabetic order):
[Max-Planck-Institut fuer Kohlenforschung]                               
  Daniel Aravena         : Magnetic Suceptibility                        
  Michael Atanasov       : Ab Initio Ligand Field Theory (pilot matlab implementation)
  Alexander A. Auer      : GIAO ZORA, VPT2 properties, NMR spectrum      
  Ute Becker             : All parallelization in ORCA, NUMFREQ, NUMCALC 
  Giovanni Bistoni       : ED, misc. LED, open-shell LED, HFLD           
  Dmytro Bykov           : pre 5.0 version of the SCF Hessian            
  Marcos Casanova-Páez   : Triplet and SCS-CIS(D). UHF-(DLPNO)-IP/EA/STEOM-CCSD. UHF-CVS-IP/STEOM-CCSD   
  Vijay G. Chilkuri      : MRCI spin determinant printing, contributions to CSF-ICE 
  Pauline Colinet        : FMM embedding                                 
  Dipayan Datta          : RHF DLPNO-CCSD density                        
  Achintya Kumar Dutta   : EOM-CC, STEOM-CC                              
  Nicolas Foglia         : Exact transition moments, OPA infrastructure, MCD improvements    
  Dmitry Ganyushin       : Spin-Orbit,Spin-Spin,Magnetic field MRCI      
  Miquel Garcia-Rates    : C-PCM and meta-GGA Hessian, CCSD/C-PCM, Gaussian charge scheme 
  Tiago L. C. Gouveia    : GS-ROHF, GS-ROCIS                             
  Yang Guo               : DLPNO-NEVPT2, F12-NEVPT2, CIM, IAO-localization        
  Andreas Hansen         : Spin unrestricted coupled pair/coupled cluster methods 
  Ingolf Harden          : AUTO-CI MPn and infrastructure                
  Benjamin Helmich-Paris : MC-RPA, TRAH-(SCF,CASSCF), AVAS, COSX integrals, SCF dyn. polar., MC-PDFT, srDFT 
  Lee Huntington         : MR-EOM, pCC                                   
  Robert Izsak           : Overlap fitted RIJCOSX, COSX-SCS-MP3, EOM     
  Riya Kayal             : Wick's Theorem for AUTO-CI, AUTO-CI UHF-CCSDT 
  Emily Kempfer          : AUTO-CI RHF CISDT and CCSDT, approximate NEVPT4
  Christian Kollmar      : KDIIS, OOCD, Brueckner-CCSD(T), CCSD density, CASPT2, CASPT2-K, improved NEVPT2 
  Axel Koslowski         : Symmetry handling                             
  Simone Kossmann        : meta-GGA functionals, TD-DFT gradient, OOMP2, (MP2 Hessian; deprecated post 5.0) 
  Lucas Lang             : DCDCAS, Hyperfine gauge corrections, ICE-SOC+SSC
  Marvin Lechner         : AUTO-CI (C++ implementation), FIC-MRCC        
  Spencer Leger          : CASSCF response                               
  Dagmar Lenk            : GEPOL surface, SMD, ORCA-2-JSON               
  Dimitrios Liakos       : Extrapolation schemes; Compound Job, Property file
  Dimitrios Manganas     : Further ROCIS development; embedding schemes. LFT, Crystal Embedding 
  Dimitrios Pantazis     : SARC Basis sets                               
  Anastasios Papadopoulos: AUTO-CI, single reference methods and gradients 
  Taras Petrenko         : pre 6.0 DFT Hessian and TD-DFT gradient,  ECA, NRVS 
  Petra Pikulova         : Analytic Raman intensities                    
  Peter Pinski           : DLPNO-MP2, DLPNO-MP2 Gradient                 
  Shashank Vittal Rao    : ES-AILFT, MagRelax                            
  Christoph Reimann      : Effective Core Potentials                     
  Marius Retegan         : Local ZFS, SOC                                
  Christoph Riplinger    : Optimizer, TS searches, QM/MM, DLPNO-CCSD(T), (RO)-DLPNO pert. Triples 
  Michael Roemelt        : Original ROCIS implementation, recursive CI coupling coefficients
  Masaaki Saitow         : Open-shell DLPNO-CCSD energy and density      
  Barbara Sandhoefer     : DKH picture change effects                    
  Yorick L. A. Schmerwitz: GMF and freeze-and-release deltaSCF, NEB S-IDPP initial path                    
  Kantharuban Sivalingam : CASSCF convergence/infrastructure, NEVPT2, NEVPT3, NEVPT4(SD), FIC-MRCI and CEPA variants
  Bernardo de Souza      : ESD, SOC TD-DFT                               
  Georgi L. Stoychev     : AutoAux, RI-MP2 NMR, DLPNO-MP2 response, X2C  
  Van Anh Tran           : RI-MP2 g-tensors                              
  Willem Van den Heuvel  : Paramagnetic NMR                              
  Zikuan Wang            : NOTCH, Electric field optimization            
  Frank Wennmohs         : Technical directorship and infrastructure     
  Hang Xu                : AUTO-CI-Response properties                   
                                                                         
[FACCTs GmbH]                                                            
  Markus Bursch, Nicolas Foglia, Miquel Garcia-Rates, Ingolf Harden, Hagen Neugebauer, Anastasios Papadopoulos, 
  Christoph Riplinger, Bernardo de Souza, Georgi L. Stoychev                                                    
                                                                 
  APM, various basis sets, CI-OPT, improved COSX, DLPNO-Multilevel,           
  DOCKER, DRACO, updates on ESD, Fragmentator, GOAT, IRC, LR-CPCM, L-BFGS, MBIS, meta-GGA TD-DFT gradient, ML-optimized integration grids, 
  MM, NACMEs, nearIR, NEB, NEB-TS, NL-DFT gradient (VV10), 2- and 3-layer-ONIOM, interface openCOSMO-RS, QMMM,   
  Crystal-QMMM, RESP, rigid body optimization, SF, symmetry and pop. for TD-DFT, various functionals, SOLVATOR                                   
                                                                         
[Other institutions]                                                     
  V. Asgeirsson          : NEB                                           
  Christoph Bannwarth    : sTDA-DFT, sTD-DFT, PBEh-3c, B97-3c, D3        
  Giovanni Bistoni       : ETS/NOCV, ADLD/ADEX, COVALED                  
  Martin Brehm           : Molecular dynamics                            
  Ronald Cardenas        : ETS/NOCV                                      
  Martina Colucci        : COVALED                                       
  Sebastian Ehlert       : rSCAN, r2SCAN, r2SCAN-3c, D4, dhf basis sets  
  Marvin Friede          : D4 for Fr, Ra, Ac-Lr                          
  Lars Goerigk           : TD-DFT with DH, B97 family of functionals     
  Stefan Grimme          : VdW corrections, initial TS optimization, DFT functionals, gCP, sTDA/sTD-DF 
  Waldemar Hujo          : DFT-NL                                        
  H. Jonsson             : NEB                                           
  Holger Kruse           : gCP                                           
  Marcel Mueller         : wB97X-3c, vDZP basis set                      
  Hagen Neugebauer       : wr2SCAN, Native XTB                           
  Gianluca Regni         : ADLD/ADEX                                     
  Tobias Risthaus        : pre 6.0 range-separated hybrid DFT and stability analysis
  Lukas Wittmann         : regularized MP2, r2SCAN double-hybrids, wr2SCAN        
                                                                         
We gratefully acknowledge several colleagues who have allowed us to      
interface, adapt or use parts of their codes:                            
  Ed Valeev, F. Pavosevic, A. Kumar             : LibInt (2-el integral package), F12 methods 
  Garnet Chan, S. Sharma, J. Yang, R. Olivares  : DMRG                   
  Ulf Ekstrom                                   : XCFun DFT Library      
  Mihaly Kallay                                 : mrcc  (arbitrary order and MRCC methods)
  Frank Weinhold                                : gennbo (NPA and NBO analysis)           
  Simon Mueller                                 : openCOSMO-RS                            
  Christopher J. Cramer and Donald G. Truhlar   : smd solvation model                     
  S Lehtola, MJT Oliveira, MAL Marques          : LibXC Library                           
  Liviu Ungur et al                             : ANISO software                          


 Your calculation uses the libint2 library for the computation of 2-el integrals
 For citations please refer to: http://libint.valeyev.net

 Your ORCA version has been built with support for libXC version: 7.0.0
 For citations please refer to: https://libxc.gitlab.io

 This ORCA versions uses:
   CBLAS   interface :  Fast vector & matrix operations
   LAPACKE interface :  Fast linear algebra routines
   SCALAPACK package :  Parallel linear algebra routines
   Shared memory     :  Shared parallel matrices
   BLAS/LAPACK       :  OpenBLAS 0.3.29  USE64BITINT DYNAMIC_ARCH NO_AFFINITY Prescott SINGLE_THREADED
        Core in use  :  Prescott
   Copyright (c) 2011-2014, The OpenBLAS Project


  ***********************************
  * Starting time: Fri Aug  8 15:34:36 2025
  * Host name:     cuda1
  * Process ID:    87334
  * Working dir.:  /local/scratch/mehlhorn/61788
  ***********************************



***************************************
The coordinates will be read from file: start.xyz
***************************************


Your calculation utilizes the geometrical counterpoise correction gCP
Please cite in your paper:
H.Kruse, S. Grimme J.Chem.Phys., 136, (2012), 154101 
   

Your calculation utilizes the atom-pairwise dispersion correction
with the Becke-Johnson damping scheme (D3BJ)


Warning: RI is on but no J-basis has been assigned. Assigning Def2/J (nothing to worry about!)
================================================================================

cite the ECPs for Zr [Def2-ECP] as follows:
Ce-Yb(ecp-28): M. Dolg, H. Stoll, H.Preuss, J. Chem. Phys., 1989, 90, 1730-1734.
Y-Cd(ecp-28), Hf-Hg(ecp-46): D. Andrae,U. Haeussermann, M. Dolg, H. Stoll, H. Preuss, Theor. Chim. Acta, 1990, 77, 123-141.
In-Sb(ecp-28), Tl-Bi(ecp-46): B. Metz, H. Stoll, M. Dolg, J. Chem. Phys., 2000, 113, 2563-2569.
Te-Xe(ecp-28), Po-Rn(ecp-46): K. A. Peterson, D. Figgen, E. Goll, H. Stoll, M. Dolg, J. Chem. Phys., 2003, 119, 11113-11123.
Rb(ecp-28), Cs(ecp-46): T. Leininger, A. Nicklass, W. Kuechle, H. Stoll, M. Dolg, A. Bergner, Chem. Phys. Lett., 1996, 255, 274-280.
Sr(ecp-28), Ba(ecp-46): M. Kaupp, P. V. Schleyer, H. Stoll and H. Preuss, J. Chem. Phys., 1991, 94, 1360-1366.
La(ecp-46): M. Dolg, H. Stoll, A. Savin, H. Preuss, Theor. Chim. Acta, 1989, 75, 173-194.
Lu(ecp-28): X. Cao, M. Dolg, J. Chem. Phys., 2001, 115, 7348-7355.

ECP parameters for Zr [Def2-ECP] have been obtained from:
TURBOMOLE (7.0.2)

----- Orbital basis set information -----
Your calculation utilizes the basis: def2-SV(P)
   F. Weigend and R. Ahlrichs, Phys. Chem. Chem. Phys. 7, 3297 (2005).

----- AuxJ basis set information -----
Your calculation utilizes the auxiliary basis: def2/J
   H-Rn: F. Weigend, Phys. Chem. Chem. Phys. 8, 1057 (2006).
   Fr-Lr: K. Eichkorn, F. Weigend, O. Treutler, R. Ahlrichs; Theor. Chem. Acc. 97, 119 (1997).

================================================================================
                                        WARNINGS
                       Please study these warnings very carefully!
================================================================================


WARNING: Gradients are needed
  ===> : At least TightSCF should be used for SCF convergence

WARNING: Geometry Optimization
  ===> : Switching off AutoStart
         For restart on a previous wavefunction, please use MOREAD

================================================================================
                                       INPUT FILE
================================================================================
NAME = run.inp
|  1> # Geometry optimization for (AlH3)n cluster
|  2> 
|  3> %pal nprocs 24  end
|  4> 
|  5> %geom MaxIter 500 end
|  6> 
|  7> 
|  8> ! PBE def2-SV(P)
|  9> ! RKS	# closed shell for AlH3
| 10> ! D3    #  dispersion correction
| 11> ! gCP(DFT/SV(P))
| 12> ! Freq 	# Frequency analysis to check the stabiltity of the structures
| 13> 
| 14> ! NoPop # population analysis not necessary	
| 15> 
| 16> ! DEFGRID2
| 17> ! NormalSCF
| 18> ! SloppyOpt
| 19> 
| 20> ! SmallPrint
| 21> 
| 22> 
| 23> * xyzFile 0 1 start.xyz # only maingroup elements H and Al so there should be no net spin
| 24> 
| 25>                          ****END OF INPUT****
================================================================================

                       *****************************
                       * Geometry Optimization Run *
                       *****************************

Geometry optimization settings:
Update method            Update   .... BFGS
Choice of coordinates    CoordSys .... (2022) Redundant Internals
Initial Hessian          InHess   .... Almloef's Model
Max. no of cycles        MaxIter  .... 500

Convergence Tolerances:
Energy Change            TolE     ....  8.0000e-05 Eh
Max. Gradient            TolMAXG  ....  5.0000e-03 Eh/bohr
RMS Gradient             TolRMSG  ....  1.0000e-03 Eh/bohr
Max. Displacement        TolMAXD  ....  3.0000e-02 bohr
RMS Displacement         TolRMSD  ....  2.0000e-02 bohr
Strict Convergence                .... False

------------------------------------------------------------------------------
                        ORCA OPTIMIZATION COORDINATE SETUP
------------------------------------------------------------------------------

The optimization will be done in redundant internal coordinates (2022)
Making redundant internal coordinates   ...  (2022 redundants) done
Evaluating the initial hessian          ...  (Almloef) done
Evaluating the coordinates              ...  done
Calculating the B-matrix                .... done
Calculating the G-matrix                .... done
The number of degrees of freedom        ....  603

    -----------------------------------------------------------------
                    Redundant Internal Coordinates


    -----------------------------------------------------------------
         Definition                    Initial Value    Approx d2E/dq
    -----------------------------------------------------------------
      1. B(Zr  2,Zr  1)                  3.4280         0.035853   
      2. B(Zr  3,Zr  0)                  3.4311         0.035443   
      3. B(Zr  4,Zr  1)                  3.3741         0.043707   
      4. B(Zr  4,Zr  3)                  3.4204         0.036870   
      5. B(Zr  5,Zr  2)                  3.4200         0.036924   
      6. B(Zr  5,Zr  0)                  3.3725         0.043951   
      7. B(O   6,Zr  0)                  2.0848         0.441054   
      8. B(O   6,Zr  3)                  2.0872         0.437254   
      9. B(O   6,Zr  5)                  2.1438         0.355157   
     10. B(O   7,Zr  4)                  2.1386         0.361893   
     11. B(O   7,Zr  1)                  2.0890         0.434246   
     12. B(O   7,Zr  2)                  2.0790         0.450517   
     13. B(O   8,Zr  5)                  2.1728         0.319256   
     14. B(O   8,Zr  2)                  2.1526         0.343773   
     15. B(O   8,Zr  1)                  2.1722         0.319967   
     16. B(O   9,Zr  4)                  2.1762         0.315231   
     17. B(O   9,Zr  3)                  2.1546         0.341298   
     18. B(O   9,Zr  0)                  2.1706         0.321794   
     19. B(O  10,Zr  3)                  2.0716         0.462903   
     20. B(O  10,Zr  4)                  2.1011         0.415363   
     21. B(O  10,Zr  1)                  2.1320         0.370830   
     22. B(O  11,Zr  5)                  2.0927         0.428393   
     23. B(O  11,Zr  0)                  2.1395         0.360789   
     24. B(O  11,Zr  2)                  2.0818         0.445964   
     25. B(O  12,Zr  0)                  1.9932         0.617393   
     26. B(O  13,Zr  0)                  1.9832         0.640634   
     27. B(O  14,Zr  0)                  2.0680         0.469145   
     28. B(O  15,Zr  0)                  1.9986         0.605338   
     29. B(O  16,Zr  1)                  1.9950         0.613453   
     30. B(O  17,Zr  1)                  2.0729         0.460799   
     31. B(O  18,Zr  1)                  1.9794         0.649579   
     32. B(O  19,Zr  1)                  1.9953         0.612722   
     33. B(O  20,Zr  2)                  1.9749         0.660494   
     34. B(O  21,Zr  2)                  2.0653         0.473821   
     35. B(O  22,Zr  2)                  1.9745         0.661465   
     36. B(O  23,Zr  2)                  2.0714         0.463347   
     37. B(O  24,Zr  3)                  2.0686         0.468105   
     38. B(O  25,Zr  3)                  1.9756         0.658623   
     39. B(O  26,Zr  3)                  2.0653         0.473851   
     40. B(O  27,Zr  3)                  1.9745         0.661500   
     41. B(O  28,Zr  4)                  1.9785         0.651666   
     42. B(O  29,Zr  4)                  2.0055         0.590293   
     43. B(O  30,Zr  4)                  1.9922         0.619755   
     44. B(O  31,Zr  4)                  2.0729         0.460682   
     45. B(O  32,Zr  5)                  2.0714         0.463238   
     46. B(O  33,Zr  5)                  1.9903         0.624221   
     47. B(O  34,Zr  5)                  2.0067         0.587662   
     48. B(O  35,Zr  5)                  1.9800         0.648203   
     49. B(C  36,O  12)                  1.3020         0.773185   
     50. B(C  36,O  33)                  1.3021         0.772921   
     51. B(C  37,O  25)                  1.3003         0.778078   
     52. B(C  37,O  13)                  1.3002         0.778424   
     53. B(C  38,O  21)                  1.2984         0.783570   
     54. B(C  38,O  14)                  1.2973         0.786770   
     55. B(C  39,O  29)                  1.2953         0.792577   
     56. B(C  39,O  15)                  1.2948         0.793807   
     57. B(C  40,O  34)                  1.2949         0.793561   
     58. B(C  40,O  16)                  1.2950         0.793422   
     59. B(C  41,O  26)                  1.2978         0.785266   
     60. B(C  41,O  17)                  1.2971         0.787325   
     61. B(C  42,O  22)                  1.2998         0.779363   
     62. B(C  42,O  18)                  1.2996         0.779909   
     63. B(C  43,O  19)                  1.3022         0.772596   
     64. B(C  43,O  30)                  1.3024         0.771942   
     65. B(C  44,O  35)                  1.2995         0.780378   
     66. B(C  44,O  20)                  1.2998         0.779418   
     67. B(C  45,O  31)                  1.2975         0.786181   
     68. B(C  45,O  23)                  1.2987         0.782517   
     69. B(C  46,O  32)                  1.2978         0.785264   
     70. B(C  46,O  24)                  1.2994         0.780719   
     71. B(C  47,O  28)                  1.2991         0.781390   
     72. B(C  47,O  27)                  1.2994         0.780672   
     73. B(H  48,C  41)                  1.0852         0.366513   
     74. B(H  49,C  42)                  1.0906         0.359367   
     75. B(H  50,C  38)                  1.0855         0.366037   
     76. B(H  51,C  37)                  1.0909         0.358950   
     77. B(H  52,C  43)                  1.0926         0.356699   
     78. B(H  53,C  47)                  1.0903         0.359753   
     79. B(H  54,C  39)                  1.0861         0.365267   
     80. B(H  55,C  45)                  1.0857         0.365786   
     81. B(H  56,C  40)                  1.0862         0.365175   
     82. B(H  57,C  46)                  1.0862         0.365102   
     83. B(H  58,C  36)                  1.0925         0.356840   
     84. B(H  59,C  44)                  1.0906         0.359355   
     85. B(Al 60,O  35)                  3.6666         0.010000   
     86. B(Al 60,O  34)                  3.4281         0.010000   
     87. B(Al 60,O  32)                  3.3913         0.010000   
     88. B(H  61,Zr  5)                  3.8009         0.010000   
     89. B(H  61,C  36)                  3.6740         0.010000   
     90. B(H  61,O  35)                  3.5836         0.010000   
     91. B(H  61,H  58)                  3.5645         0.010000   
     92. B(H  61,O  32)                  3.3374         0.010000   
     93. B(H  61,O  33)                  3.0138         0.010000   
     94. B(H  61,Al 60)                  1.5966         0.392495   
     95. B(H  62,C  46)                  3.4443         0.010000   
     96. B(H  62,O  34)                  3.4151         0.010000   
     97. B(H  62,H  57)                  3.1014         0.010000   
     98. B(H  62,O  32)                  3.0670         0.010000   
     99. B(H  62,Al 60)                  1.5968         0.392075   
    100. B(H  63,Zr  5)                  3.8452         0.010000   
    101. B(H  63,C  40)                  3.7122         0.010000   
    102. B(H  63,H  56)                  3.5896         0.010000   
    103. B(H  63,O  34)                  3.0039         0.010000   
    104. B(H  63,O  35)                  2.9781         0.010000   
    105. B(H  63,Al 60)                  1.5964         0.392778   
    106. A(Zr  3,Zr  0,O  15)          110.7037         0.354037   
    107. A(O  12,Zr  0,O  13)           81.9401         0.546864   
    108. A(O  11,Zr  0,O  15)          108.2108         0.489276   
    109. A(Zr  3,Zr  0,O  12)          105.5266         0.355223   
    110. A(Zr  3,Zr  0,O   9)           37.3443         0.318718   
    111. A(O  14,Zr  0,O  15)           75.3966         0.513790   
    112. A(Zr  3,Zr  0,O  13)           73.2310         0.357459   
    113. A(O  13,Zr  0,O  15)           84.5909         0.544825   
    114. A(O   6,Zr  0,O   9)           67.6058         0.452072   
    115. A(O  13,Zr  0,O  14)          129.0096         0.519273   
    116. A(O   9,Zr  0,O  15)           74.3246         0.479046   
    117. A(Zr  5,Zr  0,O  14)           91.5861         0.351664   
    118. A(O  12,Zr  0,O  15)          135.5134         0.541028   
    119. A(Zr  3,Zr  0,O  11)           88.3908         0.324743   
    120. A(O  12,Zr  0,O  14)           80.8355         0.515690   
    121. A(Zr  5,Zr  0,O  13)          127.3681         0.370855   
    122. A(Zr  5,Zr  0,O  12)           72.2769         0.368507   
    123. A(Zr  5,Zr  0,O   9)           95.3369         0.330181   
    124. A(O  11,Zr  0,O  12)           97.5696         0.491066   
    125. A(Zr  3,Zr  0,O  14)          157.7587         0.339181   
    126. A(Zr  5,Zr  0,O  11)           36.6900         0.336506   
    127. A(O  11,Zr  0,O  14)           69.5229         0.466838   
    128. A(O   6,Zr  0,O  14)          129.2913         0.484413   
    129. A(Zr  3,Zr  0,Zr  5)           70.8678         0.252883   
    130. A(O   6,Zr  0,O  11)           65.7217         0.461594   
    131. A(O   6,Zr  0,O  15)          140.9516         0.507894   
    132. A(O   9,Zr  0,O  11)           91.8491         0.435935   
    133. A(O   6,Zr  0,O  13)           95.1129         0.513302   
    134. A(O  11,Zr  0,O  13)          160.6232         0.494443   
    135. A(O   9,Zr  0,O  14)          136.8839         0.457182   
    136. A(Zr  3,Zr  0,O   6)           34.6944         0.335709   
    137. A(Zr  5,Zr  0,O   6)           37.7106         0.348019   
    138. A(Zr  5,Zr  0,O  15)          144.1412         0.367262   
    139. A(O   9,Zr  0,O  12)          141.5598         0.480791   
    140. A(O   9,Zr  0,O  13)           77.3701         0.484081   
    141. A(O   6,Zr  0,O  12)           82.5666         0.509768   
    142. A(Zr  2,Zr  1,O  19)          104.8558         0.355458   
    143. A(Zr  4,Zr  1,O  19)           72.1188         0.367676   
    144. A(O  18,Zr  1,O  19)           82.1295         0.547514   
    145. A(O  16,Zr  1,O  17)           75.6154         0.513344   
    146. A(O   8,Zr  1,O  16)           74.5841         0.479720   
    147. A(Zr  4,Zr  1,O  10)           36.8345         0.337735   
    148. A(O   7,Zr  1,O  10)           65.4889         0.462599   
    149. A(O   8,Zr  1,O  10)           91.7909         0.437647   
    150. A(Zr  2,Zr  1,O  16)          111.1805         0.355530   
    151. A(Zr  2,Zr  1,O   8)           37.3691         0.319020   
    152. A(O  10,Zr  1,O  16)          107.0842         0.492986   
    153. A(O   7,Zr  1,O  17)          128.6761         0.481426   
    154. A(O  10,Zr  1,O  17)           69.6320         0.467651   
    155. A(Zr  4,Zr  1,O  17)           91.1144         0.350270   
    156. A(O   8,Zr  1,O  18)           77.2597         0.484813   
    157. A(O  17,Zr  1,O  18)          128.2235         0.518876   
    158. A(O  10,Zr  1,O  18)          161.4498         0.498252   
    159. A(Zr  2,Zr  1,O  10)           88.1828         0.326830   
    160. A(O  17,Zr  1,O  19)           80.4370         0.513230   
    161. A(O  10,Zr  1,O  19)           97.9170         0.492877   
    162. A(O   7,Zr  1,O  18)           96.2734         0.513140   
    163. A(O  16,Zr  1,O  18)           84.6465         0.547638   
    164. A(O   8,Zr  1,O  17)          137.9855         0.455217   
    165. A(O   7,Zr  1,O  19)           82.2843         0.507569   
    166. A(O  16,Zr  1,O  19)          136.2120         0.541614   
    167. A(Zr  2,Zr  1,O  18)           73.9938         0.359005   
    168. A(Zr  4,Zr  1,O   8)           95.3853         0.329567   
    169. A(Zr  2,Zr  1,O  17)          157.7712         0.338816   
    170. A(O   7,Zr  1,O  16)          140.7655         0.507682   
    171. A(Zr  4,Zr  1,O  16)          143.2401         0.367751   
    172. A(Zr  2,Zr  1,O   7)           34.5751         0.335482   
    173. A(Zr  4,Zr  1,O  18)          128.3472         0.371385   
    174. A(Zr  2,Zr  1,Zr  4)           70.7048         0.253103   
    175. A(O   8,Zr  1,O  19)          140.8296         0.479614   
    176. A(O   7,Zr  1,O   8)           67.4995         0.450330   
    177. A(Zr  4,Zr  1,O   7)           37.5628         0.346784   
    178. A(O  21,Zr  2,O  22)          133.9015         0.523375   
    179. A(O   8,Zr  2,O  20)           84.7012         0.492815   
    180. A(O   8,Zr  2,O  11)           67.9729         0.458467   
    181. A(Zr  5,Zr  2,O   8)           37.9589         0.324350   
    182. A(O  21,Zr  2,O  23)           77.1895         0.489749   
    183. A(O  20,Zr  2,O  23)          133.8408         0.521039   
    184. A(O   7,Zr  2,O   8)           68.0423         0.459318   
    185. A(Zr  5,Zr  2,O   7)           88.2374         0.339204   
    186. A(O   7,Zr  2,O  22)           87.9996         0.518445   
    187. A(O  11,Zr  2,O  21)           71.0303         0.486296   
    188. A(Zr  1,Zr  2,Zr  5)           70.3888         0.246958   
    189. A(O   8,Zr  2,O  21)          136.7518         0.463569   
    190. A(Zr  1,Zr  2,O  23)           99.1952         0.339128   
    191. A(O  11,Zr  2,O  23)          120.6311         0.484291   
    192. A(O   8,Zr  2,O  23)          136.8931         0.461679   
    193. A(O  11,Zr  2,O  20)           89.3041         0.517316   
    194. A(Zr  5,Zr  2,O  20)           72.2830         0.361836   
    195. A(O   7,Zr  2,O  23)           70.7189         0.485201   
    196. A(Zr  1,Zr  2,O  20)          117.8782         0.360025   
    197. A(O  11,Zr  2,O  22)          152.3115         0.517459   
    198. A(O  20,Zr  2,O  21)           81.5956         0.523230   
    199. A(Zr  1,Zr  2,O   8)           37.7673         0.322787   
    200. A(Zr  1,Zr  2,O   7)           34.7655         0.337543   
    201. A(Zr  1,Zr  2,O  22)           72.2714         0.360115   
    202. A(O   7,Zr  2,O  11)           85.3688         0.481787   
    203. A(Zr  5,Zr  2,O  21)           98.8518         0.342076   
    204. A(O   7,Zr  2,O  21)          121.7835         0.487211   
    205. A(Zr  1,Zr  2,O  11)           87.3602         0.336972   
    206. A(O   8,Zr  2,O  22)           84.6143         0.492949   
    207. A(Zr  5,Zr  2,O  11)           35.0956         0.338629   
    208. A(Zr  1,Zr  2,O  21)          151.2382         0.340396   
    209. A(O   7,Zr  2,O  20)          152.2417         0.518302   
    210. A(O  22,Zr  2,O  23)           81.9425         0.521183   
    211. A(Zr  5,Zr  2,O  23)          151.0649         0.340799   
    212. A(O  20,Zr  2,O  22)           84.1717         0.557290   
    213. A(Zr  5,Zr  2,O  22)          117.9542         0.361927   
    214. A(O   6,Zr  3,O  10)           85.1974         0.482445   
    215. A(O   9,Zr  3,O  10)           67.9469         0.460989   
    216. A(Zr  4,Zr  3,O  10)           35.2307         0.340661   
    217. A(O  24,Zr  3,O  25)           82.0253         0.521761   
    218. A(O  26,Zr  3,O  27)           81.7115         0.523387   
    219. A(O   9,Zr  3,O  25)           87.0452         0.491896   
    220. A(Zr  0,Zr  3,O  27)          114.5479         0.359414   
    221. A(O  24,Zr  3,O  26)           77.2261         0.490683   
    222. A(O  25,Zr  3,O  27)           84.0950         0.556995   
    223. A(O  24,Zr  3,O  27)          135.6429         0.522189   
    224. A(O   9,Zr  3,O  27)           82.5642         0.492294   
    225. A(O   6,Zr  3,O  27)          149.0978         0.515555   
    226. A(Zr  4,Zr  3,O  27)           72.5581         0.361839   
    227. A(O  10,Zr  3,O  27)           92.0842         0.521094   
    228. A(O   9,Zr  3,O  26)          135.2216         0.462962   
    229. A(O  25,Zr  3,O  26)          132.2536         0.522958   
    230. A(O  10,Zr  3,O  26)           71.0414         0.489668   
    231. A(Zr  4,Zr  3,O   6)           88.3849         0.337435   
    232. A(O   6,Zr  3,O  26)          125.6529         0.484532   
    233. A(Zr  4,Zr  3,O  26)           97.1660         0.341996   
    234. A(Zr  0,Zr  3,O  26)          153.7055         0.339746   
    235. A(O   6,Zr  3,O   9)           67.8665         0.456220   
    236. A(O  10,Zr  3,O  25)          154.9908         0.520668   
    237. A(O   6,Zr  3,O  25)           85.5685         0.515134   
    238. A(Zr  4,Zr  3,O   9)           38.0585         0.323887   
    239. A(Zr  4,Zr  3,O  25)          121.3195         0.361570   
    240. A(Zr  0,Zr  3,O  25)           72.2114         0.359147   
    241. A(O  10,Zr  3,O  24)          116.5203         0.488563   
    242. A(O   9,Zr  3,O  24)          138.0722         0.461931   
    243. A(Zr  0,Zr  3,O   9)           37.6700         0.321798   
    244. A(O   6,Zr  3,O  24)           71.0008         0.483441   
    245. A(Zr  4,Zr  3,O  24)          148.1836         0.341298   
    246. A(Zr  0,Zr  3,O  10)           87.1845         0.338423   
    247. A(Zr  0,Zr  3,Zr  4)           70.4904         0.246495   
    248. A(Zr  0,Zr  3,O  24)          100.7869         0.339055   
    249. A(Zr  0,Zr  3,O   6)           34.6497         0.335226   
    250. A(Zr  1,Zr  4,Zr  3)           71.3827         0.254145   
    251. A(O   9,Zr  4,O  10)           67.0320         0.445507   
    252. A(O   7,Zr  4,O  10)           65.1656         0.456822   
    253. A(Zr  3,Zr  4,O  10)           34.6646         0.334563   
    254. A(O  10,Zr  4,O  28)           98.5355         0.509198   
    255. A(O   9,Zr  4,O  29)           73.7514         0.475026   
    256. A(O  28,Zr  4,O  30)           82.1400         0.549034   
    257. A(O  30,Zr  4,O  31)           81.0681         0.514303   
    258. A(O  29,Zr  4,O  31)           74.9141         0.509640   
    259. A(O   7,Zr  4,O  31)           69.2110         0.465545   
    260. A(O  28,Zr  4,O  31)          126.0329         0.519163   
    261. A(O  10,Zr  4,O  31)          129.5040         0.477474   
    262. A(O   9,Zr  4,O  31)          138.1912         0.453962   
    263. A(Zr  3,Zr  4,O  31)          159.4459         0.340387   
    264. A(Zr  1,Zr  4,O  31)           92.1125         0.350255   
    265. A(O  29,Zr  4,O  30)          137.4273         0.538849   
    266. A(O  10,Zr  4,O  30)           83.2223         0.504450   
    267. A(O   9,Zr  4,O  30)          140.2817         0.479305   
    268. A(O   7,Zr  4,O  30)           95.9848         0.491692   
    269. A(Zr  3,Zr  4,O  30)          104.1520         0.357843   
    270. A(Zr  1,Zr  4,O  30)           71.4524         0.368397   
    271. A(O  28,Zr  4,O  29)           84.2867         0.543990   
    272. A(O  10,Zr  4,O  29)          138.8128         0.499895   
    273. A(O   7,Zr  4,O  29)          107.2588         0.487277   
    274. A(Zr  3,Zr  4,O  29)          110.6892         0.354896   
    275. A(Zr  1,Zr  4,O  29)          142.7744         0.365333   
    276. A(O   9,Zr  4,O  28)           77.1973         0.483765   
    277. A(O   7,Zr  4,O  28)          163.6837         0.496294   
    278. A(Zr  3,Zr  4,O  28)           74.5212         0.360916   
    279. A(O   7,Zr  4,O   9)           94.6819         0.434559   
    280. A(Zr  1,Zr  4,O  28)          129.3663         0.371590   
    281. A(Zr  3,Zr  4,O   9)           37.6141         0.319701   
    282. A(Zr  1,Zr  4,O   9)           96.3858         0.328756   
    283. A(Zr  3,Zr  4,O   7)           90.3622         0.327023   
    284. A(Zr  1,Zr  4,O   7)           36.5475         0.336366   
    285. A(Zr  1,Zr  4,O  10)           37.4677         0.344203   
    286. A(O  11,Zr  5,O  35)           97.6791         0.511636   
    287. A(O  34,Zr  5,O  35)           83.9077         0.542983   
    288. A(O  33,Zr  5,O  35)           81.7683         0.549227   
    289. A(O  32,Zr  5,O  35)          126.5116         0.519183   
    290. A(O   8,Zr  5,O  35)           77.2923         0.484424   
    291. A(O   6,Zr  5,O  35)          163.1888         0.494077   
    292. A(Zr  2,Zr  5,O  35)           74.1497         0.360679   
    293. A(O  33,Zr  5,O  34)          135.9988         0.539126   
    294. A(O  32,Zr  5,O  34)           74.5897         0.509742   
    295. A(O  11,Zr  5,O  34)          139.5902         0.502360   
    296. A(Zr  0,Zr  5,O  35)          128.6543         0.371605   
    297. A(O  32,Zr  5,O  33)           81.2003         0.515528   
    298. A(O   6,Zr  5,O  34)          108.5444         0.485187   
    299. A(Zr  2,Zr  5,O  34)          110.4523         0.354716   
    300. A(Zr  0,Zr  5,O  34)          144.0174         0.365402   
    301. A(O  11,Zr  5,O  33)           83.6589         0.508045   
    302. A(O   8,Zr  5,O  33)          141.1611         0.481064   
    303. A(O   6,Zr  5,O  33)           95.8368         0.490636   
    304. A(Zr  0,Zr  5,O  33)           71.7742         0.369204   
    305. A(O  11,Zr  5,O  32)          129.9645         0.480690   
    306. A(O   8,Zr  5,O  32)          137.2669         0.455470   
    307. A(O   6,Zr  5,O  32)           69.0187         0.464417   
    308. A(Zr  2,Zr  5,O  32)          159.3197         0.340786   
    309. A(Zr  0,Zr  5,O  32)           92.4046         0.350912   
    310. A(Zr  2,Zr  5,O   6)           90.5938         0.326091   
    311. A(Zr  0,Zr  5,O   6)           36.5019         0.335627   
    312. A(Zr  0,Zr  5,Zr  2)           71.6675         0.254408   
    313. A(O   8,Zr  5,O  34)           73.7275         0.475745   
    314. A(O   8,Zr  5,O  11)           67.4042         0.449041   
    315. A(O   6,Zr  5,O  11)           65.5104         0.457831   
    316. A(Zr  2,Zr  5,O  11)           34.8854         0.336369   
    317. A(Zr  0,Zr  5,O  11)           37.6498         0.346317   
    318. A(O   6,Zr  5,O   8)           95.0294         0.434083   
    319. A(Zr  2,Zr  5,O  33)          105.1711         0.358370   
    320. A(Zr  2,Zr  5,O   8)           37.5457         0.320441   
    321. A(Zr  0,Zr  5,O   8)           96.6960         0.329749   
    322. A(Zr  3,O   6,Zr  5)          137.6117         0.459544   
    323. A(Zr  0,O   6,Zr  5)          105.7875         0.460270   
    324. A(Zr  0,O   6,Zr  3)          110.6559         0.478163   
    325. A(Zr  2,O   7,Zr  4)          137.8742         0.463648   
    326. A(Zr  1,O   7,Zr  4)          105.8897         0.460542   
    327. A(Zr  1,O   7,Zr  2)          110.6594         0.479427   
    328. A(Zr  1,O   8,Zr  2)          104.8636         0.431720   
    329. A(Zr  2,O   8,Zr  5)          104.4954         0.431547   
    330. A(Zr  1,O   8,Zr  5)          130.5635         0.426028   
    331. A(Zr  3,O   9,Zr  4)          104.3274         0.430007   
    332. A(Zr  0,O   9,Zr  4)          130.8968         0.425495   
    333. A(Zr  0,O   9,Zr  3)          104.9856         0.431601   
    334. A(Zr  3,O  10,Zr  4)          110.1047         0.477897   
    335. A(Zr  1,O  10,Zr  4)          105.6977         0.458858   
    336. A(Zr  1,O  10,Zr  3)          141.1299         0.468042   
    337. A(Zr  2,O  11,Zr  5)          110.0190         0.477336   
    338. A(Zr  0,O  11,Zr  5)          105.6602         0.459146   
    339. A(Zr  0,O  11,Zr  2)          140.8030         0.462529   
    340. A(Zr  0,O  12,C  36)          125.9710         0.501685   
    341. A(Zr  0,O  13,C  37)          128.7646         0.505787   
    342. A(Zr  0,O  14,C  38)          132.2684         0.478349   
    343. A(Zr  0,O  15,C  39)          138.2038         0.502302   
    344. A(Zr  1,O  16,C  40)          138.8233         0.503504   
    345. A(Zr  1,O  17,C  41)          133.4082         0.476832   
    346. A(Zr  1,O  18,C  42)          129.1264         0.507278   
    347. A(Zr  1,O  19,C  43)          125.3923         0.500905   
    348. A(Zr  2,O  20,C  44)          132.0652         0.508799   
    349. A(Zr  2,O  21,C  38)          139.2516         0.478864   
    350. A(Zr  2,O  22,C  42)          132.1146         0.508932   
    351. A(Zr  2,O  23,C  45)          139.0054         0.476778   
    352. A(Zr  3,O  24,C  46)          138.4458         0.477474   
    353. A(Zr  3,O  25,C  37)          130.9382         0.508366   
    354. A(Zr  3,O  26,C  41)          139.3479         0.479061   
    355. A(Zr  3,O  27,C  47)          132.7811         0.509096   
    356. A(Zr  4,O  28,C  47)          129.5608         0.507762   
    357. A(Zr  4,O  29,C  39)          140.1741         0.499810   
    358. A(Zr  4,O  30,C  43)          126.0729         0.501891   
    359. A(Zr  4,O  31,C  45)          130.9879         0.476682   
    360. A(C  46,O  32,Al 60)          123.4555         0.205807   
    361. A(Zr  5,O  32,Al 60)           88.9374         0.209004   
    362. A(Zr  5,O  32,C  46)          129.7383         0.477066   
    363. A(Zr  5,O  33,C  36)          126.2889         0.502682   
    364. A(Zr  5,O  34,C  40)          139.4952         0.499510   
    365. A(C  40,O  34,Al 60)          130.4713         0.202550   
    366. A(Zr  5,O  34,Al 60)           88.9677         0.211819   
    367. A(C  44,O  35,Al 60)          146.2783         0.181772   
    368. A(Zr  5,O  35,Al 60)           82.7453         0.191987   
    369. A(Zr  5,O  35,C  44)          128.9798         0.507134   
    370. A(O  12,C  36,O  33)          126.6296         0.464059   
    371. A(O  33,C  36,H  58)          116.6771         0.363563   
    372. A(O  12,C  36,H  58)          116.6933         0.363584   
    373. A(O  13,C  37,O  25)          127.4637         0.465198   
    374. A(O  25,C  37,H  51)          116.2710         0.364344   
    375. A(O  13,C  37,H  51)          116.2653         0.364371   
    376. A(O  14,C  38,O  21)          129.9006         0.466709   
    377. A(O  21,C  38,H  50)          115.0177         0.366006   
    378. A(O  14,C  38,H  50)          115.0816         0.366261   
    379. A(O  15,C  39,O  29)          128.8242         0.468451   
    380. A(O  29,C  39,H  54)          115.6042         0.366591   
    381. A(O  15,C  39,H  54)          115.5652         0.366688   
    382. A(O  16,C  40,O  34)          128.8154         0.468516   
    383. A(O  34,C  40,H  56)          115.5526         0.366653   
    384. A(O  16,C  40,H  56)          115.6261         0.366642   
    385. A(O  17,C  41,O  26)          130.0037         0.466954   
    386. A(O  26,C  41,H  48)          114.9487         0.366223   
    387. A(O  17,C  41,H  48)          115.0450         0.366387   
    388. A(O  18,C  42,O  22)          127.5537         0.465501   
    389. A(O  22,C  42,H  49)          116.2282         0.364519   
    390. A(O  18,C  42,H  49)          116.2181         0.364563   
    391. A(O  30,C  43,H  52)          116.7399         0.363460   
    392. A(O  19,C  43,H  52)          116.7215         0.363512   
    393. A(O  19,C  43,O  30)          126.5385         0.463887   
    394. A(O  35,C  44,H  59)          116.2422         0.364598   
    395. A(O  20,C  44,H  59)          116.3036         0.364521   
    396. A(O  20,C  44,O  35)          127.4542         0.465559   
    397. A(O  31,C  45,H  55)          115.0095         0.366171   
    398. A(O  23,C  45,H  55)          114.9808         0.365878   
    399. A(O  23,C  45,O  31)          130.0089         0.466530   
    400. A(O  32,C  46,H  57)          115.0508         0.365981   
    401. A(O  24,C  46,H  57)          115.1421         0.365617   
    402. A(O  24,C  46,O  32)          129.8071         0.466233   
    403. A(O  28,C  47,H  53)          116.2004         0.364748   
    404. A(O  27,C  47,H  53)          116.2110         0.364691   
    405. A(O  27,C  47,O  28)          127.5885         0.465806   
    406. A(O  32,Al 60,O  35)           61.5353         0.117729   
    407. A(O  35,Al 60,H  63)           52.5176         0.170801   
    408. A(O  35,Al 60,H  62)          118.3323         0.170768   
    409. A(O  35,Al 60,H  61)           74.3887         0.170788   
    410. A(O  32,Al 60,O  34)           42.4945         0.124030   
    411. A(O  34,Al 60,H  63)           61.1756         0.188743   
    412. A(O  34,Al 60,H  62)           76.0525         0.188703   
    413. A(O  34,Al 60,H  61)          103.7621         0.188727   
    414. A(O  32,Al 60,H  63)          101.8057         0.191849   
    415. A(O  32,Al 60,H  62)           64.6104         0.191807   
    416. A(O  32,Al 60,H  61)           74.4023         0.191832   
    417. A(H  62,Al 60,H  63)          116.4674         0.381726   
    418. A(H  61,Al 60,H  63)          117.2389         0.381797   
    419. A(O  34,Al 60,O  35)           43.9713         0.116862   
    420. A(H  61,Al 60,H  62)          116.9813         0.381678   
    421. D(Zr  5,Zr  2,Zr  1,O   7)    117.1327         0.010000   
    422. D(Zr  5,Zr  2,Zr  1,Zr  4)    103.5414         0.010000   
    423. D(O   7,Zr  2,Zr  1,Zr  4)    -13.5913         0.010000   
    424. D(O   6,Zr  3,Zr  0,Zr  5)     14.0661         0.010000   
    425. D(Zr  4,Zr  3,Zr  0,O   6)   -117.3906         0.010000   
    426. D(Zr  4,Zr  3,Zr  0,Zr  5)   -103.3245         0.010000   
    427. D(Zr  3,Zr  4,Zr  1,Zr  2)   -105.1181         0.010000   
    428. D(Zr  1,Zr  4,Zr  3,Zr  0)    104.4741         0.010000   
    429. D(Zr  1,Zr  4,Zr  3,O   6)     74.1416         0.010000   
    430. D(O   7,Zr  4,Zr  3,Zr  0)     72.6716         0.010000   
    431. D(Zr  3,Zr  4,Zr  1,O   7)   -117.7537         0.010000   
    432. D(O   7,Zr  4,Zr  1,Zr  2)     12.6356         0.010000   
    433. D(O   6,Zr  5,Zr  0,Zr  3)    -13.0714         0.010000   
    434. D(O   6,Zr  5,Zr  2,Zr  1)    -72.6662         0.010000   
    435. D(Zr  2,Zr  5,Zr  0,O   6)    117.7823         0.010000   
    436. D(Zr  2,Zr  5,Zr  0,Zr  3)    104.7110         0.010000   
    437. D(Zr  0,Zr  5,Zr  2,O   7)    -73.9111         0.010000   
    438. D(Zr  0,Zr  5,Zr  2,Zr  1)   -104.4224         0.010000   
    439. D(Zr  5,O   6,Zr  3,Zr  0)   -147.5998         0.010000   
    440. D(Zr  0,O   6,Zr  5,Zr  2)    -57.1261         0.010000   
    441. D(Zr  3,O   6,Zr  0,Zr  5)   -157.9515         0.010000   
    442. D(Zr  0,O   6,Zr  3,O   9)     23.8735         0.010000   
    443. D(Zr  3,O   6,Zr  0,O   9)    -23.7333         0.010000   
    444. D(Zr  3,O   6,Zr  5,Zr  0)    148.5980         0.010000   
    445. D(Zr  5,O   6,Zr  0,Zr  3)    157.9515         0.010000   
    446. D(Zr  0,O   6,Zr  5,O   8)    -94.4650         0.010000   
    447. D(Zr  0,O   6,Zr  3,Zr  4)     56.8504         0.010000   
    448. D(Zr  4,O   7,Zr  1,Zr  2)   -158.6651         0.010000   
    449. D(Zr  1,O   7,Zr  2,Zr  5)    -57.0057         0.010000   
    450. D(Zr  2,O   7,Zr  1,O   8)     23.8164         0.010000   
    451. D(Zr  2,O   7,Zr  1,Zr  4)    158.6651         0.010000   
    452. D(Zr  1,O   7,Zr  4,O   9)     94.4113         0.010000   
    453. D(Zr  1,O   7,Zr  4,Zr  3)     56.9995         0.010000   
    454. D(Zr  2,O   7,Zr  4,Zr  1)   -149.5014         0.010000   
    455. D(Zr  4,O   7,Zr  2,Zr  1)    148.5555         0.010000   
    456. D(Zr  1,O   7,Zr  2,O   8)    -23.9474         0.010000   
    457. D(Zr  2,O   8,Zr  5,Zr  0)     47.7451         0.010000   
    458. D(Zr  5,O   8,Zr  2,Zr  1)   -139.7771         0.010000   
    459. D(Zr  1,O   8,Zr  5,Zr  2)   -124.7551         0.010000   
    460. D(Zr  1,O   8,Zr  2,Zr  5)    139.7771         0.010000   
    461. D(Zr  1,O   8,Zr  2,O   7)     22.2040         0.010000   
    462. D(Zr  1,O   8,Zr  5,Zr  0)    -77.0100         0.010000   
    463. D(Zr  2,O   8,Zr  1,Zr  4)    -47.9120         0.010000   
    464. D(Zr  2,O   8,Zr  1,O   7)    -22.1822         0.010000   
    465. D(Zr  5,O   8,Zr  1,Zr  2)    124.6157         0.010000   
    466. D(Zr  3,O   9,Zr  4,Zr  1)    -47.8108         0.010000   
    467. D(Zr  0,O   9,Zr  4,Zr  3)    125.0491         0.010000   
    468. D(Zr  0,O   9,Zr  4,Zr  1)     77.2384         0.010000   
    469. D(Zr  4,O   9,Zr  3,Zr  0)    140.1632         0.010000   
    470. D(Zr  0,O   9,Zr  3,O   6)    -22.1192         0.010000   
    471. D(Zr  0,O   9,Zr  3,Zr  4)   -140.1632         0.010000   
    472. D(Zr  4,O   9,Zr  0,Zr  3)   -124.8026         0.010000   
    473. D(Zr  3,O   9,Zr  0,O   6)     22.1890         0.010000   
    474. D(Zr  3,O   9,Zr  0,Zr  5)     48.3113         0.010000   
    475. D(Zr  1,O  10,Zr  4,O   7)    -31.6379         0.010000   
    476. D(Zr  1,O  10,Zr  4,Zr  3)   -164.5980         0.010000   
    477. D(Zr  4,O  10,Zr  3,Zr  0)    -59.3369         0.010000   
    478. D(Zr  1,O  10,Zr  3,Zr  4)    155.9566         0.010000   
    479. D(Zr  1,O  10,Zr  3,Zr  0)     96.6197         0.010000   
    480. D(Zr  4,O  10,Zr  1,Zr  2)     59.3961         0.010000   
    481. D(Zr  3,O  10,Zr  1,Zr  4)   -156.5827         0.010000   
    482. D(Zr  3,O  10,Zr  4,Zr  1)    164.5980         0.010000   
    483. D(Zr  3,O  10,Zr  1,Zr  2)    -97.1866         0.010000   
    484. D(Zr  2,O  11,Zr  5,Zr  0)   -163.4864         0.010000   
    485. D(Zr  0,O  11,Zr  5,Zr  2)    163.4864         0.010000   
    486. D(Zr  5,O  11,Zr  2,Zr  1)     58.7496         0.010000   
    487. D(Zr  0,O  11,Zr  2,Zr  5)   -154.3378         0.010000   
    488. D(Zr  0,O  11,Zr  2,Zr  1)    -95.5882         0.010000   
    489. D(Zr  5,O  11,Zr  0,Zr  3)    -59.2655         0.010000   
    490. D(Zr  0,O  11,Zr  5,O   6)     31.1701         0.010000   
    491. D(Zr  2,O  11,Zr  0,Zr  5)    155.0021         0.010000   
    492. D(Zr  2,O  11,Zr  0,Zr  3)     95.7366         0.010000   
    493. D(C  36,O  12,Zr  0,Zr  5)     32.5955         0.010000   
    494. D(C  36,O  12,Zr  0,Zr  3)     96.1145         0.010000   
    495. D(C  37,O  13,Zr  0,Zr  5)    -25.5259         0.010000   
    496. D(C  37,O  13,Zr  0,Zr  3)     23.1113         0.010000   
    497. D(C  38,O  14,Zr  0,Zr  5)     72.0352         0.010000   
    498. D(C  38,O  14,Zr  0,Zr  3)     35.0242         0.010000   
    499. D(C  39,O  15,Zr  0,Zr  5)     53.1477         0.010000   
    500. D(C  39,O  15,Zr  0,Zr  3)    -32.5381         0.010000   
    501. D(C  40,O  16,Zr  1,Zr  4)    -57.8370         0.010000   
    502. D(C  40,O  16,Zr  1,Zr  2)     27.9522         0.010000   
    503. D(C  41,O  17,Zr  1,Zr  4)    -69.6334         0.010000   
    504. D(C  41,O  17,Zr  1,Zr  2)    -35.3261         0.010000   
    505. D(C  42,O  18,Zr  1,Zr  4)     29.2937         0.010000   
    506. D(C  42,O  18,Zr  1,Zr  2)    -19.0042         0.010000   
    507. D(C  43,O  19,Zr  1,Zr  4)    -33.9805         0.010000   
    508. D(C  43,O  19,Zr  1,Zr  2)    -97.5705         0.010000   
    509. D(C  44,O  20,Zr  2,Zr  5)     18.6782         0.010000   
    510. D(C  44,O  20,Zr  2,Zr  1)    -36.7386         0.010000   
    511. D(C  38,O  21,Zr  2,Zr  5)    -18.7314         0.010000   
    512. D(C  38,O  21,Zr  2,Zr  1)     46.2936         0.010000   
    513. D(C  42,O  22,Zr  2,Zr  5)     37.2647         0.010000   
    514. D(C  42,O  22,Zr  2,Zr  1)    -18.0847         0.010000   
    515. D(C  45,O  23,Zr  2,Zr  5)    -46.2050         0.010000   
    516. D(C  45,O  23,Zr  2,Zr  1)     19.5942         0.010000   
    517. D(C  46,O  24,Zr  3,Zr  4)     59.5578         0.010000   
    518. D(C  46,O  24,Zr  3,Zr  0)    -10.7005         0.010000   
    519. D(C  37,O  25,Zr  3,Zr  4)    -30.7573         0.010000   
    520. D(C  37,O  25,Zr  3,Zr  0)     21.9572         0.010000   
    521. D(C  41,O  26,Zr  3,Zr  4)     27.6551         0.010000   
    522. D(C  41,O  26,Zr  3,Zr  0)    -31.9880         0.010000   
    523. D(C  47,O  27,Zr  3,Zr  4)    -14.1031         0.010000   
    524. D(C  47,O  27,Zr  3,Zr  0)     44.0032         0.010000   
    525. D(C  47,O  28,Zr  4,Zr  3)    -14.9053         0.010000   
    526. D(C  47,O  28,Zr  4,Zr  1)     34.1237         0.010000   
    527. D(C  39,O  29,Zr  4,Zr  3)     24.8681         0.010000   
    528. D(C  39,O  29,Zr  4,Zr  1)    -61.2892         0.010000   
    529. D(C  43,O  30,Zr  4,Zr  3)    -99.7230         0.010000   
    530. D(C  43,O  30,Zr  4,Zr  1)    -35.3097         0.010000   
    531. D(C  45,O  31,Zr  4,Zr  3)    -37.3481         0.010000   
    532. D(C  45,O  31,Zr  4,Zr  1)    -73.1016         0.010000   
    533. D(Al 60,O  32,Zr  5,Zr  0)   -149.6277         0.010000   
    534. D(C  46,O  32,Zr  5,Zr  2)     37.0916         0.010000   
    535. D(C  46,O  32,Zr  5,Zr  0)     75.8151         0.010000   
    536. D(C  36,O  33,Zr  5,Zr  2)     98.6498         0.010000   
    537. D(C  36,O  33,Zr  5,Zr  0)     34.2690         0.010000   
    538. D(Al 60,O  34,Zr  5,Zr  0)   -135.3720         0.010000   
    539. D(C  40,O  34,Zr  5,Zr  2)    -30.1281         0.010000   
    540. D(C  40,O  34,Zr  5,Zr  0)     56.5628         0.010000   
    541. D(Al 60,O  35,Zr  5,Zr  0)    136.4739         0.010000   
    542. D(C  44,O  35,Zr  5,Zr  2)     18.9403         0.010000   
    543. D(C  44,O  35,Zr  5,Zr  0)    -30.8359         0.010000   
    544. D(H  58,C  36,O  33,Zr  5)    154.2339         0.055016   
    545. D(O  12,C  36,O  33,Zr  5)    -25.8061         0.055016   
    546. D(H  58,C  36,O  12,Zr  0)    157.6055         0.050553   
    547. D(O  33,C  36,O  12,Zr  0)    -22.3545         0.050553   
    548. D(H  51,C  37,O  25,Zr  3)    164.9312         0.046358   
    549. D(O  13,C  37,O  25,Zr  3)    -14.9696         0.046358   
    550. D(H  51,C  37,O  13,Zr  0)    161.7685         0.046404   
    551. D(O  25,C  37,O  13,Zr  0)    -18.3307         0.046404   
    552. D(H  50,C  38,O  21,Zr  2)    161.4862         0.047091   
    553. D(O  14,C  38,O  21,Zr  2)    -18.3893         0.047091   
    554. D(H  50,C  38,O  14,Zr  0)    161.9209         0.047521   
    555. D(O  21,C  38,O  14,Zr  0)    -18.2036         0.047521   
    556. D(H  54,C  39,O  29,Zr  4)   -169.9856         0.048308   
    557. D(O  15,C  39,O  29,Zr  4)     10.9849         0.048308   
    558. D(H  54,C  39,O  15,Zr  0)    175.1642         0.048476   
    559. D(O  29,C  39,O  15,Zr  0)     -5.8060         0.048476   
    560. D(H  56,C  40,O  34,Zr  5)    173.7190         0.067125   
    561. D(O  16,C  40,O  34,Al 60)   -171.4418         0.067125   
    562. D(O  16,C  40,O  34,Zr  5)     -7.2130         0.067125   
    563. D(H  56,C  40,O  16,Zr  1)   -172.2779         0.053562   
    564. D(O  34,C  40,O  16,Zr  1)      8.6547         0.053562   
    565. D(H  48,C  41,O  26,Zr  3)   -168.3466         0.047319   
    566. D(O  17,C  41,O  26,Zr  3)     11.0268         0.047319   
    567. D(H  48,C  41,O  17,Zr  1)   -162.8840         0.047596   
    568. D(O  26,C  41,O  17,Zr  1)     17.7432         0.047596   
    569. D(H  49,C  42,O  22,Zr  2)   -167.6453         0.046529   
    570. D(O  18,C  42,O  22,Zr  2)     12.2588         0.046529   
    571. D(H  49,C  42,O  18,Zr  1)   -164.9217         0.046601   
    572. D(O  22,C  42,O  18,Zr  1)     15.1742         0.046601   
    573. D(H  52,C  43,O  30,Zr  4)   -153.9580         0.045548   
    574. D(O  19,C  43,O  30,Zr  4)     26.1876         0.045548   
    575. D(H  52,C  43,O  19,Zr  1)   -156.1843         0.045633   
    576. D(O  30,C  43,O  19,Zr  1)     23.6701         0.045633   
    577. D(H  59,C  44,O  35,Zr  5)    165.3854         0.060539   
    578. D(O  20,C  44,O  35,Al 60)   -171.5277         0.060539   
    579. D(O  20,C  44,O  35,Zr  5)    -14.6402         0.060539   
    580. D(H  59,C  44,O  20,Zr  2)    166.8487         0.046536   
    581. D(O  35,C  44,O  20,Zr  2)    -13.1257         0.046536   
    582. D(H  55,C  45,O  31,Zr  4)   -161.4269         0.047442   
    583. D(O  23,C  45,O  31,Zr  4)     18.9394         0.047442   
    584. D(H  55,C  45,O  23,Zr  2)   -162.4200         0.046950   
    585. D(O  31,C  45,O  23,Zr  2)     17.2138         0.046950   
    586. D(H  57,C  46,O  32,Zr  5)    160.1559         0.065554   
    587. D(O  24,C  46,O  32,Al 60)   -141.1435         0.065554   
    588. D(O  24,C  46,O  32,Zr  5)    -19.7828         0.065554   
    589. D(H  57,C  46,O  24,Zr  3)    155.9308         0.051661   
    590. D(O  32,C  46,O  24,Zr  3)    -24.1305         0.051661   
    591. D(H  53,C  47,O  28,Zr  4)   -168.1886         0.046799   
    592. D(O  27,C  47,O  28,Zr  4)     11.9707         0.046799   
    593. D(H  53,C  47,O  27,Zr  3)   -170.3782         0.046703   
    594. D(O  28,C  47,O  27,Zr  3)      9.4624         0.046703   
    595. D(H  61,Al 60,O  35,C  44)     78.7136         0.010000   
    596. D(H  61,Al 60,O  35,Zr  5)    -83.3712         0.010000   
    597. D(H  62,Al 60,O  34,Zr  5)    118.5469         0.010000   
    598. D(H  61,Al 60,O  34,C  40)    173.5128         0.010000   
    599. D(H  61,Al 60,O  34,Zr  5)      3.6825         0.010000   
    600. D(H  62,Al 60,O  32,Zr  5)   -145.9664         0.010000   
    601. D(H  61,Al 60,O  32,C  46)   -137.8549         0.010000   
    602. D(H  62,Al 60,O  35,Zr  5)     29.2436         0.010000   
    603. D(H  61,Al 60,O  32,Zr  5)     83.1971         0.010000   
    -----------------------------------------------------------------

Number of atoms                         .... 64
Number of degrees of freedom            .... 603


         *************************************************************
         *                GEOMETRY OPTIMIZATION CYCLE   1            *
         *************************************************************
---------------------------------
CARTESIAN COORDINATES (ANGSTROEM)
---------------------------------
  Zr    -0.416089    2.142734    1.446813
  Zr     0.388077   -2.117210   -1.467402
  Zr     1.800738   -1.158311    1.505126
  Zr    -1.814129    1.178309   -1.534438
  Zr     1.594627    1.019475   -1.766924
  Zr    -1.606752   -0.998126    1.749086
  O     -1.636677    0.743274    0.499148
  O      1.612520   -0.716244   -0.517615
  O     -0.001616   -1.982951    0.665300
  O     -0.015300    2.002720   -0.681881
  O     -0.191155   -0.087662   -1.768869
  O      0.169103    0.108990    1.761154
  O     -1.921581    2.187557    2.752381
  O     -1.365924    3.725472    0.721707
  O      0.663948    1.963611    3.201244
  O      1.234066    3.226512    1.135585
  O     -1.282715   -3.165041   -1.166602
  O     -0.667303   -1.923978   -3.241002
  O      1.302165   -3.721784   -0.754763
  O      1.905013   -2.165391   -2.762721
  O      1.268572   -2.133883    3.137667
  O      2.287276    0.290248    2.894511
  O      2.611272   -2.881180    0.982335
  O      3.603649   -0.427122    0.794157
  O     -3.573255    0.312468   -0.874979
  O     -2.727526    2.828042   -0.945141
  O     -2.237913   -0.186945   -3.025025
  O     -1.275035    2.274219   -3.085843
  O      1.047465    2.461518   -3.006174
  O      2.445812    2.508958   -0.728266
  O      1.921601    0.048871   -3.475695
  O      3.537023    0.388402   -1.412021
  O     -3.550486   -0.391167    1.369131
  O     -1.962137   -0.031129    3.451941
  O     -2.453597   -2.517032    0.747818
  O     -1.040841   -2.419681    3.005781
  C     -2.249230    1.232947    3.574910
  C     -2.348940    3.766170   -0.128251
  C      1.734025    1.295100    3.502729
  C      2.196722    3.293000    0.272188
  C     -2.223847   -3.266443   -0.282909
  C     -1.702552   -1.225100   -3.590568
  C      2.237770   -3.801425    0.143768
  C      2.215655   -1.214208   -3.596077
  C      0.132462   -2.635825    3.520825
  C      4.118490   -0.003290   -0.320294
  C     -4.112213   -0.061262    0.246704
  C     -0.129122    2.743964   -3.479017
  H     -2.191947   -1.553253   -4.501861
  H      2.770401   -4.751290    0.201837
  H      2.244455    1.624836    4.402257
  H     -2.920833    4.694543   -0.160811
  H      2.777463   -1.505441   -4.486747
  H     -0.158604    3.460678   -4.300068
  H      2.898902    4.109210    0.415038
  H      5.203676    0.022132   -0.343644
  H     -2.924142   -4.082879   -0.434004
  H     -5.197562   -0.105319    0.245134
  H     -2.822926    1.521916    4.458579
  H      0.167477   -3.316837    4.371898
  Al    -4.657946   -2.916934    3.342622
  H     -4.293928   -1.722662    4.337700
  H     -5.590964   -2.562480    2.096129
  H     -3.542256   -4.032953    3.101612

----------------------------
CARTESIAN COORDINATES (A.U.)
----------------------------
  NO LB      ZA    FRAG     MASS         X           Y           Z
   0 Zr   12.0000*   0    91.220   -0.786294    4.049180    2.734080
   1 Zr   12.0000*   0    91.220    0.733358   -4.000947   -2.772987
   2 Zr   12.0000*   0    91.220    3.402901   -2.188890    2.844275
   3 Zr   12.0000*   0    91.220   -3.428207    2.226682   -2.899668
   4 Zr   12.0000*   0    91.220    3.013409    1.926529   -3.339002
   5 Zr   12.0000*   0    91.220   -3.036321   -1.886185    3.305294
   6 O     8.0000    0    15.999   -3.092872    1.404585    0.943253
   7 O     8.0000    0    15.999    3.047222   -1.353505   -0.978150
   8 O     8.0000    0    15.999   -0.003054   -3.747234    1.257235
   9 O     8.0000    0    15.999   -0.028914    3.784592   -1.288568
  10 O     8.0000    0    15.999   -0.361231   -0.165657   -3.342679
  11 O     8.0000    0    15.999    0.319558    0.205961    3.328099
  12 O     8.0000    0    15.999   -3.631262    4.133883    5.201247
  13 O     8.0000    0    15.999   -2.581222    7.040122    1.363828
  14 O     8.0000    0    15.999    1.254679    3.710687    6.049474
  15 O     8.0000    0    15.999    2.332047    6.097225    2.145944
  16 O     8.0000    0    15.999   -2.423981   -5.981060   -2.204558
  17 O     8.0000    0    15.999   -1.261020   -3.635791   -6.124607
  18 O     8.0000    0    15.999    2.460735   -7.033152   -1.426295
  19 O     8.0000    0    15.999    3.599952   -4.091995   -5.220787
  20 O     8.0000    0    15.999    2.397254   -4.032454    5.929332
  21 O     8.0000    0    15.999    4.322326    0.548489    5.469833
  22 O     8.0000    0    15.999    4.934589   -5.444640    1.856345
  23 O     8.0000    0    15.999    6.809910   -0.807143    1.500739
  24 O     8.0000    0    15.999   -6.752473    0.590479   -1.653471
  25 O     8.0000    0    15.999   -5.154277    5.344225   -1.786058
  26 O     8.0000    0    15.999   -4.229043   -0.353275   -5.716468
  27 O     8.0000    0    15.999   -2.409468    4.297651   -5.831398
  28 O     8.0000    0    15.999    1.979423    4.651594   -5.680846
  29 O     8.0000    0    15.999    4.621914    4.741243   -1.376223
  30 O     8.0000    0    15.999    3.631300    0.092353   -6.568111
  31 O     8.0000    0    15.999    6.684005    0.733973   -2.668334
  32 O     8.0000    0    15.999   -6.709446   -0.739198    2.587283
  33 O     8.0000    0    15.999   -3.707901   -0.058825    6.523223
  34 O     8.0000    0    15.999   -4.636627   -4.756502    1.413170
  35 O     8.0000    0    15.999   -1.966905   -4.572535    5.680103
  36 C     6.0000    0    12.011   -4.250428    2.329931    6.755601
  37 C     6.0000    0    12.011   -4.438854    7.117029   -0.242359
  38 C     6.0000    0    12.011    3.276832    2.447384    6.619198
  39 C     6.0000    0    12.011    4.151203    6.222869    0.514360
  40 C     6.0000    0    12.011   -4.202462   -6.172683   -0.534621
  41 C     6.0000    0    12.011   -3.217356   -2.315103   -6.785189
  42 C     6.0000    0    12.011    4.228772   -7.183653    0.271682
  43 C     6.0000    0    12.011    4.186982   -2.294521   -6.795601
  44 C     6.0000    0    12.011    0.250318   -4.980988    6.653395
  45 C     6.0000    0    12.011    7.782818   -0.006217   -0.605268
  46 C     6.0000    0    12.011   -7.770955   -0.115768    0.466202
  47 C     6.0000    0    12.011   -0.244005    5.185340   -6.574390
  48 H     1.0000    0     1.008   -4.142180   -2.935223   -8.507285
  49 H     1.0000    0     1.008    5.235299   -8.978636    0.381417
  50 H     1.0000    0     1.008    4.241405    3.070495    8.319060
  51 H     1.0000    0     1.008   -5.519575    8.871400   -0.303890
  52 H     1.0000    0     1.008    5.248645   -2.844870   -8.478723
  53 H     1.0000    0     1.008   -0.299718    6.539734   -8.125950
  54 H     1.0000    0     1.008    5.478130    7.765281    0.784308
  55 H     1.0000    0     1.008    9.833523    0.041823   -0.649392
  56 H     1.0000    0     1.008   -5.525828   -7.715523   -0.820148
  57 H     1.0000    0     1.008   -9.821970   -0.199024    0.463236
  58 H     1.0000    0     1.008   -5.334558    2.876005    8.425494
  59 H     1.0000    0     1.008    0.316486   -6.267914    8.261691
  60 Al   13.0000    0    26.982   -8.802241   -5.512206    6.316640
  61 H     1.0000    0     1.008   -8.114348   -3.255359    8.197065
  62 H     1.0000    0     1.008  -10.565392   -4.842386    3.961110
  63 H     1.0000    0     1.008   -6.693894   -7.621177    5.861197
* core charge reduced due to ECP

--------------------------------
INTERNAL COORDINATES (ANGSTROEM)
--------------------------------
 Zr     0   0   0     0.000000000000     0.00000000     0.00000000
 Zr     1   0   0     5.223643110597     0.00000000     0.00000000
 Zr     2   1   0     3.427975844360    49.57540087     0.00000000
 Zr     1   2   3     3.431106118204    49.36462452   179.72951959
 Zr     2   1   3     3.374058504791    49.18924274   260.67447536
 Zr     1   2   3     3.372543197459    49.07003318   279.66308745
 O      1   2   3     2.084799796361    44.69269594   227.42366533
 O      3   2   1     2.079020866939    34.76550290   294.09976892
 O      3   2   1     2.152630288891    37.76727375    76.17229085
 O      4   1   2     2.154597756536    37.67004791   283.87664790
 O      4   1   2     2.071638316428    87.18445469   340.41098507
 O      3   2   1     2.081785862238    87.36015327    19.77998283
 O      1   2   3     1.993244674014   120.00200956   264.67025348
 O      1   2   3     1.983186046437   121.37219689   165.32188444
 O      1   2   3     2.067992208005   108.79971002   354.80094827
 O      1   2   3     1.998612265188   103.19358135    73.62916518
 O      2   1   3     1.994987493827   102.43227375   107.35118830
 O      2   1   3     2.072878017110   108.84087206   186.18984108
 O      2   1   3     1.979411303728   122.09454730    15.89076764
 O      2   1   3     1.995311884731   119.92737802   275.83947725
 O      3   2   1     1.974875556404   117.87822750   107.59393203
 O      3   2   1     2.065292444950   151.23816148   339.27020284
 O      3   2   1     1.974475473307    72.27136380   180.75272989
 O      3   2   1     2.071377476150    99.19515584   259.16768657
 O      4   1   2     2.068596268955   100.78686933    96.88073714
 O      4   1   2     1.975647742909    72.21139922   174.79051508
 O      4   1   2     2.065275006864   153.70553115    13.91789818
 O      4   1   2     1.974460954479   114.54792218   249.40439898
 O      5   2   1     1.978538405080   129.36629235   257.46294637
 O      5   2   1     2.005463623136   142.77443114    47.57653610
 O      5   2   1     1.992205482422    71.45244116   194.96929212
 O      5   2   1     2.072947653332    92.11249829   115.12098473
 O      6   1   2     2.071441092586    92.40462228   245.87159983
 O      6   1   2     1.990250751247    71.77415541   165.95208287
 O      6   1   2     2.006679405413   144.01741540   312.61565285
 O      6   1   2     1.979988826861   128.65431151   103.10715672
 C     13   1   2     1.301993964785   125.97095217    44.43601907
 C     14   1   2     1.300155851275   128.76463490    34.48502573
 C     15   1   2     1.297252853337   132.26839163    25.10557895
 C     16   1   2     1.294828820794   138.20383034    18.67122204
 C     35   6   1     1.294913159444   139.49524149    56.56282276
 C     18   2   1     1.297060670452   133.40815592   337.20509955
 C     19   2   1     1.299636944130   129.12642343   328.47214510
 C     20   2   1     1.302201451002   125.39225423   314.01158960
 C     36   6   1     1.299473284542   128.97976370   329.16409898
 C     32   5   2     1.297456774881   130.98790182   286.89840849
 C     33   6   1     1.297774211749   129.73829165    75.81507513
 C     29   5   2     1.299120392354   129.56080071    34.12366825
 H     42  18   2     1.085195234249   115.04497801   197.11598902
 H     43  19   2     1.090555004108   116.21805491   195.07831073
 H     39  15   1     1.085548833996   115.08159008   161.92090114
 H     38  14   1     1.090870622581   116.26526542   161.76847583
 H     44  20   2     1.092582843167   116.72150857   203.81566791
 H     48  29   5     1.090262583704   116.20036912   191.81137980
 H     40  16   1     1.086121683606   115.56516139   175.16420811
 H     46  32   5     1.085735496005   115.00947431   198.57306500
 H     41  35   6     1.086190628881   115.55262825   173.71897729
 H     47  33   6     1.086244863709   115.05077357   160.15587626
 H     37  13   1     1.092475316268   116.69329890   157.60546465
 H     45  36   6     1.090563600074   116.24219502   165.38538124
 Al    33   6   1     3.391257874666    88.93744239   210.37230689
 H     61  33   6     1.596550962747    74.40227904    83.19714841
 H     61  33   6     1.596842508958    64.61038346   214.03355776
 H     61  33   6     1.596354811032   101.80565700   327.91213386

---------------------------
INTERNAL COORDINATES (A.U.)
---------------------------
 Zr     0   0   0     0.000000000000     0.00000000     0.00000000
 Zr     1   0   0     9.871254900373     0.00000000     0.00000000
 Zr     2   1   0     6.477935539539    49.57540087     0.00000000
 Zr     1   2   3     6.483850899827    49.36462452   179.72951959
 Zr     2   1   3     6.376046533882    49.18924274   260.67447536
 Zr     1   2   3     6.373183018017    49.07003318   279.66308745
 O      1   2   3     3.939700659178    44.69269594   227.42366533
 O      3   2   1     3.928780065223    34.76550290   294.09976892
 O      3   2   1     4.067881713588    37.76727375    76.17229085
 O      4   1   2     4.071599688614    37.67004791   283.87664790
 O      4   1   2     3.914829066586    87.18445469   340.41098507
 O      3   2   1     3.934005149098    87.36015327    19.77998283
 O      1   2   3     3.766686551783   120.00200956   264.67025348
 O      1   2   3     3.747678500379   121.37219689   165.32188444
 O      1   2   3     3.907938920212   108.79971002   354.80094827
 O      1   2   3     3.776829829101   103.19358135    73.62916518
 O      2   1   3     3.769980003932   102.43227375   107.35118830
 O      2   1   3     3.917171761364   108.84087206   186.18984108
 O      2   1   3     3.740545270434   122.09454730    15.89076764
 O      2   1   3     3.770593013901   119.92737802   275.83947725
 O      3   2   1     3.731973950178   117.87822750   107.59393203
 O      3   2   1     3.902837107413   151.23816148   339.27020284
 O      3   2   1     3.731217902695    72.27136380   180.75272989
 O      3   2   1     3.914336149896    99.19515584   259.16768657
 O      4   1   2     3.909080429977   100.78686933    96.88073714
 O      4   1   2     3.733433171199    72.21139922   174.79051508
 O      4   1   2     3.902804154205   153.70553115    13.91789818
 O      4   1   2     3.731190466087   114.54792218   249.40439898
 O      5   2   1     3.738895731047   129.36629235   257.46294637
 O      5   2   1     3.789777019269   142.77443114    47.57653610
 O      5   2   1     3.764722764274    71.45244116   194.96929212
 O      5   2   1     3.917303354753    92.11249829   115.12098473
 O      6   1   2     3.914456367538    92.40462228   245.87159983
 O      6   1   2     3.761028857689    71.77415541   165.95208287
 O      6   1   2     3.792074514811   144.01741540   312.61565285
 O      6   1   2     3.741636630991   128.65431151   103.10715672
 C     13   1   2     2.460412021462   125.97095217    44.43601907
 C     14   1   2     2.456938490325   128.76463490    34.48502573
 C     15   1   2     2.451452619254   132.26839163    25.10557895
 C     16   1   2     2.446871861609   138.20383034    18.67122204
 C     35   6   1     2.447031238559   139.49524149    56.56282276
 C     18   2   1     2.451089446234   133.40815592   337.20509955
 C     19   2   1     2.455957897932   129.12642343   328.47214510
 C     20   2   1     2.460804113589   125.39225423   314.01158960
 C     36   6   1     2.455648626132   128.97976370   329.16409898
 C     32   5   2     2.451837975126   130.98790182   286.89840849
 C     33   6   1     2.452437843871   129.73829165    75.81507513
 C     29   5   2     2.454981756542   129.56080071    34.12366825
 H     42  18   2     2.050721794567   115.04497801   197.11598902
 H     43  19   2     2.060850291742   116.21805491   195.07831073
 H     39  15   1     2.051390001251   115.08159008   161.92090114
 H     38  14   1     2.061446724219   116.26526542   161.76847583
 H     44  20   2     2.064682352207   116.72150857   203.81566791
 H     48  29   5     2.060297697262   116.20036912   191.81137980
 H     40  16   1     2.052472530129   115.56516139   175.16420811
 H     46  32   5     2.051742741327   115.00947431   198.57306500
 H     41  35   6     2.052602817816   115.55262825   173.71897729
 H     47  33   6     2.052705306789   115.05077357   160.15587626
 H     37  13   1     2.064479155816   116.69329890   157.60546465
 H     45  36   6     2.060866535764   116.24219502   165.38538124
 Al    33   6   1     6.408548632622    88.93744239   210.37230689
 H     61  33   6     3.017044078441    74.40227904    83.19714841
 H     61  33   6     3.017595020935    64.61038346   214.03355776
 H     61  33   6     3.016673405418   101.80565700   327.91213386

---------------------
BASIS SET INFORMATION
---------------------
There are 5 groups of distinct atoms

 Group   1 Type Zr  : 7s6p5d contracted to 5s3p2d pattern {31111/411/41}
 Group   2 Type O   : 7s4p1d contracted to 3s2p1d pattern {511/31/1}
 Group   3 Type C   : 7s4p1d contracted to 3s2p1d pattern {511/31/1}
 Group   4 Type H   : 4s contracted to 2s pattern {31}
 Group   5 Type Al  : 10s7p1d contracted to 4s3p1d pattern {5311/511/1}

Atom   0Zr   basis set group =>   1
Atom   1Zr   basis set group =>   1
Atom   2Zr   basis set group =>   1
Atom   3Zr   basis set group =>   1
Atom   4Zr   basis set group =>   1
Atom   5Zr   basis set group =>   1
Atom   6O    basis set group =>   2
Atom   7O    basis set group =>   2
Atom   8O    basis set group =>   2
Atom   9O    basis set group =>   2
Atom  10O    basis set group =>   2
Atom  11O    basis set group =>   2
Atom  12O    basis set group =>   2
Atom  13O    basis set group =>   2
Atom  14O    basis set group =>   2
Atom  15O    basis set group =>   2
Atom  16O    basis set group =>   2
Atom  17O    basis set group =>   2
Atom  18O    basis set group =>   2
Atom  19O    basis set group =>   2
Atom  20O    basis set group =>   2
Atom  21O    basis set group =>   2
Atom  22O    basis set group =>   2
Atom  23O    basis set group =>   2
Atom  24O    basis set group =>   2
Atom  25O    basis set group =>   2
Atom  26O    basis set group =>   2
Atom  27O    basis set group =>   2
Atom  28O    basis set group =>   2
Atom  29O    basis set group =>   2
Atom  30O    basis set group =>   2
Atom  31O    basis set group =>   2
Atom  32O    basis set group =>   2
Atom  33O    basis set group =>   2
Atom  34O    basis set group =>   2
Atom  35O    basis set group =>   2
Atom  36C    basis set group =>   3
Atom  37C    basis set group =>   3
Atom  38C    basis set group =>   3
Atom  39C    basis set group =>   3
Atom  40C    basis set group =>   3
Atom  41C    basis set group =>   3
Atom  42C    basis set group =>   3
Atom  43C    basis set group =>   3
Atom  44C    basis set group =>   3
Atom  45C    basis set group =>   3
Atom  46C    basis set group =>   3
Atom  47C    basis set group =>   3
Atom  48H    basis set group =>   4
Atom  49H    basis set group =>   4
Atom  50H    basis set group =>   4
Atom  51H    basis set group =>   4
Atom  52H    basis set group =>   4
Atom  53H    basis set group =>   4
Atom  54H    basis set group =>   4
Atom  55H    basis set group =>   4
Atom  56H    basis set group =>   4
Atom  57H    basis set group =>   4
Atom  58H    basis set group =>   4
Atom  59H    basis set group =>   4
Atom  60Al   basis set group =>   5
Atom  61H    basis set group =>   4
Atom  62H    basis set group =>   4
Atom  63H    basis set group =>   4
---------------------------------
AUXILIARY/J BASIS SET INFORMATION
---------------------------------
There are 5 groups of distinct atoms

 Group   1 Type Zr  : 11s5p5d3f3g contracted to 8s5p5d2f3g pattern {41111111/11111/11111/21/111}
 Group   2 Type O   : 12s5p4d2f1g contracted to 6s4p3d1f1g pattern {711111/2111/211/2/1}
 Group   3 Type C   : 12s5p4d2f1g contracted to 6s4p3d1f1g pattern {711111/2111/211/2/1}
 Group   4 Type H   : 5s2p1d contracted to 3s1p1d pattern {311/2/1}
 Group   5 Type Al  : 14s5p5d2f1g contracted to 8s4p3d1f1g pattern {71111111/2111/311/2/1}

Atom   0Zr   basis set group =>   1
Atom   1Zr   basis set group =>   1
Atom   2Zr   basis set group =>   1
Atom   3Zr   basis set group =>   1
Atom   4Zr   basis set group =>   1
Atom   5Zr   basis set group =>   1
Atom   6O    basis set group =>   2
Atom   7O    basis set group =>   2
Atom   8O    basis set group =>   2
Atom   9O    basis set group =>   2
Atom  10O    basis set group =>   2
Atom  11O    basis set group =>   2
Atom  12O    basis set group =>   2
Atom  13O    basis set group =>   2
Atom  14O    basis set group =>   2
Atom  15O    basis set group =>   2
Atom  16O    basis set group =>   2
Atom  17O    basis set group =>   2
Atom  18O    basis set group =>   2
Atom  19O    basis set group =>   2
Atom  20O    basis set group =>   2
Atom  21O    basis set group =>   2
Atom  22O    basis set group =>   2
Atom  23O    basis set group =>   2
Atom  24O    basis set group =>   2
Atom  25O    basis set group =>   2
Atom  26O    basis set group =>   2
Atom  27O    basis set group =>   2
Atom  28O    basis set group =>   2
Atom  29O    basis set group =>   2
Atom  30O    basis set group =>   2
Atom  31O    basis set group =>   2
Atom  32O    basis set group =>   2
Atom  33O    basis set group =>   2
Atom  34O    basis set group =>   2
Atom  35O    basis set group =>   2
Atom  36C    basis set group =>   3
Atom  37C    basis set group =>   3
Atom  38C    basis set group =>   3
[...]
179:   1795.18   0.003947   19.95  0.000686  (-0.017168 -0.017385  0.009445)
180:   2896.42   0.011945   60.37  0.001287  ( 0.000381 -0.035317  0.006289)
181:   2897.28   0.011923   60.25  0.001284  ( 0.027540  0.001614 -0.022872)
182:   2898.52   0.037122  187.60  0.003997  (-0.047708 -0.026784 -0.031674)
183:   2902.12   0.013874   70.11  0.001492  (-0.015717 -0.010135 -0.033795)
184:   2907.92   0.006172   31.19  0.000662  ( 0.025594 -0.002370  0.001300)
185:   2912.09   0.012281   62.06  0.001316  (-0.022996 -0.028056  0.000346)
186:   2914.63   0.003878   19.60  0.000415  (-0.002070 -0.006785  0.019102)
187:   2915.30   0.022624  114.33  0.002422  (-0.028652  0.039028  0.008812)
188:   2916.06   0.032715  165.33  0.003501  (-0.017394 -0.008242  0.055951)
189:   2917.05   0.029833  150.76  0.003191  ( 0.019536 -0.048933  0.020380)
190:   2917.98   0.008752   44.23  0.000936  ( 0.014895 -0.025640  0.007526)
191:   2938.34   0.011866   59.96  0.001260  ( 0.017964 -0.008783 -0.029331)

* The epsilon (eps) is given for a Dirac delta lineshape.
** The dipole moment derivative (T) already includes vibrational overlap.

The first frequency considered to be a vibration is 8
The total number of vibrations considered is 184


--------------------------
THERMOCHEMISTRY AT 298.15K
--------------------------

Temperature         ...   298.15 K
Pressure            ...     1.00 atm
Total Mass          ...  1213.52 AMU
Quasi RRHO          ...     True
Cut-Off Frequency   ...     1.00 cm^-1

Throughout the following assumptions are being made:
  (1) The electronic state is orbitally nondegenerate
  (2) There are no thermally accessible electronically excited states
  (3) Hindered rotations indicated by low frequency modes are not
      treated as such but are treated as vibrations and this may
      cause some error
  (4) All equations used are the standard statistical mechanics
      equations for an ideal gas
  (5) All vibrations are strictly harmonic

freq.      30.48  E(vib)   ...       0.55 
freq.      36.74  E(vib)   ...       0.54 
freq.      44.74  E(vib)   ...       0.53 
freq.      53.78  E(vib)   ...       0.52 
freq.      61.58  E(vib)   ...       0.51 
freq.      72.87  E(vib)   ...       0.49 
freq.      80.56  E(vib)   ...       0.48 
freq.      86.14  E(vib)   ...       0.48 
freq.      87.92  E(vib)   ...       0.48 
freq.      92.13  E(vib)   ...       0.47 
freq.      99.02  E(vib)   ...       0.46 
freq.     100.35  E(vib)   ...       0.46 
freq.     101.68  E(vib)   ...       0.46 
freq.     106.81  E(vib)   ...       0.45 
freq.     107.68  E(vib)   ...       0.45 
freq.     109.71  E(vib)   ...       0.45 
freq.     116.26  E(vib)   ...       0.44 
freq.     118.60  E(vib)   ...       0.44 
freq.     128.21  E(vib)   ...       0.43 
freq.     130.27  E(vib)   ...       0.43 
freq.     143.27  E(vib)   ...       0.41 
freq.     148.39  E(vib)   ...       0.41 
freq.     149.46  E(vib)   ...       0.40 
freq.     152.04  E(vib)   ...       0.40 
freq.     152.48  E(vib)   ...       0.40 
freq.     155.65  E(vib)   ...       0.40 
freq.     157.74  E(vib)   ...       0.40 
freq.     160.00  E(vib)   ...       0.39 
freq.     162.07  E(vib)   ...       0.39 
freq.     163.95  E(vib)   ...       0.39 
freq.     166.70  E(vib)   ...       0.39 
freq.     169.06  E(vib)   ...       0.38 
freq.     170.74  E(vib)   ...       0.38 
freq.     182.36  E(vib)   ...       0.37 
freq.     185.29  E(vib)   ...       0.37 
freq.     188.84  E(vib)   ...       0.36 
freq.     190.64  E(vib)   ...       0.36 
freq.     191.43  E(vib)   ...       0.36 
freq.     193.60  E(vib)   ...       0.36 
freq.     197.98  E(vib)   ...       0.35 
freq.     204.91  E(vib)   ...       0.35 
freq.     207.78  E(vib)   ...       0.34 
freq.     211.69  E(vib)   ...       0.34 
freq.     214.22  E(vib)   ...       0.34 
freq.     215.78  E(vib)   ...       0.34 
freq.     226.01  E(vib)   ...       0.33 
freq.     227.71  E(vib)   ...       0.33 
freq.     232.68  E(vib)   ...       0.32 
freq.     235.43  E(vib)   ...       0.32 
freq.     246.34  E(vib)   ...       0.31 
freq.     249.85  E(vib)   ...       0.31 
freq.     261.23  E(vib)   ...       0.30 
freq.     262.51  E(vib)   ...       0.29 
freq.     263.72  E(vib)   ...       0.29 
freq.     265.92  E(vib)   ...       0.29 
freq.     270.12  E(vib)   ...       0.29 
freq.     271.37  E(vib)   ...       0.29 
freq.     272.48  E(vib)   ...       0.29 
freq.     274.92  E(vib)   ...       0.28 
freq.     276.37  E(vib)   ...       0.28 
freq.     277.10  E(vib)   ...       0.28 
freq.     279.28  E(vib)   ...       0.28 
freq.     280.17  E(vib)   ...       0.28 
freq.     286.14  E(vib)   ...       0.27 
freq.     288.81  E(vib)   ...       0.27 
freq.     292.60  E(vib)   ...       0.27 
freq.     293.49  E(vib)   ...       0.27 
freq.     299.90  E(vib)   ...       0.26 
freq.     302.86  E(vib)   ...       0.26 
freq.     305.91  E(vib)   ...       0.26 
freq.     307.42  E(vib)   ...       0.26 
freq.     310.77  E(vib)   ...       0.26 
freq.     312.31  E(vib)   ...       0.25 
freq.     315.01  E(vib)   ...       0.25 
freq.     318.05  E(vib)   ...       0.25 
freq.     322.00  E(vib)   ...       0.25 
freq.     327.68  E(vib)   ...       0.24 
freq.     329.11  E(vib)   ...       0.24 
freq.     337.63  E(vib)   ...       0.24 
freq.     342.05  E(vib)   ...       0.23 
freq.     348.63  E(vib)   ...       0.23 
freq.     353.36  E(vib)   ...       0.22 
freq.     355.48  E(vib)   ...       0.22 
freq.     361.52  E(vib)   ...       0.22 
freq.     370.80  E(vib)   ...       0.21 
freq.     382.89  E(vib)   ...       0.20 
freq.     395.08  E(vib)   ...       0.20 
freq.     401.40  E(vib)   ...       0.19 
freq.     402.82  E(vib)   ...       0.19 
freq.     404.22  E(vib)   ...       0.19 
freq.     412.15  E(vib)   ...       0.19 
freq.     419.52  E(vib)   ...       0.18 
freq.     422.38  E(vib)   ...       0.18 
freq.     427.02  E(vib)   ...       0.18 
freq.     473.50  E(vib)   ...       0.15 
freq.     473.77  E(vib)   ...       0.15 
freq.     481.85  E(vib)   ...       0.15 
freq.     501.88  E(vib)   ...       0.14 
freq.     519.36  E(vib)   ...       0.13 
freq.     528.55  E(vib)   ...       0.13 
freq.     544.47  E(vib)   ...       0.12 
freq.     619.25  E(vib)   ...       0.09 
freq.     669.21  E(vib)   ...       0.08 
freq.     679.79  E(vib)   ...       0.08 
freq.     680.64  E(vib)   ...       0.08 
freq.     692.21  E(vib)   ...       0.07 
freq.     730.51  E(vib)   ...       0.06 
freq.     734.29  E(vib)   ...       0.06 
freq.     734.71  E(vib)   ...       0.06 
freq.     736.42  E(vib)   ...       0.06 
freq.     736.92  E(vib)   ...       0.06 
freq.     738.51  E(vib)   ...       0.06 
freq.     738.69  E(vib)   ...       0.06 
freq.     739.68  E(vib)   ...       0.06 
freq.     739.95  E(vib)   ...       0.06 
freq.     740.81  E(vib)   ...       0.06 
freq.     741.94  E(vib)   ...       0.06 
freq.     742.26  E(vib)   ...       0.06 
freq.     745.60  E(vib)   ...       0.06 
freq.     748.41  E(vib)   ...       0.06 
freq.     774.74  E(vib)   ...       0.05 
freq.     999.35  E(vib)   ...       0.02 
freq.     999.74  E(vib)   ...       0.02 
freq.    1000.59  E(vib)   ...       0.02 
freq.    1001.42  E(vib)   ...       0.02 
freq.    1001.65  E(vib)   ...       0.02 
freq.    1003.04  E(vib)   ...       0.02 
freq.    1003.29  E(vib)   ...       0.02 
freq.    1004.48  E(vib)   ...       0.02 
freq.    1004.68  E(vib)   ...       0.02 
freq.    1005.17  E(vib)   ...       0.02 
freq.    1005.69  E(vib)   ...       0.02 
freq.    1006.65  E(vib)   ...       0.02 
freq.    1316.97  E(vib)   ...       0.01 
freq.    1332.77  E(vib)   ...       0.01 
freq.    1342.67  E(vib)   ...       0.01 
freq.    1349.50  E(vib)   ...       0.01 
freq.    1350.23  E(vib)   ...       0.01 
freq.    1351.24  E(vib)   ...       0.01 
freq.    1352.04  E(vib)   ...       0.01 
freq.    1352.80  E(vib)   ...       0.01 
freq.    1354.90  E(vib)   ...       0.01 
freq.    1354.97  E(vib)   ...       0.01 
freq.    1355.23  E(vib)   ...       0.01 
freq.    1357.47  E(vib)   ...       0.01 
freq.    1357.75  E(vib)   ...       0.01 
freq.    1360.35  E(vib)   ...       0.01 
freq.    1360.84  E(vib)   ...       0.01 
freq.    1364.72  E(vib)   ...       0.01 
freq.    1366.24  E(vib)   ...       0.01 
freq.    1367.83  E(vib)   ...       0.01 
freq.    1369.41  E(vib)   ...       0.01 
freq.    1370.88  E(vib)   ...       0.01 
freq.    1373.97  E(vib)   ...       0.01 
freq.    1375.53  E(vib)   ...       0.01 
freq.    1379.05  E(vib)   ...       0.01 
freq.    1382.92  E(vib)   ...       0.01 
freq.    1538.19  E(vib)   ...       0.00 
freq.    1553.17  E(vib)   ...       0.00 
freq.    1558.19  E(vib)   ...       0.00 
freq.    1561.90  E(vib)   ...       0.00 
freq.    1568.07  E(vib)   ...       0.00 
freq.    1574.70  E(vib)   ...       0.00 
freq.    1581.85  E(vib)   ...       0.00 
freq.    1627.80  E(vib)   ...       0.00 
freq.    1631.73  E(vib)   ...       0.00 
freq.    1633.78  E(vib)   ...       0.00 
freq.    1636.04  E(vib)   ...       0.00 
freq.    1641.80  E(vib)   ...       0.00 
freq.    1776.44  E(vib)   ...       0.00 
freq.    1782.51  E(vib)   ...       0.00 
freq.    1795.18  E(vib)   ...       0.00 
freq.    2896.42  E(vib)   ...       0.00 
freq.    2897.28  E(vib)   ...       0.00 
freq.    2898.52  E(vib)   ...       0.00 
freq.    2902.12  E(vib)   ...       0.00 
freq.    2907.92  E(vib)   ...       0.00 
freq.    2912.09  E(vib)   ...       0.00 
freq.    2914.63  E(vib)   ...       0.00 
freq.    2915.30  E(vib)   ...       0.00 
freq.    2916.06  E(vib)   ...       0.00 
freq.    2917.05  E(vib)   ...       0.00 
freq.    2917.98  E(vib)   ...       0.00 
freq.    2938.34  E(vib)   ...       0.00 

------------
INNER ENERGY
------------

The inner energy is: U= E(el) + E(ZPE) + E(vib) + E(rot) + E(trans)
    E(el)   - is the total energy from the electronic structure calculation
              = E(kin-el) + E(nuc-el) + E(el-el) + E(nuc-nuc)
    E(ZPE)  - the the zero temperature vibrational energy from the frequency calculation
    E(vib)  - the the finite temperature correction to E(ZPE) due to population
              of excited vibrational states
    E(rot)  - is the rotational thermal energy
    E(trans)- is the translational thermal energy

Summary of contributions to the inner energy U:
Electronic energy                ...  -3244.54629011 Eh
Zero point energy                ...      0.32724251 Eh     205.35 kcal/mol
Thermal vibrational correction   ...      0.05438641 Eh      34.13 kcal/mol
Thermal rotational correction    ...      0.00141627 Eh       0.89 kcal/mol
Thermal translational correction ...      0.00141627 Eh       0.89 kcal/mol
-----------------------------------------------------------------------
Total thermal energy                  -3244.16182865 Eh


Summary of corrections to the electronic energy:
(perhaps to be used in another calculation)
Total thermal correction                  0.05721895 Eh      35.91 kcal/mol
Non-thermal (ZPE) correction              0.32724251 Eh     205.35 kcal/mol
-----------------------------------------------------------------------
Total correction                          0.38446146 Eh     241.25 kcal/mol


--------
ENTHALPY
--------

The enthalpy is H = U + kB*T
                kB is Boltzmann's constant
Total thermal energy              ...  -3244.16182865 Eh 
Thermal Enthalpy correction       ...      0.00094421 Eh       0.59 kcal/mol
-----------------------------------------------------------------------
Total Enthalpy                    ...  -3244.16088444 Eh


Note: Only C1 symmetry has been detected, increase convergence thresholds 
      if your molecule has a higher symmetry. Symmetry factor of 1.0 is   
      used for the rotational entropy correction. 
 

Note: Rotational entropy computed according to Herzberg 
Infrared and Raman Spectra, Chapter V,1, Van Nostrand Reinhold, 1945 
Point Group:  C1, Symmetry Number:   1  
Rotational constants in cm-1:     0.001843     0.001676     0.001621 

Vibrational entropy computed according to the QRRHO of S. Grimme
Chem.Eur.J. 2012 18 9955 using a reference frequency of 100.0 cm-1


-------
ENTROPY
-------

The entropy contributions are T*S = T*(S(el)+S(vib)+S(rot)+S(trans))
     S(el)   - electronic entropy
     S(vib)  - vibrational entropy
     S(rot)  - rotational entropy
     S(trans)- translational entropy
The entropies will be listed as multiplied by the temperature to get
units of energy

Electronic entropy                ...      0.00000000 Eh      0.00 kcal/mol
Vibrational entropy               ...      0.09686195 Eh     60.78 kcal/mol
Rotational entropy                ...      0.01853352 Eh     11.63 kcal/mol
Translational entropy             ...      0.02240642 Eh     14.06 kcal/mol
-----------------------------------------------------------------------
Final entropy term                ...      0.13780189 Eh     86.47 kcal/mol

In case the symmetry of your molecule has not been determined correctly
or in case you have a reason to use a different symmetry number we print 
out the resulting rotational entropy values for sn=1,12:

 non-linear molecules -----------------------------------
|  sn= 1 | S(rot)=       0.01853352 Eh     11.63 kcal/mol|
|  sn= 2 | S(rot)=       0.01787906 Eh     11.22 kcal/mol|
|  sn= 3 | S(rot)=       0.01749623 Eh     10.98 kcal/mol|
|  sn= 4 | S(rot)=       0.01722461 Eh     10.81 kcal/mol|
|  sn= 5 | S(rot)=       0.01701392 Eh     10.68 kcal/mol|
|  sn= 6 | S(rot)=       0.01684178 Eh     10.57 kcal/mol|
|  sn= 7 | S(rot)=       0.01669623 Eh     10.48 kcal/mol|
|  sn= 8 | S(rot)=       0.01657015 Eh     10.40 kcal/mol|
|  sn= 9 | S(rot)=       0.01645894 Eh     10.33 kcal/mol|
|  sn=10 | S(rot)=       0.01635946 Eh     10.27 kcal/mol|
|  sn=11 | S(rot)=       0.01626947 Eh     10.21 kcal/mol|
|  sn=12 | S(rot)=       0.01618732 Eh     10.16 kcal/mol|
 linear molecules ---------------------------------------
|  Dinfh | S(rot)=       0.01139184 Eh      7.15 kcal/mol|
|  Cinfv | S(rot)=       0.01204629 Eh      7.56 kcal/mol|
 --------------------------------------------------------


-------------------
GIBBS FREE ENERGY
-------------------

The Gibbs free energy is G = H - T*S

Total enthalpy                    ...  -3244.16088444 Eh 
Total entropy correction          ...     -0.13780189 Eh    -86.47 kcal/mol
-----------------------------------------------------------------------
Final Gibbs free energy         ...  -3244.29868632 Eh

For completeness - the Gibbs free energy minus the electronic energy
G-E(el)                           ...      0.24760378 Eh    155.37 kcal/mol


Maximum memory used throughout the entire PROP-calculation: 131.6 MB

--------------------------------
SUGGESTED CITATIONS FOR THIS RUN
--------------------------------

Below you find a list of papers that are relevant to this ORCA run
We neither can nor want to force you to cite these papers, but we appreciate if you do
You receive ORCA, which is the product of decades of hard work by many enthusiastic individuals, for free
The only thing we kindly ask in return is that you cite our papers,
We deeply appreciate it, if you show your appreciation for ORCA by not just citing the generic ORCA reference.

Please note that relegating all ORCA citations to the supporting information does *not* help us.
SI sections are not indexed - citations you put there will not count into any citation statistics
But we need these citations in order to attract the funding resources that allow us to do what we are doing

Therefore, if you are a happy ORCA user, please consider citing a few of the papers listed below in the main body of your paper

In addition to the list printed below, the program has created the file run.bibtex that contains the list in bibtex format
You can import this file easily into all common literature databanks and citation aid programs


List of essential papers. We consider these as the minimum necessary citations

  1. Neese, F.
     Software update: the ORCA program system, version 6.0
     WIRES Comput. Molec. Sci. 2025 15(1), e70019
     doi.org/10.1002/wcms.7019

List of papers to cite with high priority. The work reported in these papers was absolutely
necessary for this run to complete.
Our perspective: the developers of density functionals and basis sets usually get cited in chemistry papers
Good! But without the algorithms to do something with them, the functionals or basis sets would not do anything.
Hence, in our opinion, the algorithm design and method developments papers are equally worthy of getting cited

  1. Neese, F.
     An improvement of the resolution of the identity approximation for the formation of the Coulomb matrix
     J. Comp. Chem. 2003 24(14), 1740-1747
     doi.org/10.1002/jcc.10318
  2. Grimme, S.; Antony, J.; Ehrlich, S.; Krieg, H.
     A consistent and accurate ab initio parametrization of density functional dispersion correction (DFT-D) for the 94 elements H-Pu
     J. Chem. Phys. 2010 132 , 154104
     doi.org/10.1063/1.3382344
  3. Grimme, S.; Ehrlich, S.; Goerigk, L.
     Effect of the damping function in dispersion corrected density functional theory
     J. Comput. Chem. 2011 32(7), 1456-1465
     doi.org/10.1002/jcc.21759
  4. Bykov, D.; Petrenko, T.; Izsak, R.; Kossmann, S.; Becker, U.; Valeev, E.; Neese, F.
     Efficient implementation of the analytic second derivatives of Hartree-Fock and hybrid DFT energies: a detailed analysis of different approximations
     Molec. Phys. 2015 113 , 1961-1977
     doi.org/10.1080/00268976.2015.1025114
  5. Helmich-Paris, B.
     A trust-region augmented Hessian implementation for restricted and unrestricted Hartree–Fock and Kohn–Sham methods
     J. Chem. Phys. 2021 154 , 164104
     doi.org/10.1063/5.0040798
  6. Neese, F.
     The SHARK Integral Generation and Digestion System
     J. Comp. Chem. 2022 44(3), 381
     doi.org/10.1002/jcc.26942

List of suggested additional citations. These are papers that are important in the 'surrounding' of 
of this run, or papers that preceded the highly important papers. If you like your results we are grateful for a citation.

  1. Neese, F.
     The ORCA program system
     WIRES Comput. Molec. Sci. 2012 2(1), 73-78
     doi.org/10.1002/wcms.81
  2. Neese, F.
     Software update: the ORCA program system, version 4.0
     WIRES Comput. Molec. Sci. 2018 8(1), 1-6
     doi.org/10.1002/wcms.1327
  3. Neese, F.; Wennmohs, F.; Becker, U.; Riplinger, C.
     The ORCA quantum chemistry program package
     J. Chem. Phys. 2020 152(22), 224108
     doi.org/10.1063/5.0004608
  4. Neese, F.
     Software update: The ORCA program system—Version 5.0
     WIRES Comput. Molec. Sci. 2022 12(1), e1606
     doi.org/10.1002/wcms.1606

List of optional additional citations

  1. Neese, F.
     Approximate second-order SCF convergence for spin unrestricted wavefunctions
     Chem. Phys. Lett. 2000 325(1-3), 93-98
     doi.org/10.1016/s0009-2614(00)00662-x

Timings for individual modules:

Sum of individual times          ...     7144.299 sec (= 119.072 min)
Startup calculation              ...      395.373 sec (=   6.590 min)   5.5 %
SCF iterations                   ...     2341.943 sec (=  39.032 min)  32.8 %
Property integrals               ...     1280.443 sec (=  21.341 min)  17.9 %
SCF Response                     ...     1040.252 sec (=  17.338 min)  14.6 %
Property calculations            ...     1073.420 sec (=  17.890 min)  15.0 %
SCF Gradient evaluation          ...      994.105 sec (=  16.568 min)  13.9 %
Geometry relaxation              ...       18.763 sec (=   0.313 min)   0.3 %
                             ****ORCA TERMINATED NORMALLY****
TOTAL RUN TIME: 0 days 1 hours 59 minutes 42 seconds 952 msec
