
                                 *****************
                                 * O   R   C   A *
                                 *****************

                                            #,                                       
                                            ###                                      
                                            ####                                     
                                            #####                                    
                                            ######                                   
                                           ########,                                 
                                     ,,################,,,,,                         
                               ,,#################################,,                 
                          ,,##########################################,,             
                       ,#########################################, ''#####,          
                    ,#############################################,,   '####,        
                  ,##################################################,,,,####,       
                ,###########''''           ''''###############################       
              ,#####''   ,,,,##########,,,,          '''####'''          '####       
            ,##' ,,,,###########################,,,                        '##       
           ' ,,###''''                  '''############,,,                           
         ,,##''                                '''############,,,,        ,,,,,,###''
      ,#''                                            '''#######################'''  
     '                                                          ''''####''''         
             ,#######,   #######,   ,#######,      ##                                
            ,#'     '#,  ##    ##  ,#'     '#,    #''#        ,####,    ,#,          
            ##       ##  ##   ,#'  ##            #'  '#       #'       ,# #          
            ##       ##  #######   ##           ,######,      #####,      #          
            '#,     ,#'  ##    ##  '#,     ,#' ,#      #,     #,   #      #          
             '#######'   ##     ##  '#######'  #'      '#     '####' #    #          



                #########################################################
                #                        -***-                          #
                #          Department of theory and spectroscopy        #
                #                                                       #
                #                      Frank Neese                      #
                #                                                       #
                #     Directorship, Architecture, Infrastructure        #
                #                    SHARK, DRIVERS                     #
                #        Core code/Algorithms in most modules           #
                #                                                       #
                #        Max Planck Institute fuer Kohlenforschung      #
                #                Kaiser Wilhelm Platz 1                 #
                #                 D-45470 Muelheim/Ruhr                 #
                #                      Germany                          #
                #                                                       #
                #                  All rights reserved                  #
                #                        -***-                          #
                #########################################################


                         Program Version 6.1.0  -  RELEASE   -
                                (GIT: $679e74b$)
                          ($2025-06-10 18:02:51 +0200$)


 With contributions from (in alphabetic order):
[Max-Planck-Institut fuer Kohlenforschung]                               
  Daniel Aravena         : Magnetic Suceptibility                        
  Michael Atanasov       : Ab Initio Ligand Field Theory (pilot matlab implementation)
  Alexander A. Auer      : GIAO ZORA, VPT2 properties, NMR spectrum      
  Ute Becker             : All parallelization in ORCA, NUMFREQ, NUMCALC 
  Giovanni Bistoni       : ED, misc. LED, open-shell LED, HFLD           
  Dmytro Bykov           : pre 5.0 version of the SCF Hessian            
  Marcos Casanova-Páez   : Triplet and SCS-CIS(D). UHF-(DLPNO)-IP/EA/STEOM-CCSD. UHF-CVS-IP/STEOM-CCSD   
  Vijay G. Chilkuri      : MRCI spin determinant printing, contributions to CSF-ICE 
  Pauline Colinet        : FMM embedding                                 
  Dipayan Datta          : RHF DLPNO-CCSD density                        
  Achintya Kumar Dutta   : EOM-CC, STEOM-CC                              
  Nicolas Foglia         : Exact transition moments, OPA infrastructure, MCD improvements    
  Dmitry Ganyushin       : Spin-Orbit,Spin-Spin,Magnetic field MRCI      
  Miquel Garcia-Rates    : C-PCM and meta-GGA Hessian, CCSD/C-PCM, Gaussian charge scheme 
  Tiago L. C. Gouveia    : GS-ROHF, GS-ROCIS                             
  Yang Guo               : DLPNO-NEVPT2, F12-NEVPT2, CIM, IAO-localization        
  Andreas Hansen         : Spin unrestricted coupled pair/coupled cluster methods 
  Ingolf Harden          : AUTO-CI MPn and infrastructure                
  Benjamin Helmich-Paris : MC-RPA, TRAH-(SCF,CASSCF), AVAS, COSX integrals, SCF dyn. polar., MC-PDFT, srDFT 
  Lee Huntington         : MR-EOM, pCC                                   
  Robert Izsak           : Overlap fitted RIJCOSX, COSX-SCS-MP3, EOM     
  Riya Kayal             : Wick's Theorem for AUTO-CI, AUTO-CI UHF-CCSDT 
  Emily Kempfer          : AUTO-CI RHF CISDT and CCSDT, approximate NEVPT4
  Christian Kollmar      : KDIIS, OOCD, Brueckner-CCSD(T), CCSD density, CASPT2, CASPT2-K, improved NEVPT2 
  Axel Koslowski         : Symmetry handling                             
  Simone Kossmann        : meta-GGA functionals, TD-DFT gradient, OOMP2, (MP2 Hessian; deprecated post 5.0) 
  Lucas Lang             : DCDCAS, Hyperfine gauge corrections, ICE-SOC+SSC
  Marvin Lechner         : AUTO-CI (C++ implementation), FIC-MRCC        
  Spencer Leger          : CASSCF response                               
  Dagmar Lenk            : GEPOL surface, SMD, ORCA-2-JSON               
  Dimitrios Liakos       : Extrapolation schemes; Compound Job, Property file
  Dimitrios Manganas     : Further ROCIS development; embedding schemes. LFT, Crystal Embedding 
  Dimitrios Pantazis     : SARC Basis sets                               
  Anastasios Papadopoulos: AUTO-CI, single reference methods and gradients 
  Taras Petrenko         : pre 6.0 DFT Hessian and TD-DFT gradient,  ECA, NRVS 
  Petra Pikulova         : Analytic Raman intensities                    
  Peter Pinski           : DLPNO-MP2, DLPNO-MP2 Gradient                 
  Shashank Vittal Rao    : ES-AILFT, MagRelax                            
  Christoph Reimann      : Effective Core Potentials                     
  Marius Retegan         : Local ZFS, SOC                                
  Christoph Riplinger    : Optimizer, TS searches, QM/MM, DLPNO-CCSD(T), (RO)-DLPNO pert. Triples 
  Michael Roemelt        : Original ROCIS implementation, recursive CI coupling coefficients
  Masaaki Saitow         : Open-shell DLPNO-CCSD energy and density      
  Barbara Sandhoefer     : DKH picture change effects                    
  Yorick L. A. Schmerwitz: GMF and freeze-and-release deltaSCF, NEB S-IDPP initial path                    
  Kantharuban Sivalingam : CASSCF convergence/infrastructure, NEVPT2, NEVPT3, NEVPT4(SD), FIC-MRCI and CEPA variants
  Bernardo de Souza      : ESD, SOC TD-DFT                               
  Georgi L. Stoychev     : AutoAux, RI-MP2 NMR, DLPNO-MP2 response, X2C  
  Van Anh Tran           : RI-MP2 g-tensors                              
  Willem Van den Heuvel  : Paramagnetic NMR                              
  Zikuan Wang            : NOTCH, Electric field optimization            
  Frank Wennmohs         : Technical directorship and infrastructure     
  Hang Xu                : AUTO-CI-Response properties                   
                                                                         
[FACCTs GmbH]                                                            
  Markus Bursch, Nicolas Foglia, Miquel Garcia-Rates, Ingolf Harden, Hagen Neugebauer, Anastasios Papadopoulos, 
  Christoph Riplinger, Bernardo de Souza, Georgi L. Stoychev                                                    
                                                                 
  APM, various basis sets, CI-OPT, improved COSX, DLPNO-Multilevel,           
  DOCKER, DRACO, updates on ESD, Fragmentator, GOAT, IRC, LR-CPCM, L-BFGS, MBIS, meta-GGA TD-DFT gradient, ML-optimized integration grids, 
  MM, NACMEs, nearIR, NEB, NEB-TS, NL-DFT gradient (VV10), 2- and 3-layer-ONIOM, interface openCOSMO-RS, QMMM,   
  Crystal-QMMM, RESP, rigid body optimization, SF, symmetry and pop. for TD-DFT, various functionals, SOLVATOR                                   
                                                                         
[Other institutions]                                                     
  V. Asgeirsson          : NEB                                           
  Christoph Bannwarth    : sTDA-DFT, sTD-DFT, PBEh-3c, B97-3c, D3        
  Giovanni Bistoni       : ETS/NOCV, ADLD/ADEX, COVALED                  
  Martin Brehm           : Molecular dynamics                            
  Ronald Cardenas        : ETS/NOCV                                      
  Martina Colucci        : COVALED                                       
  Sebastian Ehlert       : rSCAN, r2SCAN, r2SCAN-3c, D4, dhf basis sets  
  Marvin Friede          : D4 for Fr, Ra, Ac-Lr                          
  Lars Goerigk           : TD-DFT with DH, B97 family of functionals     
  Stefan Grimme          : VdW corrections, initial TS optimization, DFT functionals, gCP, sTDA/sTD-DF 
  Waldemar Hujo          : DFT-NL                                        
  H. Jonsson             : NEB                                           
  Holger Kruse           : gCP                                           
  Marcel Mueller         : wB97X-3c, vDZP basis set                      
  Hagen Neugebauer       : wr2SCAN, Native XTB                           
  Gianluca Regni         : ADLD/ADEX                                     
  Tobias Risthaus        : pre 6.0 range-separated hybrid DFT and stability analysis
  Lukas Wittmann         : regularized MP2, r2SCAN double-hybrids, wr2SCAN        
                                                                         
We gratefully acknowledge several colleagues who have allowed us to      
interface, adapt or use parts of their codes:                            
  Ed Valeev, F. Pavosevic, A. Kumar             : LibInt (2-el integral package), F12 methods 
  Garnet Chan, S. Sharma, J. Yang, R. Olivares  : DMRG                   
  Ulf Ekstrom                                   : XCFun DFT Library      
  Mihaly Kallay                                 : mrcc  (arbitrary order and MRCC methods)
  Frank Weinhold                                : gennbo (NPA and NBO analysis)           
  Simon Mueller                                 : openCOSMO-RS                            
  Christopher J. Cramer and Donald G. Truhlar   : smd solvation model                     
  S Lehtola, MJT Oliveira, MAL Marques          : LibXC Library                           
  Liviu Ungur et al                             : ANISO software                          


 Your calculation uses the libint2 library for the computation of 2-el integrals
 For citations please refer to: http://libint.valeyev.net

 Your ORCA version has been built with support for libXC version: 7.0.0
 For citations please refer to: https://libxc.gitlab.io

 This ORCA versions uses:
   CBLAS   interface :  Fast vector & matrix operations
   LAPACKE interface :  Fast linear algebra routines
   SCALAPACK package :  Parallel linear algebra routines
   Shared memory     :  Shared parallel matrices
   BLAS/LAPACK       :  OpenBLAS 0.3.29  USE64BITINT DYNAMIC_ARCH NO_AFFINITY Prescott SINGLE_THREADED
        Core in use  :  Prescott
   Copyright (c) 2011-2014, The OpenBLAS Project


  ***********************************
  * Starting time: Tue Aug 12 23:06:13 2025
  * Host name:     cuda5
  * Process ID:    144339
  * Working dir.:  /local/scratch/mehlhorn/61832
  ***********************************



***************************************
The coordinates will be read from file: start.xyz
***************************************


Your calculation utilizes the geometrical counterpoise correction gCP
Please cite in your paper:
H.Kruse, S. Grimme J.Chem.Phys., 136, (2012), 154101 
   

Your calculation utilizes the atom-pairwise dispersion correction
with the Becke-Johnson damping scheme (D3BJ)


Warning: RI is on but no J-basis has been assigned. Assigning Def2/J (nothing to worry about!)
================================================================================

cite the ECPs for Zr [Def2-ECP] as follows:
Ce-Yb(ecp-28): M. Dolg, H. Stoll, H.Preuss, J. Chem. Phys., 1989, 90, 1730-1734.
Y-Cd(ecp-28), Hf-Hg(ecp-46): D. Andrae,U. Haeussermann, M. Dolg, H. Stoll, H. Preuss, Theor. Chim. Acta, 1990, 77, 123-141.
In-Sb(ecp-28), Tl-Bi(ecp-46): B. Metz, H. Stoll, M. Dolg, J. Chem. Phys., 2000, 113, 2563-2569.
Te-Xe(ecp-28), Po-Rn(ecp-46): K. A. Peterson, D. Figgen, E. Goll, H. Stoll, M. Dolg, J. Chem. Phys., 2003, 119, 11113-11123.
Rb(ecp-28), Cs(ecp-46): T. Leininger, A. Nicklass, W. Kuechle, H. Stoll, M. Dolg, A. Bergner, Chem. Phys. Lett., 1996, 255, 274-280.
Sr(ecp-28), Ba(ecp-46): M. Kaupp, P. V. Schleyer, H. Stoll and H. Preuss, J. Chem. Phys., 1991, 94, 1360-1366.
La(ecp-46): M. Dolg, H. Stoll, A. Savin, H. Preuss, Theor. Chim. Acta, 1989, 75, 173-194.
Lu(ecp-28): X. Cao, M. Dolg, J. Chem. Phys., 2001, 115, 7348-7355.

ECP parameters for Zr [Def2-ECP] have been obtained from:
TURBOMOLE (7.0.2)

----- Orbital basis set information -----
Your calculation utilizes the basis: def2-SV(P)
   F. Weigend and R. Ahlrichs, Phys. Chem. Chem. Phys. 7, 3297 (2005).

----- AuxJ basis set information -----
Your calculation utilizes the auxiliary basis: def2/J
   H-Rn: F. Weigend, Phys. Chem. Chem. Phys. 8, 1057 (2006).
   Fr-Lr: K. Eichkorn, F. Weigend, O. Treutler, R. Ahlrichs; Theor. Chem. Acc. 97, 119 (1997).

================================================================================
                                        WARNINGS
                       Please study these warnings very carefully!
================================================================================


WARNING: Gradients are needed
  ===> : At least TightSCF should be used for SCF convergence

WARNING: Geometry Optimization
  ===> : Switching off AutoStart
         For restart on a previous wavefunction, please use MOREAD

================================================================================
                                       INPUT FILE
================================================================================
NAME = run.inp
|  1> # Geometry optimization for (AlH3)n cluster
|  2> 
|  3> %pal nprocs 24  end
|  4> 
|  5> %geom MaxIter 500 end
|  6> 
|  7> 
|  8> ! PBE def2-SV(P)
|  9> ! RKS	# closed shell for AlH3
| 10> ! D3    #  dispersion correction
| 11> ! gCP(DFT/SV(P))
| 12> ! Freq 	# Frequency analysis to check the stabiltity of the structures
| 13> 
| 14> ! NoPop # population analysis not necessary	
| 15> 
| 16> ! DEFGRID2
| 17> ! NormalSCF
| 18> ! SloppyOpt
| 19> 
| 20> ! SmallPrint
| 21> 
| 22> 
| 23> * xyzFile 0 1 start.xyz # only maingroup elements H and Al so there should be no net spin
| 24> 
| 25>                          ****END OF INPUT****
================================================================================

                       *****************************
                       * Geometry Optimization Run *
                       *****************************

Geometry optimization settings:
Update method            Update   .... BFGS
Choice of coordinates    CoordSys .... (2022) Redundant Internals
Initial Hessian          InHess   .... Almloef's Model
Max. no of cycles        MaxIter  .... 500

Convergence Tolerances:
Energy Change            TolE     ....  8.0000e-05 Eh
Max. Gradient            TolMAXG  ....  5.0000e-03 Eh/bohr
RMS Gradient             TolRMSG  ....  1.0000e-03 Eh/bohr
Max. Displacement        TolMAXD  ....  3.0000e-02 bohr
RMS Displacement         TolRMSD  ....  2.0000e-02 bohr
Strict Convergence                .... False

------------------------------------------------------------------------------
                        ORCA OPTIMIZATION COORDINATE SETUP
------------------------------------------------------------------------------

The optimization will be done in redundant internal coordinates (2022)
Making redundant internal coordinates   ...  (2022 redundants) done
Evaluating the initial hessian          ...  (Almloef) done
Evaluating the coordinates              ...  done
Calculating the B-matrix                .... done
Calculating the G-matrix                .... done
The number of degrees of freedom        ....  776

    -----------------------------------------------------------------
                    Redundant Internal Coordinates


    -----------------------------------------------------------------
         Definition                    Initial Value    Approx d2E/dq
    -----------------------------------------------------------------
      1. B(Zr  2,Zr  1)                  3.3969         0.040196   
      2. B(Zr  3,Zr  0)                  3.4198         0.036944   
      3. B(Zr  4,Zr  3)                  3.4142         0.037718   
      4. B(Zr  4,Zr  1)                  3.4212         0.036760   
      5. B(Zr  5,Zr  2)                  3.4351         0.034923   
      6. B(Zr  5,Zr  0)                  3.3495         0.047826   
      7. B(O   6,Zr  3)                  2.0971         0.421550   
      8. B(O   6,Zr  5)                  2.0768         0.454157   
      9. B(O   6,Zr  0)                  2.1328         0.369735   
     10. B(O   7,Zr  2)                  2.1032         0.412286   
     11. B(O   7,Zr  1)                  2.1097         0.402469   
     12. B(O   7,Zr  4)                  2.1496         0.347592   
     13. B(O   8,Zr  5)                  2.1811         0.309686   
     14. B(O   8,Zr  2)                  2.1244         0.381354   
     15. B(O   8,Zr  1)                  2.1835         0.306889   
     16. B(O   9,Zr  3)                  2.1017         0.414474   
     17. B(O   9,Zr  4)                  2.1232         0.383080   
     18. B(O   9,Zr  0)                  2.1496         0.347595   
     19. B(O  10,Zr  3)                  2.1030         0.412546   
     20. B(O  10,Zr  4)                  2.0902         0.432391   
     21. B(O  10,Zr  1)                  2.1377         0.363221   
     22. B(O  11,Zr  5)                  2.0928         0.428247   
     23. B(O  11,Zr  2)                  2.1286         0.375567   
     24. B(O  11,Zr  0)                  2.1784         0.312669   
     25. B(O  12,Zr  0)                  1.9733         0.664430   
     26. B(O  13,Zr  0)                  1.9837         0.639434   
     27. B(O  14,Zr  0)                  2.0673         0.470368   
     28. B(O  15,Zr  0)                  2.0533         0.495119   
     29. B(O  16,Zr  1)                  2.0272         0.545037   
     30. B(O  17,Zr  1)                  2.0687         0.467841   
     31. B(O  18,Zr  1)                  1.9766         0.656235   
     32. B(O  19,Zr  1)                  1.9843         0.637997   
     33. B(O  20,Zr  2)                  1.9794         0.649569   
     34. B(O  21,Zr  2)                  2.0281         0.543176   
     35. B(O  22,Zr  2)                  1.9737         0.663456   
     36. B(O  23,Zr  2)                  2.0845         0.441473   
     37. B(O  24,Zr  3)                  2.0502         0.500894   
     38. B(O  25,Zr  3)                  1.9849         0.636622   
     39. B(O  26,Zr  3)                  2.0384         0.522984   
     40. B(O  27,Zr  3)                  1.9839         0.638987   
     41. B(O  28,Zr  4)                  1.9904         0.623912   
     42. B(O  29,Zr  4)                  2.0583         0.486213   
     43. B(O  30,Zr  4)                  1.9904         0.623893   
     44. B(O  31,Zr  4)                  2.0277         0.544011   
     45. B(O  32,Zr  5)                  2.0670         0.470913   
     46. B(O  33,Zr  5)                  1.9857         0.634752   
     47. B(O  34,Zr  5)                  1.9902         0.624367   
     48. B(O  35,Zr  5)                  1.9731         0.664701   
     49. B(C  36,O  33)                  1.2989         0.782088   
     50. B(C  36,O  12)                  1.2989         0.781972   
     51. B(C  37,O  25)                  1.3005         0.777388   
     52. B(C  37,O  13)                  1.3016         0.774363   
     53. B(C  38,O  21)                  1.2962         0.789720   
     54. B(C  38,O  14)                  1.2986         0.782902   
     55. B(C  39,O  15)                  1.2992         0.781129   
     56. B(C  39,O  29)                  1.3016         0.774222   
     57. B(C  40,O  34)                  1.2943         0.795427   
     58. B(C  40,O  16)                  1.2947         0.794277   
     59. B(C  41,O  17)                  1.2994         0.780692   
     60. B(C  41,O  26)                  1.3017         0.774122   
     61. B(C  42,O  22)                  1.3002         0.778412   
     62. B(C  42,O  18)                  1.2999         0.779036   
     63. B(C  43,O  30)                  1.3008         0.776525   
     64. B(C  43,O  19)                  1.3014         0.774980   
     65. B(C  44,O  35)                  1.2991         0.781344   
     66. B(C  44,O  20)                  1.2995         0.780399   
     67. B(C  45,O  31)                  1.2956         0.791418   
     68. B(C  45,O  23)                  1.2970         0.787552   
     69. B(C  46,O  24)                  1.2975         0.785949   
     70. B(C  46,O  32)                  1.2967         0.788413   
     71. B(C  47,O  28)                  1.3012         0.775372   
     72. B(C  47,O  27)                  1.3013         0.775146   
     73. B(H  48,C  41)                  1.0877         0.363145   
     74. B(H  49,C  42)                  1.0910         0.358789   
     75. B(H  50,C  38)                  1.0865         0.364724   
     76. B(H  51,C  37)                  1.0917         0.357893   
     77. B(H  52,C  43)                  1.0918         0.357726   
     78. B(H  53,C  47)                  1.0915         0.358160   
     79. B(H  54,C  39)                  1.0878         0.363020   
     80. B(H  55,C  45)                  1.0851         0.366666   
     81. B(H  56,C  40)                  1.0858         0.365693   
     82. B(H  57,C  46)                  1.0852         0.366521   
     83. B(H  58,C  36)                  1.0902         0.359898   
     84. B(H  59,C  44)                  1.0904         0.359560   
     85. B(Al 60,O  24)                  3.2852         0.010000   
     86. B(Al 60,O  26)                  3.2405         0.010000   
     87. B(Al 61,H  48)                  3.3957         0.010000   
     88. B(Al 61,Al 60)                  3.3136         0.026179   
     89. B(Al 61,O  27)                  3.2697         0.010000   
     90. B(H  62,H  53)                  3.3480         0.010000   
     91. B(H  62,O  27)                  2.8542         0.010000   
     92. B(H  62,Al 61)                  1.6688         0.301000   
     93. B(H  63,O  26)                  3.1365         0.010000   
     94. B(H  63,C  41)                  3.0024         0.010000   
     95. B(H  63,O  27)                  2.7835         0.010000   
     96. B(H  63,H  48)                  2.6894         0.010000   
     97. B(H  63,Al 61)                  1.5961         0.393127   
     98. B(H  63,C  47)                  3.3847         0.010000   
     99. B(H  63,H  53)                  3.3433         0.010000   
    100. B(H  64,H  48)                  3.0053         0.010000   
    101. B(H  64,O  26)                  2.8842         0.010000   
    102. B(H  64,Al 61)                  1.6698         0.299874   
    103. B(H  64,Al 60)                  1.6698         0.299941   
    104. B(H  64,C  41)                  3.3974         0.010000   
    105. B(H  65,C  46)                  3.1584         0.010000   
    106. B(H  65,H  57)                  3.1572         0.010000   
    107. B(H  65,O  24)                  2.8205         0.010000   
    108. B(H  65,O  26)                  2.6686         0.010000   
    109. B(H  65,Al 60)                  1.5969         0.392005   
    110. B(H  65,C  41)                  3.3030         0.010000   
    111. B(H  65,H  48)                  3.2820         0.010000   
    112. B(H  66,H  57)                  3.0509         0.010000   
    113. B(H  66,O  24)                  2.8175         0.010000   
    114. B(H  66,Al 60)                  1.6693         0.300432   
    115. B(H  66,C  46)                  3.4000         0.010000   
    116. B(H  67,Al 61)                  1.5955         0.393944   
    117. B(Al 68,H  62)                  1.6686         0.301226   
    118. B(Al 68,Al 61)                  3.3178         0.025774   
    119. B(Al 68,O  27)                  3.4065         0.010000   
    120. B(Al 68,O  25)                  3.2439         0.010000   
    121. B(H  69,O  25)                  2.8906         0.010000   
    122. B(H  69,Al 68)                  1.6688         0.301030   
    123. B(H  69,H  51)                  3.2967         0.010000   
    124. B(H  70,C  47)                  3.0748         0.010000   
    125. B(H  70,O  27)                  2.9907         0.010000   
    126. B(H  70,H  53)                  2.8910         0.010000   
    127. B(H  70,O  25)                  2.7168         0.010000   
    128. B(H  70,Al 68)                  1.5965         0.392517   
    129. B(H  70,H  51)                  3.4110         0.010000   
    130. B(H  71,Al 60)                  1.5955         0.394061   
    131. B(Al 72,H  69)                  1.6684         0.301475   
    132. B(Al 72,Al 68)                  3.3129         0.026243   
    133. B(Al 72,H  66)                  1.6692         0.300503   
    134. B(Al 72,Al 60)                  3.3169         0.025865   
    135. B(Al 72,O  24)                  3.3031         0.010000   
    136. B(H  73,C  46)                  3.0887         0.010000   
    137. B(H  73,C  37)                  3.0214         0.010000   
    138. B(H  73,O  24)                  2.9444         0.010000   
    139. B(H  73,H  51)                  2.8304         0.010000   
    140. B(H  73,H  57)                  2.7520         0.010000   
    141. B(H  73,Al 72)                  1.5964         0.392689   
    142. B(H  73,O  25)                  3.2127         0.010000   
    143. B(H  74,Al 72)                  1.5955         0.393954   
    144. B(H  75,Al 68)                  1.5955         0.393969   
    145. A(O   9,Zr  0,O  15)           69.3300         0.468263   
    146. A(Zr  5,Zr  0,O   6)           36.7040         0.342689   
    147. A(Zr  3,Zr  0,O  12)          131.5722         0.362237   
    148. A(O   6,Zr  0,O  13)           84.0422         0.496524   
    149. A(O   6,Zr  0,O  11)           65.2281         0.435599   
    150. A(O  12,Zr  0,O  14)           81.9527         0.523096   
    151. A(Zr  5,Zr  0,O  15)          165.0069         0.360022   
    152. A(Zr  5,Zr  0,O   9)           97.1262         0.339168   
    153. A(O   9,Zr  0,O  12)          167.5083         0.494371   
    154. A(O  11,Zr  0,O  15)          136.1912         0.459281   
    155. A(O   6,Zr  0,O   9)           65.1183         0.444007   
    156. A(O  14,Zr  0,O  15)           73.6628         0.495138   
    157. A(Zr  3,Zr  0,O   6)           35.7016         0.328289   
    158. A(O   9,Zr  0,O  14)          109.9449         0.463886   
    159. A(O   9,Zr  0,O  11)          100.5421         0.430789   
    160. A(Zr  3,Zr  0,Zr  5)           72.3612         0.257624   
    161. A(O  13,Zr  0,O  15)           84.3251         0.524369   
    162. A(O  12,Zr  0,O  13)           83.1799         0.554339   
    163. A(O  11,Zr  0,O  14)           70.3528         0.455008   
    164. A(O  12,Zr  0,O  15)          119.2682         0.528164   
    165. A(O  11,Zr  0,O  13)          139.2268         0.481351   
    166. A(Zr  3,Zr  0,O  15)           97.9352         0.344639   
    167. A(Zr  3,Zr  0,O  13)           70.0459         0.359876   
    168. A(Zr  5,Zr  0,O  12)           75.1860         0.378679   
    169. A(O   9,Zr  0,O  13)           89.0097         0.490868   
    170. A(Zr  5,Zr  0,O  13)          102.3627         0.376176   
    171. A(O  13,Zr  0,O  14)          142.6856         0.519344   
    172. A(O   6,Zr  0,O  12)          104.2243         0.500076   
    173. A(O   6,Zr  0,O  15)          133.0256         0.473601   
    174. A(Zr  5,Zr  0,O  14)          106.5493         0.356895   
    175. A(Zr  3,Zr  0,O  11)           95.0136         0.319380   
    176. A(O   6,Zr  0,O  14)          132.8375         0.469162   
    177. A(O  11,Zr  0,O  12)           79.4814         0.484771   
    178. A(Zr  5,Zr  0,O  11)           37.4531         0.333243   
    179. A(Zr  3,Zr  0,O  14)          141.5665         0.341689   
    180. A(Zr  3,Zr  0,O   9)           35.9727         0.324968   
    181. A(Zr  2,Zr  1,O  19)          104.2412         0.364958   
    182. A(Zr  4,Zr  1,O  16)          142.8421         0.349962   
    183. A(O  10,Zr  1,O  18)          164.9740         0.497277   
    184. A(O   7,Zr  1,O  18)           99.4313         0.506870   
    185. A(O   7,Zr  1,O  10)           66.0047         0.454509   
    186. A(O   7,Zr  1,O  17)          132.1168         0.476060   
    187. A(O   8,Zr  1,O  16)           72.2192         0.465825   
    188. A(O   8,Zr  1,O  10)           97.4085         0.432753   
    189. A(O  16,Zr  1,O  18)           83.2744         0.536557   
    190. A(Zr  2,Zr  1,O   8)           37.3439         0.322832   
    191. A(O  10,Zr  1,O  16)          109.7835         0.480476   
    192. A(O  16,Zr  1,O  17)           73.6756         0.503558   
    193. A(Zr  2,Zr  1,O  16)          108.2567         0.355295   
    194. A(Zr  4,Zr  1,O  17)           95.2601         0.341096   
    195. A(Zr  2,Zr  1,O  10)           94.2183         0.331923   
    196. A(Zr  4,Zr  1,O   7)           36.9615         0.332652   
    197. A(O   7,Zr  1,O  19)           82.5999         0.504213   
    198. A(Zr  4,Zr  1,O  19)           71.0064         0.359432   
    199. A(O   8,Zr  1,O  18)           79.1352         0.481997   
    200. A(O  17,Zr  1,O  18)          123.2948         0.521351   
    201. A(O  18,Zr  1,O  19)           82.3589         0.552797   
    202. A(O  17,Zr  1,O  19)           82.7956         0.518601   
    203. A(Zr  4,Zr  1,O  18)          129.7537         0.361162   
    204. A(O  16,Zr  1,O  19)          139.0578         0.533711   
    205. A(Zr  4,Zr  1,O  10)           35.5178         0.327059   
    206. A(Zr  2,Zr  1,O  18)           74.0812         0.366724   
    207. A(O   7,Zr  1,O  16)          137.6634         0.489674   
    208. A(Zr  2,Zr  1,O   7)           36.1985         0.337631   
    209. A(O  10,Zr  1,O  17)           69.1479         0.467175   
    210. A(Zr  2,Zr  1,O  17)          162.3572         0.346247   
    211. A(O  10,Zr  1,O  19)           91.6925         0.494681   
    212. A(Zr  2,Zr  1,Zr  4)           72.4557         0.250935   
    213. A(O   8,Zr  1,O  17)          135.9340         0.453021   
    214. A(O   8,Zr  1,O  19)          140.8454         0.479498   
    215. A(O   7,Zr  1,O   8)           66.9863         0.440829   
    216. A(Zr  4,Zr  1,O   8)           95.3476         0.318150   
    217. A(O   7,Zr  2,O   8)           68.1928         0.460583   
    218. A(Zr  5,Zr  2,O  21)          101.5626         0.346752   
    219. A(Zr  5,Zr  2,O   8)           37.6476         0.326922   
    220. A(Zr  5,Zr  2,O   7)           87.7545         0.331159   
    221. A(O   8,Zr  2,O  21)          139.1526         0.484510   
    222. A(O  22,Zr  2,O  23)           81.0293         0.516769   
    223. A(O  21,Zr  2,O  23)           74.5368         0.497834   
    224. A(O  20,Zr  2,O  22)           83.2945         0.555843   
    225. A(O  20,Zr  2,O  23)          135.7507         0.514726   
    226. A(O  11,Zr  2,O  23)          120.5035         0.465076   
    227. A(Zr  1,Zr  2,Zr  5)           71.8469         0.249067   
    228. A(Zr  1,Zr  2,O  20)          115.6341         0.366083   
    229. A(Zr  1,Zr  2,O   8)           38.5709         0.334617   
    230. A(Zr  1,Zr  2,O  22)           72.5509         0.367412   
    231. A(Zr  5,Zr  2,O  11)           35.1913         0.326100   
    232. A(Zr  1,Zr  2,O   7)           36.3294         0.338991   
    233. A(O  20,Zr  2,O  21)           83.8693         0.535179   
    234. A(O   8,Zr  2,O  23)          136.6723         0.466380   
    235. A(O  21,Zr  2,O  22)          128.6127         0.537320   
    236. A(O  11,Zr  2,O  22)          155.9575         0.501398   
    237. A(Zr  5,Zr  2,O  23)          149.6558         0.334937   
    238. A(O   8,Zr  2,O  22)           88.0048         0.502828   
    239. A(O   7,Zr  2,O  22)           90.3545         0.510198   
    240. A(O  11,Zr  2,O  20)           86.8128         0.499428   
    241. A(Zr  1,Zr  2,O  23)           98.5258         0.342891   
    242. A(O  11,Zr  2,O  21)           71.5940         0.483144   
    243. A(O   7,Zr  2,O  11)           87.7979         0.459299   
    244. A(O   8,Zr  2,O  11)           69.0766         0.452820   
    245. A(Zr  1,Zr  2,O  21)          154.5546         0.355089   
    246. A(Zr  1,Zr  2,O  11)           92.3551         0.333768   
    247. A(Zr  5,Zr  2,O  22)          120.7921         0.358690   
    248. A(O   8,Zr  2,O  20)           83.3968         0.500851   
    249. A(O   7,Zr  2,O  20)          151.1110         0.508186   
    250. A(Zr  5,Zr  2,O  20)           71.8082         0.357402   
    251. A(O   7,Zr  2,O  23)           70.0880         0.473101   
    252. A(O   7,Zr  2,O  21)          121.0173         0.491554   
    253. A(O   6,Zr  3,O  10)           84.1649         0.469161   
    254. A(O   9,Zr  3,O  10)           68.2660         0.467707   
    255. A(Zr  4,Zr  3,O  10)           35.3654         0.335451   
    256. A(Zr  4,Zr  3,O  24)          154.9110         0.346517   
    257. A(O  25,Zr  3,O  27)           83.0185         0.549785   
    258. A(Zr  4,Zr  3,O  27)           72.1899         0.361107   
    259. A(O  26,Zr  3,O  27)           83.0944         0.529728   
    260. A(Zr  4,Zr  3,O  25)          108.6908         0.360879   
    261. A(Zr  4,Zr  3,O   6)           83.7865         0.336659   
    262. A(O   6,Zr  3,O  26)          110.1534         0.490129   
    263. A(O  25,Zr  3,O  26)          136.6431         0.529358   
    264. A(O  10,Zr  3,O  26)           72.4446         0.488174   
    265. A(Zr  0,Zr  3,Zr  4)           68.3925         0.248801   
    266. A(Zr  4,Zr  3,O  26)          105.6620         0.349044   
    267. A(Zr  0,Zr  3,O  26)          144.8709         0.347827   
    268. A(Zr  4,Zr  3,O   9)           36.3007         0.335712   
    269. A(O   9,Zr  3,O  25)           79.9332         0.506780   
    270. A(O   6,Zr  3,O  25)           99.1990         0.508384   
    271. A(Zr  0,Zr  3,O  25)           74.0389         0.359606   
    272. A(O  10,Zr  3,O  24)          133.7454         0.484294   
    273. A(O   9,Zr  3,O  24)          129.4580         0.484711   
    274. A(Zr  0,Zr  3,O   9)           36.9263         0.334557   
    275. A(O   9,Zr  3,O  26)          140.7088         0.488595   
    276. A(Zr  0,Zr  3,O   6)           36.4057         0.335499   
    277. A(Zr  0,Zr  3,O  24)           92.8247         0.345311   
    278. A(Zr  0,Zr  3,O  27)          124.0231         0.359833   
    279. A(O   6,Zr  3,O  27)          155.1463         0.508736   
    280. A(O   6,Zr  3,O   9)           66.5825         0.469563   
    281. A(Zr  0,Zr  3,O  10)           89.4989         0.334298   
    282. A(O   9,Zr  3,O  27)           89.7063         0.507131   
    283. A(O  24,Zr  3,O  27)          132.8475         0.525444   
    284. A(O  24,Zr  3,O  26)           79.8018         0.506096   
    285. A(O  10,Zr  3,O  25)          143.7338         0.506339   
    286. A(O  24,Zr  3,O  25)           80.1918         0.525078   
    287. A(O  10,Zr  3,O  27)           79.9350         0.506690   
    288. A(O   6,Zr  3,O  24)           71.4910         0.486230   
    289. A(O   9,Zr  4,O  10)           68.1014         0.464993   
    290. A(O   7,Zr  4,O  10)           66.1238         0.456810   
    291. A(Zr  3,Zr  4,O  10)           35.6146         0.338086   
    292. A(O  30,Zr  4,O  31)           81.6022         0.531278   
    293. A(O  29,Zr  4,O  31)           77.4593         0.507010   
    294. A(O  28,Zr  4,O  31)          129.1990         0.531281   
    295. A(Zr  1,Zr  4,O  28)          124.6512         0.358069   
    296. A(O   9,Zr  4,O  31)          135.6955         0.485052   
    297. A(Zr  3,Zr  4,O  31)          157.9353         0.351375   
    298. A(O   7,Zr  4,O  30)           96.1713         0.488636   
    299. A(O  10,Zr  4,O  30)           80.7059         0.508877   
    300. A(O   9,Zr  4,O  30)          141.8832         0.497526   
    301. A(Zr  3,Zr  4,O   9)           35.8768         0.331352   
    302. A(O   7,Zr  4,O   9)           90.8656         0.446867   
    303. A(O   7,Zr  4,O  28)          158.0804         0.488638   
    304. A(O  10,Zr  4,O  28)           92.1149         0.508880   
    305. A(O   9,Zr  4,O  28)           77.8403         0.497529   
    306. A(Zr  3,Zr  4,O  28)           72.7135         0.359641   
    307. A(Zr  1,Zr  4,O  29)          144.8808         0.343303   
    308. A(Zr  3,Zr  4,O  29)          106.0703         0.344789   
    309. A(Zr  1,Zr  4,Zr  3)           69.0686         0.248620   
    310. A(Zr  3,Zr  4,O   7)           87.0817         0.326078   
    311. A(Zr  1,Zr  4,O   9)           92.6152         0.329945   
    312. A(Zr  1,Zr  4,O  31)           95.2605         0.349851   
    313. A(O  10,Zr  4,O  31)          131.6616         0.496057   
    314. A(O   9,Zr  4,O  29)           71.4350         0.475110   
    315. A(Zr  1,Zr  4,O   7)           36.1653         0.324701   
    316. A(O  29,Zr  4,O  30)          137.8120         0.520176   
    317. A(O  10,Zr  4,O  29)          139.3125         0.485839   
    318. A(O   7,Zr  4,O  31)           71.6020         0.476433   
    319. A(O  28,Zr  4,O  29)           83.4039         0.520179   
    320. A(Zr  1,Zr  4,O  30)           72.7597         0.358067   
    321. A(O  28,Zr  4,O  30)           82.1344         0.545211   
    322. A(O   7,Zr  4,O  29)          110.9971         0.466707   
    323. A(Zr  3,Zr  4,O  30)          106.9888         0.359639   
    324. A(Zr  1,Zr  4,O  10)           36.4517         0.336639   
    325. A(O  11,Zr  5,O  35)           95.8508         0.514014   
    326. A(O  34,Zr  5,O  35)           84.9669         0.551877   
    327. A(O  33,Zr  5,O  35)           82.6874         0.553608   
    328. A(O  32,Zr  5,O  35)          129.5871         0.523250   
    329. A(O   8,Zr  5,O  35)           77.9024         0.483950   
    330. A(O   6,Zr  5,O  35)          159.4362         0.519703   
    331. A(Zr  2,Zr  5,O  35)           74.5928         0.358804   
    332. A(O  33,Zr  5,O  34)          137.4959         0.547072   
    333. A(O  32,Zr  5,O  34)           76.5999         0.517140   
    334. A(O  11,Zr  5,O  34)          142.5700         0.508035   
    335. A(Zr  0,Zr  5,O  35)          132.3266         0.378706   
    336. A(O  32,Zr  5,O  33)           80.5237         0.518742   
    337. A(O   6,Zr  5,O  34)          100.4817         0.513644   
    338. A(Zr  2,Zr  5,O  34)          110.8107         0.355008   
    339. A(Zr  0,Zr  5,O  34)          138.2233         0.374630   
    340. A(O  11,Zr  5,O  33)           79.2715         0.509603   
    341. A(O   8,Zr  5,O  33)          140.1701         0.479850   
    342. A(O   6,Zr  5,O  33)          105.1849         0.515232   
    343. A(Zr  0,Zr  5,O  33)           74.9818         0.375698   
    344. A(O  11,Zr  5,O  32)          126.6054         0.482119   
    345. A(O   8,Zr  5,O  32)          137.8276         0.454311   
    346. A(O   6,Zr  5,O  32)           70.9028         0.487381   
    347. A(Zr  2,Zr  5,O  32)          155.7968         0.338557   
    348. A(Zr  0,Zr  5,O  32)           87.7594         0.356965   
    349. A(Zr  2,Zr  5,O   6)           84.9744         0.336519   
    350. A(Zr  0,Zr  5,Zr  2)           71.3458         0.255490   
    351. A(Zr  0,Zr  5,O   6)           37.8642         0.354776   
    352. A(O   8,Zr  5,O  34)           75.0315         0.478393   
    353. A(O   8,Zr  5,O  11)           68.6551         0.446542   
    354. A(O   6,Zr  5,O  11)           67.7453         0.478909   
    355. A(Zr  2,Zr  5,O  11)           35.8841         0.333249   
    356. A(Zr  0,Zr  5,O  11)           39.2712         0.351266   
    357. A(O   6,Zr  5,O   8)           84.3357         0.451327   
    358. A(Zr  2,Zr  5,O  33)          104.7380         0.356004   
    359. A(Zr  2,Zr  5,O   8)           36.5079         0.315972   
    360. A(Zr  0,Zr  5,O   8)           93.0887         0.332714   
    361. A(Zr  3,O   6,Zr  5)          146.4733         0.477520   
    362. A(Zr  0,O   6,Zr  5)          105.4318         0.466157   
    363. A(Zr  0,O   6,Zr  3)          107.8927         0.459850   
    364. A(Zr  2,O   7,Zr  4)          142.6992         0.452868   
    365. A(Zr  1,O   7,Zr  4)          106.8731         0.450888   
    366. A(Zr  1,O   7,Zr  2)          107.4721         0.465143   
    367. A(Zr  1,O   8,Zr  2)          104.0852         0.436564   
    368. A(Zr  2,O   8,Zr  5)          105.8445         0.437279   
    369. A(Zr  1,O   8,Zr  5)          133.3891         0.420568   
    370. A(Zr  3,O   9,Zr  4)          107.8225         0.461408   
    371. A(Zr  0,O   9,Zr  4)          128.0328         0.446867   
    372. A(Zr  0,O   9,Zr  3)          107.1010         0.453304   
    373. A(Zr  3,O  10,Zr  4)          109.0200         0.471352   
    374. A(Zr  1,O  10,Zr  4)          108.0305         0.460490   
    375. A(Zr  1,O  10,Zr  3)          132.0610         0.456560   
    376. A(Zr  2,O  11,Zr  5)          108.9245         0.462496   
    377. A(Zr  0,O  11,Zr  5)          103.2758         0.447318   
    378. A(Zr  0,O  11,Zr  2)          133.4905         0.436829   
    379. A(Zr  0,O  12,C  36)          131.2659         0.509675   
    380. A(Zr  0,O  13,C  37)          129.9628         0.505118   
    381. A(Zr  0,O  14,C  38)          141.3536         0.478144   
    382. A(Zr  0,O  15,C  39)          126.3580         0.482485   
    383. A(Zr  1,O  16,C  40)          140.2358         0.492656   
    384. A(Zr  1,O  17,C  41)          126.8440         0.477421   
    385. A(Zr  1,O  18,C  42)          128.7019         0.508138   
    386. A(Zr  1,O  19,C  43)          128.6142         0.504981   
    387. A(Zr  2,O  20,C  44)          133.1240         0.507336   
    388. A(Zr  2,O  21,C  38)          129.8773         0.491819   
    389. A(Zr  2,O  22,C  42)          131.1742         0.509101   
    390. A(Zr  2,O  23,C  45)          141.2936         0.473114   
    391. A(Al 60,O  24,Al 72)           60.4559         0.131451   
    392. A(C  46,O  24,Al 72)          104.2470         0.214717   
    393. A(Zr  3,O  24,Al 72)          110.2470         0.220436   
    394. A(C  46,O  24,Al 60)          108.7408         0.216600   
    395. A(Zr  3,O  24,Al 60)          105.3867         0.222405   
    396. A(Zr  3,O  24,C  46)          140.1098         0.484069   
    397. A(Zr  3,O  25,C  37)          126.1997         0.505070   
    398. A(Zr  3,O  25,Al 68)          108.8287         0.234770   
    399. A(C  37,O  25,Al 68)          123.8539         0.220735   
    400. A(Zr  3,O  26,C  41)          136.5380         0.486580   
    401. A(C  41,O  26,Al 60)          115.0232         0.220984   
    402. A(Zr  3,O  26,Al 60)          107.2348         0.228822   
    403. A(Al 61,O  27,Al 68)           59.5561         0.128458   
    404. A(C  47,O  27,Al 68)          103.6858         0.203995   
    405. A(Zr  3,O  27,Al 68)          103.1646         0.216437   
    406. A(C  47,O  27,Al 61)          122.4433         0.217850   
    407. A(Zr  3,O  27,Al 61)          108.6734         0.231791   
    408. A(Zr  3,O  27,C  47)          128.8535         0.505147   
    409. A(Zr  4,O  28,C  47)          127.6414         0.502932   
    410. A(Zr  4,O  29,C  39)          137.4563         0.480085   
    411. A(Zr  4,O  30,C  43)          126.8296         0.503068   
    412. A(Zr  4,O  31,C  45)          135.2954         0.492155   
    413. A(Zr  5,O  32,C  46)          134.5366         0.478865   
    414. A(Zr  5,O  33,C  36)          130.9522         0.505361   
    415. A(Zr  5,O  34,C  40)          139.4383         0.505400   
    416. A(Zr  5,O  35,C  44)          129.1694         0.509637   
    417. A(O  12,C  36,O  33)          127.5693         0.466024   
    418. A(O  33,C  36,H  58)          116.2132         0.364829   
    419. A(O  12,C  36,H  58)          116.2169         0.364820   
    420. A(O  13,C  37,O  25)          126.9130         0.464678   
    421. A(O  25,C  37,H  51)          116.5119         0.364105   
    422. A(O  13,C  37,H  51)          116.5719         0.363862   
    423. A(O  14,C  38,O  21)          129.1088         0.466956   
    424. A(O  21,C  38,H  50)          115.4209         0.366271   
    425. A(O  14,C  38,H  50)          115.4701         0.365727   
    426. A(O  15,C  39,O  29)          129.6165         0.465071   
    427. A(O  29,C  39,H  54)          115.2282         0.364737   
    428. A(O  15,C  39,H  54)          115.1540         0.365292   
    429. A(O  16,C  40,O  34)          128.9778         0.468810   
    430. A(O  34,C  40,H  56)          115.5059         0.366890   
    431. A(O  16,C  40,H  56)          115.5127         0.366799   
    432. A(O  17,C  41,O  26)          129.6385         0.465012   
    433. A(O  26,C  41,H  48)          115.3013         0.364751   
    434. A(O  17,C  41,H  48)          115.0487         0.365278   
    435. A(O  18,C  42,O  22)          127.1816         0.465302   
    436. A(O  22,C  42,H  49)          116.4117         0.364342   
    437. A(O  18,C  42,H  49)          116.4066         0.364392   
    438. A(O  30,C  43,H  52)          116.4558         0.364007   
    439. A(O  19,C  43,H  52)          116.4952         0.363883   
    440. A(O  19,C  43,O  30)          127.0478         0.464651   
    441. A(O  35,C  44,H  59)          116.2184         0.364711   
    442. A(O  20,C  44,H  59)          116.2105         0.364635   
    443. A(O  20,C  44,O  35)          127.5710         0.465771   
    444. A(O  31,C  45,H  55)          115.1544         0.366739   
    445. A(O  23,C  45,H  55)          115.1267         0.366431   
    446. A(O  23,C  45,O  31)          129.7180         0.467647   
    447. A(O  32,C  46,H  57)          114.9121         0.366475   
    448. A(O  24,C  46,H  57)          115.0242         0.366279   
    449. A(O  24,C  46,O  32)          130.0589         0.467146   
    450. A(O  28,C  47,H  53)          116.2926         0.363990   
    451. A(O  27,C  47,H  53)          116.2559         0.363971   
    452. A(O  27,C  47,O  28)          127.4514         0.464543   
    453. A(O  24,Al 60,O  26)           47.3883         0.133721   
    454. A(O  24,Al 60,Al 72)           60.0389         0.163026   
    455. A(O  24,Al 60,H  71)          152.4789         0.201412   
    456. A(O  24,Al 60,H  66)           59.0476         0.194717   
    457. A(O  24,Al 60,H  65)           59.1054         0.201279   
    458. A(O  24,Al 60,H  64)           96.6081         0.194678   
    459. A(O  24,Al 60,Al 61)           93.6567         0.163228   
    460. A(O  26,Al 60,Al 72)           96.6925         0.165832   
    461. A(O  26,Al 60,H  71)          150.9434         0.205674   
    462. A(O  26,Al 60,H  66)           98.9591         0.198725   
    463. A(O  26,Al 60,H  65)           55.0466         0.205536   
    464. A(O  26,Al 60,H  64)           62.6589         0.198685   
    465. A(O  26,Al 60,Al 61)           64.1371         0.166042   
    466. A(H  71,Al 60,Al 72)          112.3136         0.282130   
    467. A(H  65,Al 60,Al 72)          114.8100         0.281901   
    468. A(H  64,Al 60,Al 72)           95.6901         0.270561   
    469. A(Al 61,Al 60,Al 72)           88.5694         0.216527   
    470. A(H  66,Al 60,H  71)          110.0611         0.364811   
    471. A(H  65,Al 60,H  71)          110.4507         0.381930   
    472. A(H  64,Al 60,H  71)          110.7426         0.364709   
    473. A(Al 61,Al 60,H  71)          113.1423         0.282657   
    474. A(H  66,Al 60,Al 72)            6.5368         0.270628   
    475. A(H  65,Al 60,H  66)          111.0658         0.364485   
    476. A(H  64,Al 60,H  66)          102.1875         0.348289   
    477. A(Al 61,Al 60,H  66)           95.0753         0.271124   
    478. A(H  64,Al 60,H  65)          112.0727         0.364383   
    479. A(Al 61,Al 60,H  65)          116.0686         0.282428   
    480. A(Al 61,Al 60,H  64)            7.1540         0.271056   
    481. A(O  27,Al 61,Al 68)           62.2731         0.163926   
    482. A(O  27,Al 61,H  67)          155.0463         0.202862   
    483. A(O  27,Al 61,H  64)           94.8322         0.196043   
    484. A(O  27,Al 61,H  63)           58.2626         0.202809   
    485. A(O  27,Al 61,H  62)           60.7678         0.196134   
    486. A(O  27,Al 61,Al 60)           92.6824         0.164191   
    487. A(H  67,Al 61,Al 68)          111.1050         0.281961   
    488. A(H  64,Al 61,Al 68)           98.2860         0.270405   
    489. A(H  63,Al 61,Al 68)          113.9018         0.281870   
    490. A(H  62,Al 61,Al 68)            6.2070         0.270559   
    491. A(Al 60,Al 61,Al 68)           91.2421         0.216425   
    492. A(H  64,Al 61,H  67)          110.0934         0.364677   
    493. A(H  63,Al 61,H  67)          110.4598         0.382100   
    494. A(H  62,Al 61,H  67)          109.8162         0.364910   
    495. A(Al 60,Al 61,H  67)          111.9121         0.282644   
    496. A(H  63,Al 61,H  64)          112.4537         0.364547   
    497. A(H  62,Al 61,H  64)          104.2907         0.348387   
    498. A(Al 60,Al 61,H  64)            7.1537         0.271047   
    499. A(H  62,Al 61,H  63)          109.5459         0.364781   
    500. A(Al 60,Al 61,H  63)          116.9650         0.282553   
    501. A(Al 60,Al 61,H  62)           97.2822         0.271201   
    502. A(Al 61,H  62,Al 68)          167.5852         0.348651   
    503. A(Al 60,H  64,Al 61)          165.6923         0.348180   
    504. A(Al 60,H  66,Al 72)          166.9262         0.348399   
    505. A(O  25,Al 68,O  27)           46.5154         0.129315   
    506. A(O  27,Al 68,H  75)          152.2280         0.190620   
    507. A(O  27,Al 68,H  70)           61.3884         0.190535   
    508. A(O  27,Al 68,H  69)           97.1355         0.184616   
    509. A(O  27,Al 68,H  62)           56.6959         0.184630   
    510. A(O  27,Al 68,Al 61)           58.1708         0.155869   
    511. A(O  25,Al 68,H  75)          154.8426         0.205337   
    512. A(O  25,Al 68,Al 72)           64.8121         0.165866   
    513. A(O  25,Al 68,H  70)           56.6751         0.205240   
    514. A(O  25,Al 68,H  69)           62.7814         0.198464   
    515. A(O  25,Al 68,H  62)           94.9658         0.198480   
    516. A(O  25,Al 68,Al 61)           93.2176         0.165553   
    517. A(Al 72,Al 68,H  75)          111.1510         0.282753   
    518. A(H  70,Al 68,H  75)          111.2515         0.382001   
    519. A(H  69,Al 68,H  75)          109.9927         0.364921   
    520. A(H  62,Al 68,H  75)          110.1892         0.364961   
    521. A(Al 61,Al 68,H  75)          111.7587         0.281964   
    522. A(O  27,Al 68,Al 72)           95.0776         0.156142   
    523. A(H  70,Al 68,Al 72)          116.4958         0.282592   
    524. A(H  69,Al 68,Al 72)            6.9072         0.271306   
    525. A(H  62,Al 68,Al 72)           94.6993         0.271333   
    526. A(Al 61,Al 68,Al 72)           88.5642         0.216495   
    527. A(H  69,Al 68,H  70)          111.7009         0.364690   
    528. A(H  62,Al 68,H  70)          111.9497         0.364731   
    529. A(Al 61,Al 68,H  70)          115.8404         0.281803   
    530. A(H  62,Al 68,H  69)          101.3545         0.348657   
    531. A(Al 61,Al 68,H  69)           95.2521         0.270563   
    532. A(Al 61,Al 68,H  62)            6.2078         0.270590   
    533. A(Al 68,H  69,Al 72)          166.1839         0.348706   
    534. A(O  24,Al 72,H  74)          157.7907         0.199747   
    535. A(O  24,Al 72,H  73)           62.9891         0.199666   
    536. A(O  24,Al 72,H  69)           92.4865         0.193239   
    537. A(O  24,Al 72,Al 68)           91.1177         0.162173   
    538. A(O  24,Al 72,H  66)           58.5184         0.193163   
    539. A(O  24,Al 72,Al 60)           59.5052         0.161934   
    540. A(H  73,Al 72,H  74)          110.5693         0.382028   
    541. A(H  69,Al 72,H  74)          109.3544         0.365010   
    542. A(Al 68,Al 72,H  74)          110.0747         0.282752   
    543. A(H  66,Al 72,H  74)          110.1917         0.364809   
    544. A(Al 60,Al 72,H  74)          111.7073         0.282118   
    545. A(H  69,Al 72,H  73)          110.7874         0.364810   
    546. A(Al 68,Al 72,H  73)          116.0604         0.282611   
    547. A(H  66,Al 72,H  73)          111.5664         0.364608   
    548. A(Al 60,Al 72,H  73)          115.8659         0.281977   
    549. A(Al 68,Al 72,H  69)            6.9089         0.271367   
    550. A(H  66,Al 72,H  69)          104.1857         0.348603   
    551. A(Al 60,Al 72,H  69)           97.8023         0.270770   
    552. A(H  66,Al 72,Al 68)           97.7067         0.271234   
    553. A(Al 60,Al 72,Al 68)           91.2709         0.216598   
    554. A(Al 60,Al 72,H  66)            6.5370         0.270638   
    555. D(O   7,Zr  2,Zr  1,Zr  4)     -9.2555         0.010000   
    556. D(Zr  5,Zr  2,Zr  1,O   7)    112.1029         0.010000   
    557. D(Zr  5,Zr  2,Zr  1,Zr  4)    102.8474         0.010000   
    558. D(Zr  4,Zr  3,Zr  0,O   6)   -109.9359         0.010000   
    559. D(O   6,Zr  3,Zr  0,Zr  5)      2.3387         0.010000   
    560. D(Zr  4,Zr  3,Zr  0,Zr  5)   -107.5972         0.010000   
    561. D(Zr  1,Zr  4,Zr  3,O   6)     69.5560         0.010000   
    562. D(Zr  1,Zr  4,Zr  3,Zr  0)    103.6969         0.010000   
    563. D(Zr  3,Zr  4,Zr  1,Zr  2)   -106.4354         0.010000   
    564. D(O   7,Zr  4,Zr  1,Zr  2)      9.0894         0.010000   
    565. D(Zr  3,Zr  4,Zr  1,O   7)   -115.5248         0.010000   
    566. D(O   7,Zr  4,Zr  3,Zr  0)     71.4741         0.010000   
    567. D(Zr  2,Zr  5,Zr  0,O   6)    106.4740         0.010000   
    568. D(O   6,Zr  5,Zr  0,Zr  3)     -2.2834         0.010000   
    569. D(Zr  2,Zr  5,Zr  0,Zr  3)    104.1906         0.010000   
    570. D(Zr  0,Zr  5,Zr  2,O   7)    -67.3886         0.010000   
    571. D(O   6,Zr  5,Zr  2,Zr  1)    -64.4898         0.010000   
    572. D(Zr  0,Zr  5,Zr  2,Zr  1)   -100.7083         0.010000   
    573. D(Zr  5,O   6,Zr  3,Zr  0)   -173.4798         0.010000   
    574. D(Zr  3,O   6,Zr  5,Zr  0)    173.5634         0.010000   
    575. D(Zr  0,O   6,Zr  5,O   8)   -102.4617         0.010000   
    576. D(Zr  0,O   6,Zr  5,Zr  2)    -65.7941         0.010000   
    577. D(Zr  0,O   6,Zr  3,Zr  4)     61.5435         0.010000   
    578. D(Zr  3,O   6,Zr  0,O   9)    -27.9554         0.010000   
    579. D(Zr  0,O   6,Zr  3,O   9)     28.2946         0.010000   
    580. D(Zr  3,O   6,Zr  0,Zr  5)   -176.2694         0.010000   
    581. D(Zr  5,O   6,Zr  0,Zr  3)    176.2694         0.010000   
    582. D(Zr  1,O   7,Zr  2,Zr  5)    -61.7719         0.010000   
    583. D(Zr  2,O   7,Zr  1,O   8)     28.0968         0.010000   
    584. D(Zr  4,O   7,Zr  1,Zr  2)   -165.2235         0.010000   
    585. D(Zr  2,O   7,Zr  1,Zr  4)    165.2235         0.010000   
    586. D(Zr  1,O   7,Zr  4,O   9)     93.2480         0.010000   
    587. D(Zr  1,O   7,Zr  4,Zr  3)     57.5589         0.010000   
    588. D(Zr  4,O   7,Zr  2,Zr  1)    156.2496         0.010000   
    589. D(Zr  2,O   7,Zr  4,Zr  1)   -156.3308         0.010000   
    590. D(Zr  1,O   7,Zr  2,O   8)    -28.6780         0.010000   
    591. D(Zr  1,O   8,Zr  5,Zr  2)   -128.0537         0.010000   
    592. D(Zr  2,O   8,Zr  5,Zr  0)     52.3152         0.010000   
    593. D(Zr  1,O   8,Zr  5,Zr  0)    -75.7384         0.010000   
    594. D(Zr  1,O   8,Zr  2,O   7)     27.1282         0.010000   
    595. D(Zr  1,O   8,Zr  2,Zr  5)    143.8451         0.010000   
    596. D(Zr  5,O   8,Zr  2,Zr  1)   -143.8451         0.010000   
    597. D(Zr  2,O   8,Zr  1,O   7)    -27.2923         0.010000   
    598. D(Zr  2,O   8,Zr  1,Zr  4)    -51.5528         0.010000   
    599. D(Zr  5,O   8,Zr  1,Zr  2)    128.6481         0.010000   
    600. D(Zr  3,O   9,Zr  4,Zr  1)    -47.6713         0.010000   
    601. D(Zr  0,O   9,Zr  4,Zr  1)     82.3917         0.010000   
    602. D(Zr  4,O   9,Zr  3,Zr  0)    140.8975         0.010000   
    603. D(Zr  0,O   9,Zr  3,O   6)    -27.9211         0.010000   
    604. D(Zr  0,O   9,Zr  3,Zr  4)   -140.8975         0.010000   
    605. D(Zr  4,O   9,Zr  0,Zr  3)   -130.3316         0.010000   
    606. D(Zr  0,O   9,Zr  4,Zr  3)    130.0630         0.010000   
    607. D(Zr  3,O   9,Zr  0,O   6)     27.7571         0.010000   
    608. D(Zr  3,O   9,Zr  0,Zr  5)     46.2014         0.010000   
    609. D(Zr  1,O  10,Zr  4,O   7)    -27.5384         0.010000   
    610. D(Zr  1,O  10,Zr  4,Zr  3)   -149.0272         0.010000   
    611. D(Zr  4,O  10,Zr  3,Zr  0)    -51.3958         0.010000   
    612. D(Zr  1,O  10,Zr  3,Zr  4)    138.7665         0.010000   
    613. D(Zr  1,O  10,Zr  3,Zr  0)     87.3707         0.010000   
    614. D(Zr  4,O  10,Zr  1,Zr  2)     51.4192         0.010000   
    615. D(Zr  3,O  10,Zr  1,Zr  4)   -139.0556         0.010000   
    616. D(Zr  3,O  10,Zr  4,Zr  1)    149.0272         0.010000   
    617. D(Zr  3,O  10,Zr  1,Zr  2)    -87.6365         0.010000   
    618. D(Zr  2,O  11,Zr  5,Zr  0)   -145.9381         0.010000   
    619. D(Zr  0,O  11,Zr  5,Zr  2)    145.9381         0.010000   
    620. D(Zr  5,O  11,Zr  2,Zr  1)     53.1740         0.010000   
    621. D(Zr  0,O  11,Zr  2,Zr  5)   -131.2896         0.010000   
    622. D(Zr  0,O  11,Zr  2,Zr  1)    -78.1156         0.010000   
    623. D(Zr  5,O  11,Zr  0,Zr  3)    -52.0678         0.010000   
    624. D(Zr  0,O  11,Zr  5,O   6)     32.1005         0.010000   
    625. D(Zr  2,O  11,Zr  0,Zr  5)    133.0897         0.010000   
    626. D(Zr  2,O  11,Zr  0,Zr  3)     81.0219         0.010000   
    627. D(C  36,O  12,Zr  0,Zr  5)     -0.3063         0.010000   
    628. D(C  36,O  12,Zr  0,Zr  3)     48.8845         0.010000   
    629. D(C  37,O  13,Zr  0,Zr  5)    -98.8170         0.010000   
    630. D(C  37,O  13,Zr  0,Zr  3)    -32.9966         0.010000   
    631. D(C  38,O  14,Zr  0,Zr  5)      4.5878         0.010000   
    632. D(C  38,O  14,Zr  0,Zr  3)    -77.7068         0.010000   
    633. D(C  39,O  15,Zr  0,Zr  5)    -25.3936         0.010000   
    634. D(C  39,O  15,Zr  0,Zr  3)    -73.9285         0.010000   
    635. D(C  40,O  16,Zr  1,Zr  4)    -46.8888         0.010000   
    636. D(C  40,O  16,Zr  1,Zr  2)     37.9328         0.010000   
    637. D(C  41,O  17,Zr  1,Zr  4)    -76.0145         0.010000   
    638. D(C  41,O  17,Zr  1,Zr  2)    -31.1945         0.010000   
    639. D(C  42,O  18,Zr  1,Zr  4)     28.8126         0.010000   
    640. D(C  42,O  18,Zr  1,Zr  2)    -21.0238         0.010000   
    641. D(C  43,O  19,Zr  1,Zr  4)    -32.0970         0.010000   
    642. D(C  43,O  19,Zr  1,Zr  2)    -97.4978         0.010000   
    643. D(C  44,O  20,Zr  2,Zr  5)     15.9091         0.010000   
    644. D(C  44,O  20,Zr  2,Zr  1)    -42.6618         0.010000   
    645. D(C  38,O  21,Zr  2,Zr  5)    -64.9006         0.010000   
    646. D(C  38,O  21,Zr  2,Zr  1)      7.0295         0.010000   
    647. D(C  42,O  22,Zr  2,Zr  5)     34.6046         0.010000   
    648. D(C  42,O  22,Zr  2,Zr  1)    -20.8197         0.010000   
    649. D(C  45,O  23,Zr  2,Zr  5)    -40.9274         0.010000   
    650. D(C  45,O  23,Zr  2,Zr  1)     27.5102         0.010000   
    651. D(Al 60,O  24,Zr  3,Zr  0)    177.3436         0.010000   
    652. D(C  46,O  24,Zr  3,Zr  4)      5.6010         0.010000   
    653. D(C  46,O  24,Zr  3,Zr  0)    -34.5696         0.010000   
    654. D(Al 68,O  25,Zr  3,Zr  0)    166.7260         0.010000   
    655. D(C  37,O  25,Zr  3,Zr  4)    -84.9841         0.010000   
    656. D(C  37,O  25,Zr  3,Zr  0)    -25.0565         0.010000   
    657. D(Al 60,O  26,Zr  3,Zr  0)    118.5753         0.010000   
    658. D(C  41,O  26,Zr  3,Zr  4)     -0.6526         0.010000   
    659. D(C  41,O  26,Zr  3,Zr  0)    -75.2180         0.010000   
    660. D(Al 61,O  27,Zr  3,Zr  0)   -162.3278         0.010000   
    661. D(C  47,O  27,Zr  3,Zr  4)    -27.2271         0.010000   
    662. D(C  47,O  27,Zr  3,Zr  0)     19.6511         0.010000   
    663. D(C  47,O  28,Zr  4,Zr  3)    -27.5621         0.010000   
    664. D(C  47,O  28,Zr  4,Zr  1)     20.3769         0.010000   
    665. D(C  39,O  29,Zr  4,Zr  3)      1.7575         0.010000   
    666. D(C  39,O  29,Zr  4,Zr  1)    -74.5529         0.010000   
    667. D(C  43,O  30,Zr  4,Zr  3)    -89.2344         0.010000   
    668. D(C  43,O  30,Zr  4,Zr  1)    -28.3081         0.010000   
    669. D(C  45,O  31,Zr  4,Zr  3)    -17.7452         0.010000   
    670. D(C  45,O  31,Zr  4,Zr  1)    -61.0358         0.010000   
    671. D(C  46,O  32,Zr  5,Zr  2)     39.9381         0.010000   
    672. D(C  46,O  32,Zr  5,Zr  0)     69.7305         0.010000   
    673. D(C  36,O  33,Zr  5,Zr  2)     67.5231         0.010000   
    674. D(C  36,O  33,Zr  5,Zr  0)      1.9171         0.010000   
    675. D(C  40,O  34,Zr  5,Zr  2)    -21.4616         0.010000   
    676. D(C  40,O  34,Zr  5,Zr  0)     63.4803         0.010000   
    677. D(C  44,O  35,Zr  5,Zr  2)     16.4853         0.010000   
    678. D(C  44,O  35,Zr  5,Zr  0)    -29.1072         0.010000   
    679. D(O  12,C  36,O  33,Zr  5)     -3.0191         0.046892   
    680. D(H  58,C  36,O  12,Zr  0)   -178.4550         0.046877   
    681. D(O  33,C  36,O  12,Zr  0)      1.8547         0.046877   
    682. D(H  58,C  36,O  33,Zr  5)    177.2905         0.046892   
    683. D(H  51,C  37,O  25,Zr  3)   -165.7415         0.067957   
    684. D(O  13,C  37,O  25,Al 68)   -179.8778         0.067957   
    685. D(O  13,C  37,O  25,Zr  3)     13.5798         0.067957   
    686. D(H  51,C  37,O  13,Zr  0)   -151.4418         0.050725   
    687. D(O  25,C  37,O  13,Zr  0)     29.2372         0.050725   
    688. D(H  50,C  38,O  21,Zr  2)   -164.0050         0.047920   
    689. D(O  14,C  38,O  21,Zr  2)     15.8354         0.047920   
    690. D(H  50,C  38,O  14,Zr  0)   -154.7626         0.047001   
    691. D(O  21,C  38,O  14,Zr  0)     25.3971         0.047001   
    692. D(H  54,C  39,O  29,Zr  4)   -148.5894         0.045848   
    693. D(O  15,C  39,O  29,Zr  4)     31.8632         0.045848   
    694. D(H  54,C  39,O  15,Zr  0)   -163.8538         0.046764   
    695. D(O  29,C  39,O  15,Zr  0)     15.6939         0.046764   
    696. D(H  56,C  40,O  34,Zr  5)    170.4098         0.048697   
    697. D(O  16,C  40,O  34,Zr  5)    -10.3182         0.048697   
    698. D(H  56,C  40,O  16,Zr  1)    178.5948         0.048540   
    699. D(O  34,C  40,O  16,Zr  1)     -0.6771         0.048540   
    700. D(H  48,C  41,O  26,Zr  3)   -146.9535         0.074523   
    701. D(O  17,C  41,O  26,Al 60)   -160.1980         0.074523   
    702. D(O  17,C  41,O  26,Zr  3)     34.3566         0.074523   
    703. D(H  48,C  41,O  17,Zr  1)   -161.7825         0.060594   
    704. D(O  26,C  41,O  17,Zr  1)     16.9101         0.060594   
    705. D(H  49,C  42,O  22,Zr  2)   -165.2727         0.046402   
    706. D(O  18,C  42,O  22,Zr  2)     14.7215         0.046402   
    707. D(H  49,C  42,O  18,Zr  1)   -164.0312         0.046485   
    708. D(O  22,C  42,O  18,Zr  1)     15.9746         0.046485   
    709. D(H  52,C  43,O  30,Zr  4)   -161.1279         0.046152   
    710. D(O  19,C  43,O  30,Zr  4)     18.4653         0.046152   
    711. D(H  52,C  43,O  19,Zr  1)   -154.5588         0.045948   
    712. D(O  30,C  43,O  19,Zr  1)     25.8482         0.045948   
    713. D(H  59,C  44,O  35,Zr  5)    166.9830         0.046793   
    714. D(O  20,C  44,O  35,Zr  5)    -13.1192         0.046793   
    715. D(H  59,C  44,O  20,Zr  2)    168.9913         0.046667   
    716. D(O  35,C  44,O  20,Zr  2)    -10.9065         0.046667   
    717. D(H  55,C  45,O  31,Zr  4)   -168.2013         0.048150   
    718. D(O  23,C  45,O  31,Zr  4)     12.1637         0.048150   
    719. D(H  55,C  45,O  23,Zr  2)   -167.9271         0.047627   
    720. D(O  31,C  45,O  23,Zr  2)     11.7080         0.047627   
    721. D(H  57,C  46,O  32,Zr  5)    161.7441         0.061950   
    722. D(O  24,C  46,O  32,Zr  5)    -19.1004         0.061950   
    723. D(H  57,C  46,O  24,Zr  3)    174.0470         0.080649   
    724. D(O  32,C  46,O  24,Al 60)    142.3296         0.080649   
    725. D(O  32,C  46,O  24,Zr  3)     -5.1077         0.080649   
    726. D(H  53,C  47,O  28,Zr  4)   -159.3223         0.055407   
    727. D(O  27,C  47,O  28,Zr  4)     20.7184         0.055407   
    728. D(H  53,C  47,O  27,Zr  3)   -160.5626         0.074746   
    729. D(O  28,C  47,O  27,Al 61)   -158.3816         0.074746   
    730. D(O  28,C  47,O  27,Zr  3)     19.3967         0.074746   
    731. D(H  64,Al 60,O  26,Zr  3)     99.5311         0.010000   
    732. D(Al 61,Al 60,O  26,C  41)    -77.8713         0.010000   
    733. D(Al 61,Al 60,O  26,Zr  3)     91.7012         0.010000   
    734. D(H  64,Al 60,O  24,Zr  3)    -12.0926         0.010000   
    735. D(Al 61,Al 60,O  24,C  46)   -177.6587         0.010000   
    736. D(Al 61,Al 60,O  24,Zr  3)    -18.6364         0.010000   
    737. D(H  63,Al 61,Al 60,H  64)    -52.2324         0.010000   
    738. D(H  62,Al 61,Al 60,H  65)   -111.1396         0.010000   
    739. D(H  62,Al 61,Al 60,H  64)   -168.5557         0.010000   
    740. D(H  62,Al 61,O  27,Zr  3)    101.4533         0.010000   
    741. D(Al 60,Al 61,O  27,C  47)   -177.2185         0.010000   
    742. D(Al 60,Al 61,O  27,Zr  3)      4.6076         0.010000   
    743. D(Al 68,H  62,Al 61,H  63)   -135.4165         0.010000   
    744. D(Al 68,H  62,Al 61,Al 60)    -13.3803         0.010000   
    745. D(Al 60,H  64,Al 61,H  63)    130.3276         0.010000   
    746. D(Al 60,H  64,Al 61,H  62)     11.7182         0.010000   
    747. D(Al 61,H  64,Al 60,H  66)     -6.2671         0.010000   
    748. D(Al 61,H  64,Al 60,H  65)   -125.2396         0.010000   
    749. D(Al 72,H  66,Al 60,H  64)      6.3626         0.010000   
    750. D(Al 72,H  66,Al 60,Al 61)      5.5806         0.010000   
    751. D(H  69,Al 68,H  62,Al 61)     10.6682         0.010000   
    752. D(H  69,Al 68,Al 61,Al 60)     -2.7720         0.010000   
    753. D(H  62,Al 68,Al 61,H  63)     46.3482         0.010000   
    754. D(H  62,Al 68,Al 61,Al 60)    166.7264         0.010000   
    755. D(H  62,Al 68,O  27,Zr  3)   -111.2756         0.010000   
    756. D(Al 61,Al 68,O  27,C  47)    119.8231         0.010000   
    757. D(Al 61,Al 68,O  27,Zr  3)   -104.1187         0.010000   
    758. D(H  62,Al 68,O  25,Zr  3)      3.0460         0.010000   
    759. D(Al 61,Al 68,O  25,C  37)   -159.5374         0.010000   
    760. D(H  70,Al 68,H  62,Al 61)    129.8476         0.010000   
    761. D(Al 61,Al 68,O  25,Zr  3)      9.0180         0.010000   
    762. D(Al 72,H  69,Al 68,H  62)    -15.6735         0.010000   
    763. D(Al 72,H  69,Al 68,Al 61)    -14.5216         0.010000   
    764. D(H  66,Al 72,H  69,Al 68)     20.5753         0.010000   
    765. D(Al 60,Al 72,H  69,Al 68)     19.1392         0.010000   
    766. D(H  66,Al 72,Al 68,Al 61)      5.6463         0.010000   
    767. D(Al 60,Al 72,Al 68,H  62)      3.5479         0.010000   
    768. D(Al 60,Al 72,Al 68,Al 61)      4.4961         0.010000   
    769. D(H  69,Al 72,H  66,Al 60)    -12.5974         0.010000   
    770. D(Al 68,Al 72,H  66,Al 60)    -10.1524         0.010000   
    771. D(Al 68,Al 72,Al 60,Al 61)     -4.5019         0.010000   
    772. D(H  66,Al 72,Al 60,H  64)   -173.7505         0.010000   
    773. D(H  66,Al 72,Al 60,Al 61)   -174.4396         0.010000   
    774. D(H  66,Al 72,O  24,Zr  3)    104.2014         0.010000   
    775. D(Al 60,Al 72,O  24,C  46)   -103.7161         0.010000   
    776. D(Al 60,Al 72,O  24,Zr  3)     96.6618         0.010000   
    -----------------------------------------------------------------

Number of atoms                         .... 76
Number of degrees of freedom            .... 776


         *************************************************************
         *                GEOMETRY OPTIMIZATION CYCLE   1            *
         *************************************************************
---------------------------------
CARTESIAN COORDINATES (ANGSTROEM)
---------------------------------
  Zr    -0.333420    2.036997    1.569223
  Zr     0.390870   -1.891523   -1.599876
  Zr     1.631836   -1.397333    1.523323
  Zr    -1.618951    1.420918   -1.539314
  Zr     1.789845    1.229720   -1.527969
  Zr    -1.776159   -0.984871    1.648169
  O     -1.441852    0.640263    0.399008
  O      1.573859   -0.601135   -0.422439
  O     -0.163295   -1.914848    0.512029
  O      0.110364    2.065764   -0.533894
  O      0.030771    0.185196   -1.956412
  O      0.059467   -0.055404    2.030881
  O     -1.136072    1.907948    3.367233
  O     -1.876289    3.235380    1.225008
  O      1.417490    1.882177    2.657344
  O      0.792931    3.685176    1.088622
  O     -1.373815   -2.875257   -1.433748
  O     -0.600963   -1.613525   -3.393952
  O      1.146459   -3.628689   -1.035580
  O      1.993282   -1.874904   -2.770123
  O      0.915661   -2.593414    2.928517
  O      2.235777   -0.269008    3.096650
  O      2.422728   -3.067246    0.829635
  O      3.513689   -0.671535    0.996867
  O     -3.500577    1.073001   -0.803366
  O     -2.153384    3.277955   -1.085873
  O     -2.247206   -0.029860   -2.826050
  O     -0.957741    2.275241   -3.203267
  O      1.285335    2.724254   -2.741837
  O      2.441983    2.754698   -0.309113
  O      2.330402    0.380391   -3.244974
  O      3.634496    0.593985   -0.976040
  O     -3.576852   -0.045628    1.263871
  O     -2.124894   -0.201246    3.439064
  O     -2.685550   -2.228717    0.388525
  O     -1.405234   -2.606956    2.708624
  C     -1.818938    0.959774    3.934549
  C     -2.289386    3.767468    0.111302
  C      2.148719    1.010715    3.283606
  C      1.911103    3.687663    0.427080
  C     -2.422007   -2.917597   -0.675022
  C     -1.686981   -0.926347   -3.585516
  C      2.035207   -3.868859   -0.117814
  C      2.474668   -0.891938   -3.474105
  C     -0.279143   -3.022903    3.205275
  C      4.123824   -0.038031    0.043676
  C     -4.083949    0.563736    0.237753
  C      0.185011    2.857467   -3.423547
  H     -2.215380   -1.148353   -4.509971
  H      2.508060   -4.851662   -0.145649
  H      2.777966    1.410472    4.074039
  H     -2.814931    4.720982    0.191086
  H      3.069211   -1.164378   -4.348361
  H      0.224617    3.535729   -4.277771
  H      2.492876    4.603443    0.505808
  H      5.207042   -0.042618    0.107063
  H     -3.191314   -3.620943   -0.979066
  H     -5.163146    0.675463    0.259788
  H     -2.172526    1.159945    4.946152
  H     -0.343932   -3.827182    3.938711
  Al    -5.380322    0.523321   -3.440982
  Al    -3.227048    1.927946   -5.531499
  H     -3.088064    3.390882   -4.740681
  H     -1.788156    1.248019   -5.653440
  H     -4.272532    1.041545   -4.577794
  H     -4.819907   -0.689538   -2.566357
  H     -5.591388    1.890030   -2.506013
  H     -3.861885    2.153121   -6.977892
  Al    -3.240358    4.739560   -3.770071
  H     -4.381042    4.223274   -2.666853
  H     -1.862754    5.122152   -3.059607
  H     -6.757507    0.118670   -4.137498
  Al    -5.583818    3.418995   -1.836235
  H     -5.260191    3.373526   -0.273627
  H     -6.981781    4.141999   -2.098376
  H     -3.814667    5.964595   -4.615753

----------------------------
CARTESIAN COORDINATES (A.U.)
----------------------------
  NO LB      ZA    FRAG     MASS         X           Y           Z
   0 Zr   12.0000*   0    91.220   -0.630072    3.849366    2.965401
   1 Zr   12.0000*   0    91.220    0.738638   -3.574460   -3.023327
   2 Zr   12.0000*   0    91.220    3.083723   -2.640576    2.878664
   3 Zr   12.0000*   0    91.220   -3.059374    2.685147   -2.908881
   4 Zr   12.0000*   0    91.220    3.382316    2.323834   -2.887444
   5 Zr   12.0000*   0    91.220   -3.356454   -1.861137    3.114588
   6 O     8.0000    0    15.999   -2.724705    1.209921    0.754015
   7 O     8.0000    0    15.999    2.974162   -1.135981   -0.798294
   8 O     8.0000    0    15.999   -0.308582   -3.618539    0.967594
   9 O     8.0000    0    15.999    0.208558    3.903728   -1.008913
  10 O     8.0000    0    15.999    0.058148    0.349970   -3.697083
  11 O     8.0000    0    15.999    0.112375   -0.104697    3.837808
  12 O     8.0000    0    15.999   -2.146864    3.605500    6.363149
  13 O     8.0000    0    15.999   -3.545672    6.113983    2.314930
  14 O     8.0000    0    15.999    2.678667    3.556800    5.021653
  15 O     8.0000    0    15.999    1.498422    6.963973    2.057197
  16 O     8.0000    0    15.999   -2.596133   -5.433449   -2.709391
  17 O     8.0000    0    15.999   -1.135655   -3.049120   -6.413640
  18 O     8.0000    0    15.999    2.166494   -6.857229   -1.956963
  19 O     8.0000    0    15.999    3.766758   -3.543056   -5.234774
  20 O     8.0000    0    15.999    1.730349   -4.900842    5.534095
  21 O     8.0000    0    15.999    4.225006   -0.508352    5.851821
  22 O     8.0000    0    15.999    4.578292   -5.796255    1.567783
  23 O     8.0000    0    15.999    6.639911   -1.269017    1.883806
  24 O     8.0000    0    15.999   -6.615133    2.027678   -1.518142
  25 O     8.0000    0    15.999   -4.069306    6.194438   -2.052003
  26 O     8.0000    0    15.999   -4.246604   -0.056427   -5.340460
  27 O     8.0000    0    15.999   -1.809869    4.299583   -6.053297
  28 O     8.0000    0    15.999    2.428931    5.148093   -5.181321
  29 O     8.0000    0    15.999    4.614679    5.205625   -0.584139
  30 O     8.0000    0    15.999    4.403821    0.718834   -6.132113
  31 O     8.0000    0    15.999    6.868202    1.122469   -1.844448
  32 O     8.0000    0    15.999   -6.759270   -0.086224    2.388371
  33 O     8.0000    0    15.999   -4.015469   -0.380300    6.498889
  34 O     8.0000    0    15.999   -5.074954   -4.211665    0.734207
  35 O     8.0000    0    15.999   -2.655507   -4.926433    5.118557
  36 C     6.0000    0    12.011   -3.437294    1.813710    7.435220
  37 C     6.0000    0    12.011   -4.326313    7.119483    0.210330
  38 C     6.0000    0    12.011    4.060491    1.909974    6.205116
  39 C     6.0000    0    12.011    3.611460    6.968673    0.807065
  40 C     6.0000    0    12.011   -4.576930   -5.513460   -1.275607
  41 C     6.0000    0    12.011   -3.187933   -1.750543   -6.775643
  42 C     6.0000    0    12.011    3.845984   -7.311084   -0.222636
  43 C     6.0000    0    12.011    4.676444   -1.685518   -6.565108
  44 C     6.0000    0    12.011   -0.527503   -5.712459    6.057092
  45 C     6.0000    0    12.011    7.792897   -0.071868    0.082536
  46 C     6.0000    0    12.011   -7.717546    1.065306    0.449287
  47 C     6.0000    0    12.011    0.349620    5.399831   -6.469565
  48 H     1.0000    0     1.008   -4.186462   -2.170072   -8.522610
  49 H     1.0000    0     1.008    4.739547   -9.168312   -0.275236
  50 H     1.0000    0     1.008    5.249594    2.665405    7.698817
  51 H     1.0000    0     1.008   -5.319449    8.921363    0.361100
  52 H     1.0000    0     1.008    5.799968   -2.200356   -8.217212
  53 H     1.0000    0     1.008    0.424465    6.681560   -8.083816
  54 H     1.0000    0     1.008    4.710854    8.699247    0.955838
  55 H     1.0000    0     1.008    9.839884   -0.080537    0.202320
  56 H     1.0000    0     1.008   -6.030710   -6.842591   -1.850167
  57 H     1.0000    0     1.008   -9.756933    1.276439    0.490929
  58 H     1.0000    0     1.008   -4.105479    2.191978    9.346872
  59 H     1.0000    0     1.008   -0.649938   -7.232327    7.443085
  60 Al   13.0000    0    26.982  -10.167335    0.988934   -6.502514
  61 Al   13.0000    0    26.982   -6.098237    3.643289  -10.453019
  62 H     1.0000    0     1.008   -5.835594    6.407838   -8.958589
  63 H     1.0000    0     1.008   -3.379126    2.358415  -10.683453
  64 H     1.0000    0     1.008   -8.073916    1.968234   -8.650777
  65 H     1.0000    0     1.008   -9.108305   -1.303038   -4.849711
  66 H     1.0000    0     1.008  -10.566192    3.571640   -4.735679
  67 H     1.0000    0     1.008   -7.297905    4.068808  -13.186305
  68 Al   13.0000    0    26.982   -6.123389    8.956471   -7.124402
  69 H     1.0000    0     1.008   -8.278969    7.980830   -5.039622
  70 H     1.0000    0     1.008   -3.520096    9.679464   -5.781820
  71 H     1.0000    0     1.008  -12.769837    0.224254   -7.818739
  72 Al   13.0000    0    26.982  -10.551886    6.460964   -3.469981
  73 H     1.0000    0     1.008   -9.940320    6.375040   -0.517080
  74 H     1.0000    0     1.008  -13.193653    7.827244   -3.965356
  75 H     1.0000    0     1.008   -7.208676   11.271451   -8.722509
* core charge reduced due to ECP

--------------------------------
INTERNAL COORDINATES (ANGSTROEM)
--------------------------------
 Zr     0   0   0     0.000000000000     0.00000000     0.00000000
 Zr     1   0   0     5.099121821537     0.00000000     0.00000000
 Zr     2   1   0     3.396850355508    50.82991177     0.00000000
 Zr     1   2   3     3.419815672477    49.43375941   182.15009075
[...]

Throughout the following assumptions are being made:
  (1) The electronic state is orbitally nondegenerate
  (2) There are no thermally accessible electronically excited states
  (3) Hindered rotations indicated by low frequency modes are not
      treated as such but are treated as vibrations and this may
      cause some error
  (4) All equations used are the standard statistical mechanics
      equations for an ideal gas
  (5) All vibrations are strictly harmonic

freq.       8.66  E(vib)   ...       0.58 
freq.      18.37  E(vib)   ...       0.57 
freq.      23.35  E(vib)   ...       0.56 
freq.      27.58  E(vib)   ...       0.55 
freq.      32.42  E(vib)   ...       0.55 
freq.      39.52  E(vib)   ...       0.54 
freq.      41.54  E(vib)   ...       0.54 
freq.      46.42  E(vib)   ...       0.53 
freq.      56.40  E(vib)   ...       0.52 
freq.      60.13  E(vib)   ...       0.51 
freq.      63.21  E(vib)   ...       0.51 
freq.      64.11  E(vib)   ...       0.51 
freq.      70.15  E(vib)   ...       0.50 
freq.      79.29  E(vib)   ...       0.49 
freq.      82.20  E(vib)   ...       0.48 
freq.      90.09  E(vib)   ...       0.47 
freq.      96.16  E(vib)   ...       0.47 
freq.      97.16  E(vib)   ...       0.46 
freq.      98.51  E(vib)   ...       0.46 
freq.     101.33  E(vib)   ...       0.46 
freq.     104.67  E(vib)   ...       0.46 
freq.     105.78  E(vib)   ...       0.45 
freq.     107.33  E(vib)   ...       0.45 
freq.     109.05  E(vib)   ...       0.45 
freq.     116.74  E(vib)   ...       0.44 
freq.     117.40  E(vib)   ...       0.44 
freq.     121.71  E(vib)   ...       0.44 
freq.     127.36  E(vib)   ...       0.43 
freq.     130.07  E(vib)   ...       0.43 
freq.     144.25  E(vib)   ...       0.41 
freq.     145.67  E(vib)   ...       0.41 
freq.     149.19  E(vib)   ...       0.40 
freq.     149.96  E(vib)   ...       0.40 
freq.     152.46  E(vib)   ...       0.40 
freq.     152.81  E(vib)   ...       0.40 
freq.     153.61  E(vib)   ...       0.40 
freq.     158.38  E(vib)   ...       0.39 
freq.     160.11  E(vib)   ...       0.39 
freq.     163.62  E(vib)   ...       0.39 
freq.     165.54  E(vib)   ...       0.39 
freq.     166.60  E(vib)   ...       0.39 
freq.     168.95  E(vib)   ...       0.38 
freq.     172.13  E(vib)   ...       0.38 
freq.     174.34  E(vib)   ...       0.38 
freq.     185.16  E(vib)   ...       0.37 
freq.     188.61  E(vib)   ...       0.36 
freq.     189.03  E(vib)   ...       0.36 
freq.     192.80  E(vib)   ...       0.36 
freq.     196.29  E(vib)   ...       0.36 
freq.     198.61  E(vib)   ...       0.35 
freq.     204.67  E(vib)   ...       0.35 
freq.     209.81  E(vib)   ...       0.34 
freq.     211.89  E(vib)   ...       0.34 
freq.     212.45  E(vib)   ...       0.34 
freq.     227.15  E(vib)   ...       0.33 
freq.     228.68  E(vib)   ...       0.32 
freq.     233.26  E(vib)   ...       0.32 
freq.     235.04  E(vib)   ...       0.32 
freq.     243.55  E(vib)   ...       0.31 
freq.     258.98  E(vib)   ...       0.30 
freq.     260.56  E(vib)   ...       0.30 
freq.     262.56  E(vib)   ...       0.29 
freq.     263.62  E(vib)   ...       0.29 
freq.     264.72  E(vib)   ...       0.29 
freq.     266.41  E(vib)   ...       0.29 
freq.     268.11  E(vib)   ...       0.29 
freq.     270.75  E(vib)   ...       0.29 
freq.     271.32  E(vib)   ...       0.29 
freq.     271.94  E(vib)   ...       0.29 
freq.     273.04  E(vib)   ...       0.29 
freq.     275.19  E(vib)   ...       0.28 
freq.     276.05  E(vib)   ...       0.28 
freq.     276.81  E(vib)   ...       0.28 
freq.     279.55  E(vib)   ...       0.28 
freq.     280.17  E(vib)   ...       0.28 
freq.     282.22  E(vib)   ...       0.28 
freq.     283.92  E(vib)   ...       0.28 
freq.     287.67  E(vib)   ...       0.27 
freq.     292.20  E(vib)   ...       0.27 
freq.     293.22  E(vib)   ...       0.27 
freq.     295.06  E(vib)   ...       0.27 
freq.     299.89  E(vib)   ...       0.26 
freq.     301.45  E(vib)   ...       0.26 
freq.     307.65  E(vib)   ...       0.26 
freq.     309.24  E(vib)   ...       0.26 
freq.     309.59  E(vib)   ...       0.26 
freq.     313.31  E(vib)   ...       0.25 
freq.     314.42  E(vib)   ...       0.25 
freq.     321.01  E(vib)   ...       0.25 
freq.     322.66  E(vib)   ...       0.25 
freq.     325.11  E(vib)   ...       0.24 
freq.     328.03  E(vib)   ...       0.24 
freq.     339.83  E(vib)   ...       0.23 
freq.     341.09  E(vib)   ...       0.23 
freq.     351.01  E(vib)   ...       0.23 
freq.     352.69  E(vib)   ...       0.22 
freq.     362.85  E(vib)   ...       0.22 
freq.     369.68  E(vib)   ...       0.21 
freq.     385.89  E(vib)   ...       0.20 
freq.     394.98  E(vib)   ...       0.20 
freq.     399.73  E(vib)   ...       0.19 
freq.     402.55  E(vib)   ...       0.19 
freq.     404.43  E(vib)   ...       0.19 
freq.     414.07  E(vib)   ...       0.19 
freq.     417.39  E(vib)   ...       0.18 
freq.     419.08  E(vib)   ...       0.18 
freq.     419.84  E(vib)   ...       0.18 
freq.     421.16  E(vib)   ...       0.18 
freq.     429.43  E(vib)   ...       0.18 
freq.     432.35  E(vib)   ...       0.18 
freq.     438.14  E(vib)   ...       0.17 
freq.     475.42  E(vib)   ...       0.15 
freq.     476.06  E(vib)   ...       0.15 
freq.     476.76  E(vib)   ...       0.15 
freq.     479.43  E(vib)   ...       0.15 
freq.     482.67  E(vib)   ...       0.15 
freq.     498.21  E(vib)   ...       0.14 
freq.     523.68  E(vib)   ...       0.13 
freq.     539.21  E(vib)   ...       0.12 
freq.     624.37  E(vib)   ...       0.09 
freq.     671.46  E(vib)   ...       0.08 
freq.     674.84  E(vib)   ...       0.08 
freq.     679.92  E(vib)   ...       0.08 
freq.     682.71  E(vib)   ...       0.08 
freq.     683.46  E(vib)   ...       0.07 
freq.     688.24  E(vib)   ...       0.07 
freq.     691.47  E(vib)   ...       0.07 
freq.     694.27  E(vib)   ...       0.07 
freq.     700.80  E(vib)   ...       0.07 
freq.     701.21  E(vib)   ...       0.07 
freq.     706.44  E(vib)   ...       0.07 
freq.     723.57  E(vib)   ...       0.06 
freq.     725.91  E(vib)   ...       0.06 
freq.     731.06  E(vib)   ...       0.06 
freq.     734.22  E(vib)   ...       0.06 
freq.     734.91  E(vib)   ...       0.06 
freq.     735.58  E(vib)   ...       0.06 
freq.     736.93  E(vib)   ...       0.06 
freq.     737.94  E(vib)   ...       0.06 
freq.     738.29  E(vib)   ...       0.06 
freq.     738.84  E(vib)   ...       0.06 
freq.     739.41  E(vib)   ...       0.06 
freq.     740.00  E(vib)   ...       0.06 
freq.     740.53  E(vib)   ...       0.06 
freq.     741.34  E(vib)   ...       0.06 
freq.     743.04  E(vib)   ...       0.06 
freq.     748.87  E(vib)   ...       0.06 
freq.     775.12  E(vib)   ...       0.05 
freq.     994.54  E(vib)   ...       0.02 
freq.     995.56  E(vib)   ...       0.02 
freq.     999.93  E(vib)   ...       0.02 
freq.    1000.73  E(vib)   ...       0.02 
freq.    1001.05  E(vib)   ...       0.02 
freq.    1001.11  E(vib)   ...       0.02 
freq.    1002.51  E(vib)   ...       0.02 
freq.    1003.12  E(vib)   ...       0.02 
freq.    1006.17  E(vib)   ...       0.02 
freq.    1006.64  E(vib)   ...       0.02 
freq.    1007.11  E(vib)   ...       0.02 
freq.    1007.36  E(vib)   ...       0.02 
freq.    1345.53  E(vib)   ...       0.01 
freq.    1346.18  E(vib)   ...       0.01 
freq.    1347.22  E(vib)   ...       0.01 
freq.    1351.41  E(vib)   ...       0.01 
freq.    1353.53  E(vib)   ...       0.01 
freq.    1354.76  E(vib)   ...       0.01 
freq.    1355.57  E(vib)   ...       0.01 
freq.    1355.86  E(vib)   ...       0.01 
freq.    1356.98  E(vib)   ...       0.01 
freq.    1357.22  E(vib)   ...       0.01 
freq.    1358.11  E(vib)   ...       0.01 
freq.    1358.35  E(vib)   ...       0.01 
freq.    1362.23  E(vib)   ...       0.01 
freq.    1363.09  E(vib)   ...       0.01 
freq.    1363.48  E(vib)   ...       0.01 
freq.    1364.83  E(vib)   ...       0.01 
freq.    1365.60  E(vib)   ...       0.01 
freq.    1366.20  E(vib)   ...       0.01 
freq.    1366.89  E(vib)   ...       0.01 
freq.    1367.43  E(vib)   ...       0.01 
freq.    1367.85  E(vib)   ...       0.01 
freq.    1371.44  E(vib)   ...       0.01 
freq.    1372.22  E(vib)   ...       0.01 
freq.    1380.04  E(vib)   ...       0.01 
freq.    1540.56  E(vib)   ...       0.00 
freq.    1549.98  E(vib)   ...       0.00 
freq.    1563.11  E(vib)   ...       0.00 
freq.    1564.49  E(vib)   ...       0.00 
freq.    1569.06  E(vib)   ...       0.00 
freq.    1576.48  E(vib)   ...       0.00 
freq.    1577.97  E(vib)   ...       0.00 
freq.    1630.28  E(vib)   ...       0.00 
freq.    1632.12  E(vib)   ...       0.00 
freq.    1635.70  E(vib)   ...       0.00 
freq.    1637.79  E(vib)   ...       0.00 
freq.    1638.43  E(vib)   ...       0.00 
freq.    1828.15  E(vib)   ...       0.00 
freq.    1862.59  E(vib)   ...       0.00 
freq.    1865.39  E(vib)   ...       0.00 
freq.    1867.47  E(vib)   ...       0.00 
freq.    1883.21  E(vib)   ...       0.00 
freq.    1898.91  E(vib)   ...       0.00 
freq.    1899.98  E(vib)   ...       0.00 
freq.    1904.69  E(vib)   ...       0.00 
freq.    1909.88  E(vib)   ...       0.00 
freq.    1956.65  E(vib)   ...       0.00 
freq.    1960.22  E(vib)   ...       0.00 
freq.    1988.30  E(vib)   ...       0.00 
freq.    2884.11  E(vib)   ...       0.00 
freq.    2889.40  E(vib)   ...       0.00 
freq.    2890.53  E(vib)   ...       0.00 
freq.    2893.12  E(vib)   ...       0.00 
freq.    2893.94  E(vib)   ...       0.00 
freq.    2894.48  E(vib)   ...       0.00 
freq.    2905.13  E(vib)   ...       0.00 
freq.    2906.69  E(vib)   ...       0.00 
freq.    2907.22  E(vib)   ...       0.00 
freq.    2907.68  E(vib)   ...       0.00 
freq.    2908.01  E(vib)   ...       0.00 
freq.    2909.46  E(vib)   ...       0.00 

------------
INNER ENERGY
------------

The inner energy is: U= E(el) + E(ZPE) + E(vib) + E(rot) + E(trans)
    E(el)   - is the total energy from the electronic structure calculation
              = E(kin-el) + E(nuc-el) + E(el-el) + E(nuc-nuc)
    E(ZPE)  - the the zero temperature vibrational energy from the frequency calculation
    E(vib)  - the the finite temperature correction to E(ZPE) due to population
              of excited vibrational states
    E(rot)  - is the rotational thermal energy
    E(trans)- is the translational thermal energy

Summary of contributions to the inner energy U:
Electronic energy                ...  -3976.49870449 Eh
Zero point energy                ...      0.38933703 Eh     244.31 kcal/mol
Thermal vibrational correction   ...      0.06630436 Eh      41.61 kcal/mol
Thermal rotational correction    ...      0.00141627 Eh       0.89 kcal/mol
Thermal translational correction ...      0.00141627 Eh       0.89 kcal/mol
-----------------------------------------------------------------------
Total thermal energy                  -3976.04023057 Eh


Summary of corrections to the electronic energy:
(perhaps to be used in another calculation)
Total thermal correction                  0.06913690 Eh      43.38 kcal/mol
Non-thermal (ZPE) correction              0.38933703 Eh     244.31 kcal/mol
-----------------------------------------------------------------------
Total correction                          0.45847393 Eh     287.70 kcal/mol


--------
ENTHALPY
--------

The enthalpy is H = U + kB*T
                kB is Boltzmann's constant
Total thermal energy              ...  -3976.04023057 Eh 
Thermal Enthalpy correction       ...      0.00094421 Eh       0.59 kcal/mol
-----------------------------------------------------------------------
Total Enthalpy                    ...  -3976.03928636 Eh


Note: Only C1 symmetry has been detected, increase convergence thresholds 
      if your molecule has a higher symmetry. Symmetry factor of 1.0 is   
      used for the rotational entropy correction. 
 

Note: Rotational entropy computed according to Herzberg 
Infrared and Raman Spectra, Chapter V,1, Van Nostrand Reinhold, 1945 
Point Group:  C1, Symmetry Number:   1  
Rotational constants in cm-1:     0.001705     0.001164     0.001135 

Vibrational entropy computed according to the QRRHO of S. Grimme
Chem.Eur.J. 2012 18 9955 using a reference frequency of 100.0 cm-1


-------
ENTROPY
-------

The entropy contributions are T*S = T*(S(el)+S(vib)+S(rot)+S(trans))
     S(el)   - electronic entropy
     S(vib)  - vibrational entropy
     S(rot)  - rotational entropy
     S(trans)- translational entropy
The entropies will be listed as multiplied by the temperature to get
units of energy

Electronic entropy                ...      0.00000000 Eh      0.00 kcal/mol
Vibrational entropy               ...      0.12027432 Eh     75.47 kcal/mol
Rotational entropy                ...      0.01891079 Eh     11.87 kcal/mol
Translational entropy             ...      0.02250776 Eh     14.12 kcal/mol
-----------------------------------------------------------------------
Final entropy term                ...      0.16169287 Eh    101.46 kcal/mol

In case the symmetry of your molecule has not been determined correctly
or in case you have a reason to use a different symmetry number we print 
out the resulting rotational entropy values for sn=1,12:

 non-linear molecules -----------------------------------
|  sn= 1 | S(rot)=       0.01891079 Eh     11.87 kcal/mol|
|  sn= 2 | S(rot)=       0.01825633 Eh     11.46 kcal/mol|
|  sn= 3 | S(rot)=       0.01787350 Eh     11.22 kcal/mol|
|  sn= 4 | S(rot)=       0.01760187 Eh     11.05 kcal/mol|
|  sn= 5 | S(rot)=       0.01739119 Eh     10.91 kcal/mol|
|  sn= 6 | S(rot)=       0.01721904 Eh     10.81 kcal/mol|
|  sn= 7 | S(rot)=       0.01707350 Eh     10.71 kcal/mol|
|  sn= 8 | S(rot)=       0.01694742 Eh     10.63 kcal/mol|
|  sn= 9 | S(rot)=       0.01683621 Eh     10.56 kcal/mol|
|  sn=10 | S(rot)=       0.01673673 Eh     10.50 kcal/mol|
|  sn=11 | S(rot)=       0.01664674 Eh     10.45 kcal/mol|
|  sn=12 | S(rot)=       0.01656459 Eh     10.39 kcal/mol|
 linear molecules ---------------------------------------
|  Dinfh | S(rot)=       0.01172857 Eh      7.36 kcal/mol|
|  Cinfv | S(rot)=       0.01238303 Eh      7.77 kcal/mol|
 --------------------------------------------------------


-------------------
GIBBS FREE ENERGY
-------------------

The Gibbs free energy is G = H - T*S

Total enthalpy                    ...  -3976.03928636 Eh 
Total entropy correction          ...     -0.16169287 Eh   -101.46 kcal/mol
-----------------------------------------------------------------------
Final Gibbs free energy         ...  -3976.20097923 Eh

For completeness - the Gibbs free energy minus the electronic energy
G-E(el)                           ...      0.29772527 Eh    186.83 kcal/mol


Maximum memory used throughout the entire PROP-calculation: 151.3 MB

--------------------------------
SUGGESTED CITATIONS FOR THIS RUN
--------------------------------

Below you find a list of papers that are relevant to this ORCA run
We neither can nor want to force you to cite these papers, but we appreciate if you do
You receive ORCA, which is the product of decades of hard work by many enthusiastic individuals, for free
The only thing we kindly ask in return is that you cite our papers,
We deeply appreciate it, if you show your appreciation for ORCA by not just citing the generic ORCA reference.

Please note that relegating all ORCA citations to the supporting information does *not* help us.
SI sections are not indexed - citations you put there will not count into any citation statistics
But we need these citations in order to attract the funding resources that allow us to do what we are doing

Therefore, if you are a happy ORCA user, please consider citing a few of the papers listed below in the main body of your paper

In addition to the list printed below, the program has created the file run.bibtex that contains the list in bibtex format
You can import this file easily into all common literature databanks and citation aid programs


List of essential papers. We consider these as the minimum necessary citations

  1. Neese, F.
     Software update: the ORCA program system, version 6.0
     WIRES Comput. Molec. Sci. 2025 15(1), e70019
     doi.org/10.1002/wcms.7019

List of papers to cite with high priority. The work reported in these papers was absolutely
necessary for this run to complete.
Our perspective: the developers of density functionals and basis sets usually get cited in chemistry papers
Good! But without the algorithms to do something with them, the functionals or basis sets would not do anything.
Hence, in our opinion, the algorithm design and method developments papers are equally worthy of getting cited

  1. Neese, F.
     An improvement of the resolution of the identity approximation for the formation of the Coulomb matrix
     J. Comp. Chem. 2003 24(14), 1740-1747
     doi.org/10.1002/jcc.10318
  2. Grimme, S.; Antony, J.; Ehrlich, S.; Krieg, H.
     A consistent and accurate ab initio parametrization of density functional dispersion correction (DFT-D) for the 94 elements H-Pu
     J. Chem. Phys. 2010 132 , 154104
     doi.org/10.1063/1.3382344
  3. Grimme, S.; Ehrlich, S.; Goerigk, L.
     Effect of the damping function in dispersion corrected density functional theory
     J. Comput. Chem. 2011 32(7), 1456-1465
     doi.org/10.1002/jcc.21759
  4. Bykov, D.; Petrenko, T.; Izsak, R.; Kossmann, S.; Becker, U.; Valeev, E.; Neese, F.
     Efficient implementation of the analytic second derivatives of Hartree-Fock and hybrid DFT energies: a detailed analysis of different approximations
     Molec. Phys. 2015 113 , 1961-1977
     doi.org/10.1080/00268976.2015.1025114
  5. Helmich-Paris, B.
     A trust-region augmented Hessian implementation for restricted and unrestricted Hartree–Fock and Kohn–Sham methods
     J. Chem. Phys. 2021 154 , 164104
     doi.org/10.1063/5.0040798
  6. Neese, F.
     The SHARK Integral Generation and Digestion System
     J. Comp. Chem. 2022 44(3), 381
     doi.org/10.1002/jcc.26942

List of suggested additional citations. These are papers that are important in the 'surrounding' of 
of this run, or papers that preceded the highly important papers. If you like your results we are grateful for a citation.

  1. Neese, F.
     The ORCA program system
     WIRES Comput. Molec. Sci. 2012 2(1), 73-78
     doi.org/10.1002/wcms.81
  2. Neese, F.
     Software update: the ORCA program system, version 4.0
     WIRES Comput. Molec. Sci. 2018 8(1), 1-6
     doi.org/10.1002/wcms.1327
  3. Neese, F.; Wennmohs, F.; Becker, U.; Riplinger, C.
     The ORCA quantum chemistry program package
     J. Chem. Phys. 2020 152(22), 224108
     doi.org/10.1063/5.0004608
  4. Neese, F.
     Software update: The ORCA program system—Version 5.0
     WIRES Comput. Molec. Sci. 2022 12(1), e1606
     doi.org/10.1002/wcms.1606

List of optional additional citations

  1. Neese, F.
     Approximate second-order SCF convergence for spin unrestricted wavefunctions
     Chem. Phys. Lett. 2000 325(1-3), 93-98
     doi.org/10.1016/s0009-2614(00)00662-x

Timings for individual modules:

Sum of individual times          ...     7862.064 sec (= 131.034 min)
Startup calculation              ...      296.052 sec (=   4.934 min)   3.8 %
SCF iterations                   ...     2084.403 sec (=  34.740 min)  26.5 %
Property integrals               ...     1734.987 sec (=  28.916 min)  22.1 %
SCF Response                     ...     1465.623 sec (=  24.427 min)  18.6 %
Property calculations            ...     1508.293 sec (=  25.138 min)  19.2 %
SCF Gradient evaluation          ...      750.952 sec (=  12.516 min)   9.6 %
Geometry relaxation              ...       21.756 sec (=   0.363 min)   0.3 %
                             ****ORCA TERMINATED NORMALLY****
TOTAL RUN TIME: 0 days 2 hours 11 minutes 30 seconds 124 msec
