
                                 *****************
                                 * O   R   C   A *
                                 *****************

                                            #,                                       
                                            ###                                      
                                            ####                                     
                                            #####                                    
                                            ######                                   
                                           ########,                                 
                                     ,,################,,,,,                         
                               ,,#################################,,                 
                          ,,##########################################,,             
                       ,#########################################, ''#####,          
                    ,#############################################,,   '####,        
                  ,##################################################,,,,####,       
                ,###########''''           ''''###############################       
              ,#####''   ,,,,##########,,,,          '''####'''          '####       
            ,##' ,,,,###########################,,,                        '##       
           ' ,,###''''                  '''############,,,                           
         ,,##''                                '''############,,,,        ,,,,,,###''
      ,#''                                            '''#######################'''  
     '                                                          ''''####''''         
             ,#######,   #######,   ,#######,      ##                                
            ,#'     '#,  ##    ##  ,#'     '#,    #''#        ,####,    ,#,          
            ##       ##  ##   ,#'  ##            #'  '#       #'       ,# #          
            ##       ##  #######   ##           ,######,      #####,      #          
            '#,     ,#'  ##    ##  '#,     ,#' ,#      #,     #,   #      #          
             '#######'   ##     ##  '#######'  #'      '#     '####' #    #          



                #########################################################
                #                        -***-                          #
                #          Department of theory and spectroscopy        #
                #                                                       #
                #                      Frank Neese                      #
                #                                                       #
                #     Directorship, Architecture, Infrastructure        #
                #                    SHARK, DRIVERS                     #
                #        Core code/Algorithms in most modules           #
                #                                                       #
                #        Max Planck Institute fuer Kohlenforschung      #
                #                Kaiser Wilhelm Platz 1                 #
                #                 D-45470 Muelheim/Ruhr                 #
                #                      Germany                          #
                #                                                       #
                #                  All rights reserved                  #
                #                        -***-                          #
                #########################################################


                         Program Version 6.1.0  -  RELEASE   -
                                (GIT: $679e74b$)
                          ($2025-06-10 18:02:51 +0200$)


 With contributions from (in alphabetic order):
[Max-Planck-Institut fuer Kohlenforschung]                               
  Daniel Aravena         : Magnetic Suceptibility                        
  Michael Atanasov       : Ab Initio Ligand Field Theory (pilot matlab implementation)
  Alexander A. Auer      : GIAO ZORA, VPT2 properties, NMR spectrum      
  Ute Becker             : All parallelization in ORCA, NUMFREQ, NUMCALC 
  Giovanni Bistoni       : ED, misc. LED, open-shell LED, HFLD           
  Dmytro Bykov           : pre 5.0 version of the SCF Hessian            
  Marcos Casanova-Páez   : Triplet and SCS-CIS(D). UHF-(DLPNO)-IP/EA/STEOM-CCSD. UHF-CVS-IP/STEOM-CCSD   
  Vijay G. Chilkuri      : MRCI spin determinant printing, contributions to CSF-ICE 
  Pauline Colinet        : FMM embedding                                 
  Dipayan Datta          : RHF DLPNO-CCSD density                        
  Achintya Kumar Dutta   : EOM-CC, STEOM-CC                              
  Nicolas Foglia         : Exact transition moments, OPA infrastructure, MCD improvements    
  Dmitry Ganyushin       : Spin-Orbit,Spin-Spin,Magnetic field MRCI      
  Miquel Garcia-Rates    : C-PCM and meta-GGA Hessian, CCSD/C-PCM, Gaussian charge scheme 
  Tiago L. C. Gouveia    : GS-ROHF, GS-ROCIS                             
  Yang Guo               : DLPNO-NEVPT2, F12-NEVPT2, CIM, IAO-localization        
  Andreas Hansen         : Spin unrestricted coupled pair/coupled cluster methods 
  Ingolf Harden          : AUTO-CI MPn and infrastructure                
  Benjamin Helmich-Paris : MC-RPA, TRAH-(SCF,CASSCF), AVAS, COSX integrals, SCF dyn. polar., MC-PDFT, srDFT 
  Lee Huntington         : MR-EOM, pCC                                   
  Robert Izsak           : Overlap fitted RIJCOSX, COSX-SCS-MP3, EOM     
  Riya Kayal             : Wick's Theorem for AUTO-CI, AUTO-CI UHF-CCSDT 
  Emily Kempfer          : AUTO-CI RHF CISDT and CCSDT, approximate NEVPT4
  Christian Kollmar      : KDIIS, OOCD, Brueckner-CCSD(T), CCSD density, CASPT2, CASPT2-K, improved NEVPT2 
  Axel Koslowski         : Symmetry handling                             
  Simone Kossmann        : meta-GGA functionals, TD-DFT gradient, OOMP2, (MP2 Hessian; deprecated post 5.0) 
  Lucas Lang             : DCDCAS, Hyperfine gauge corrections, ICE-SOC+SSC
  Marvin Lechner         : AUTO-CI (C++ implementation), FIC-MRCC        
  Spencer Leger          : CASSCF response                               
  Dagmar Lenk            : GEPOL surface, SMD, ORCA-2-JSON               
  Dimitrios Liakos       : Extrapolation schemes; Compound Job, Property file
  Dimitrios Manganas     : Further ROCIS development; embedding schemes. LFT, Crystal Embedding 
  Dimitrios Pantazis     : SARC Basis sets                               
  Anastasios Papadopoulos: AUTO-CI, single reference methods and gradients 
  Taras Petrenko         : pre 6.0 DFT Hessian and TD-DFT gradient,  ECA, NRVS 
  Petra Pikulova         : Analytic Raman intensities                    
  Peter Pinski           : DLPNO-MP2, DLPNO-MP2 Gradient                 
  Shashank Vittal Rao    : ES-AILFT, MagRelax                            
  Christoph Reimann      : Effective Core Potentials                     
  Marius Retegan         : Local ZFS, SOC                                
  Christoph Riplinger    : Optimizer, TS searches, QM/MM, DLPNO-CCSD(T), (RO)-DLPNO pert. Triples 
  Michael Roemelt        : Original ROCIS implementation, recursive CI coupling coefficients
  Masaaki Saitow         : Open-shell DLPNO-CCSD energy and density      
  Barbara Sandhoefer     : DKH picture change effects                    
  Yorick L. A. Schmerwitz: GMF and freeze-and-release deltaSCF, NEB S-IDPP initial path                    
  Kantharuban Sivalingam : CASSCF convergence/infrastructure, NEVPT2, NEVPT3, NEVPT4(SD), FIC-MRCI and CEPA variants
  Bernardo de Souza      : ESD, SOC TD-DFT                               
  Georgi L. Stoychev     : AutoAux, RI-MP2 NMR, DLPNO-MP2 response, X2C  
  Van Anh Tran           : RI-MP2 g-tensors                              
  Willem Van den Heuvel  : Paramagnetic NMR                              
  Zikuan Wang            : NOTCH, Electric field optimization            
  Frank Wennmohs         : Technical directorship and infrastructure     
  Hang Xu                : AUTO-CI-Response properties                   
                                                                         
[FACCTs GmbH]                                                            
  Markus Bursch, Nicolas Foglia, Miquel Garcia-Rates, Ingolf Harden, Hagen Neugebauer, Anastasios Papadopoulos, 
  Christoph Riplinger, Bernardo de Souza, Georgi L. Stoychev                                                    
                                                                 
  APM, various basis sets, CI-OPT, improved COSX, DLPNO-Multilevel,           
  DOCKER, DRACO, updates on ESD, Fragmentator, GOAT, IRC, LR-CPCM, L-BFGS, MBIS, meta-GGA TD-DFT gradient, ML-optimized integration grids, 
  MM, NACMEs, nearIR, NEB, NEB-TS, NL-DFT gradient (VV10), 2- and 3-layer-ONIOM, interface openCOSMO-RS, QMMM,   
  Crystal-QMMM, RESP, rigid body optimization, SF, symmetry and pop. for TD-DFT, various functionals, SOLVATOR                                   
                                                                         
[Other institutions]                                                     
  V. Asgeirsson          : NEB                                           
  Christoph Bannwarth    : sTDA-DFT, sTD-DFT, PBEh-3c, B97-3c, D3        
  Giovanni Bistoni       : ETS/NOCV, ADLD/ADEX, COVALED                  
  Martin Brehm           : Molecular dynamics                            
  Ronald Cardenas        : ETS/NOCV                                      
  Martina Colucci        : COVALED                                       
  Sebastian Ehlert       : rSCAN, r2SCAN, r2SCAN-3c, D4, dhf basis sets  
  Marvin Friede          : D4 for Fr, Ra, Ac-Lr                          
  Lars Goerigk           : TD-DFT with DH, B97 family of functionals     
  Stefan Grimme          : VdW corrections, initial TS optimization, DFT functionals, gCP, sTDA/sTD-DF 
  Waldemar Hujo          : DFT-NL                                        
  H. Jonsson             : NEB                                           
  Holger Kruse           : gCP                                           
  Marcel Mueller         : wB97X-3c, vDZP basis set                      
  Hagen Neugebauer       : wr2SCAN, Native XTB                           
  Gianluca Regni         : ADLD/ADEX                                     
  Tobias Risthaus        : pre 6.0 range-separated hybrid DFT and stability analysis
  Lukas Wittmann         : regularized MP2, r2SCAN double-hybrids, wr2SCAN        
                                                                         
We gratefully acknowledge several colleagues who have allowed us to      
interface, adapt or use parts of their codes:                            
  Ed Valeev, F. Pavosevic, A. Kumar             : LibInt (2-el integral package), F12 methods 
  Garnet Chan, S. Sharma, J. Yang, R. Olivares  : DMRG                   
  Ulf Ekstrom                                   : XCFun DFT Library      
  Mihaly Kallay                                 : mrcc  (arbitrary order and MRCC methods)
  Frank Weinhold                                : gennbo (NPA and NBO analysis)           
  Simon Mueller                                 : openCOSMO-RS                            
  Christopher J. Cramer and Donald G. Truhlar   : smd solvation model                     
  S Lehtola, MJT Oliveira, MAL Marques          : LibXC Library                           
  Liviu Ungur et al                             : ANISO software                          


 Your calculation uses the libint2 library for the computation of 2-el integrals
 For citations please refer to: http://libint.valeyev.net

 Your ORCA version has been built with support for libXC version: 7.0.0
 For citations please refer to: https://libxc.gitlab.io

 This ORCA versions uses:
   CBLAS   interface :  Fast vector & matrix operations
   LAPACKE interface :  Fast linear algebra routines
   SCALAPACK package :  Parallel linear algebra routines
   Shared memory     :  Shared parallel matrices
   BLAS/LAPACK       :  OpenBLAS 0.3.29  USE64BITINT DYNAMIC_ARCH NO_AFFINITY Zen SINGLE_THREADED
        Core in use  :  Zen
   Copyright (c) 2011-2014, The OpenBLAS Project


  ***********************************
  * Starting time: Wed Jun 25 09:30:36 2025
  * Host name:     gadolinium01
  * Process ID:    2121989
  * Working dir.:  /local/scratch/mehlhorn/61311
  ***********************************



***************************************
The coordinates will be read from file: start.xyz
***************************************


Your calculation utilizes the atom-pairwise dispersion correction
with the Becke-Johnson damping scheme (D3BJ)


================================================================================

cite the ECPs for Zr [Def-ECP] as follows:
 

ECP parameters for Zr [Def-ECP] have been obtained from:
TURBOMOLE (7.0.2)

----- Orbital basis set information -----
Your calculation utilizes the basis: def-TZVP
   H-Kr: A. Schäfer, C. Huber, R. Ahlrichs; J. Chem. Phys. 100, 5829 (1994)
   Rb-At: K. Eichkorn, F. Weigend, O. Treutler, R. Ahlrichs; Theor. Chem. Acc. 97, 119 (1997)
   Rn: F. Weigend, R. Ahlrichs; Phys. Chem. Chem. Phys. 7, 3297 (2005)
   Fr-Ra: I. S. Lim, P. Schwerdtfeger, B. Metz, H. Stoll, J. Chem. Phys. 122, 104103 (2005)
   Ac-Lr: X. Cao, M. Dolg, J. Molec. Struct. Theochem. 673 (2004)
----- AuxJ basis set information -----
Your calculation utilizes the auxiliary basis: def2/J
   H-Rn: F. Weigend, Phys. Chem. Chem. Phys. 8, 1057 (2006).
   Fr-Lr: K. Eichkorn, F. Weigend, O. Treutler, R. Ahlrichs; Theor. Chem. Acc. 97, 119 (1997).

================================================================================
                                        WARNINGS
                       Please study these warnings very carefully!
================================================================================


WARNING: Geometry Optimization
  ===> : Switching off AutoStart
         For restart on a previous wavefunction, please use MOREAD

================================================================================
                                       INPUT FILE
================================================================================
NAME = run.inp
|  1> # Geometry optimization for UiO-66-dehydrox SBU
|  2> 
|  3> %pal nprocs 64 end
|  4> 
|  5> ! PBE 	# functional used for the MOF calculations later (non-expensive)
|  6> ! RKS	# closed shell for SBU
|  7> ! D3BJ  # better geometries at low cost
|  8> ! def-TZVP def-ECP def2/J  	# Ahlrichs basis set triple zeta with core potentials and auxilarry basis set for coulomb integrals
|  9> ! Freq 	# Frequency analysis to check the stabiltity of the structures
| 10> 
| 11> ! NoPop # population analysis not necessary	
| 12> 
| 13> ! RI 		# speed up calculation 
| 14> ! DEFGRID3 # dense Grid
| 15> ! TightSCF # tight SCF criteria as basis for Geom.-Opt.
| 16> ! TightOpt # tight convergence criteria for geometry optimizations
| 17> 
| 18> ! SmallPrint
| 19> 
| 20> 
| 21> * xyzFile 0 1 start.xyz # no spin
| 22> 
| 23>                          ****END OF INPUT****
================================================================================

                       *****************************
                       * Geometry Optimization Run *
                       *****************************

Geometry optimization settings:
Update method            Update   .... BFGS
Choice of coordinates    CoordSys .... (2022) Redundant Internals
Initial Hessian          InHess   .... Almloef's Model
Max. no of cycles        MaxIter  .... 180

Convergence Tolerances:
Energy Change            TolE     ....  1.0000e-06 Eh
Max. Gradient            TolMAXG  ....  1.0000e-04 Eh/bohr
RMS Gradient             TolRMSG  ....  3.0000e-05 Eh/bohr
Max. Displacement        TolMAXD  ....  1.0000e-03 bohr
RMS Displacement         TolRMSD  ....  6.0000e-04 bohr
Strict Convergence                .... False

------------------------------------------------------------------------------
                        ORCA OPTIMIZATION COORDINATE SETUP
------------------------------------------------------------------------------

The optimization will be done in redundant internal coordinates (2022)
Making redundant internal coordinates   ...  (2022 redundants) done
Evaluating the initial hessian          ...  (Almloef) done
Evaluating the coordinates              ...  done
Calculating the B-matrix                .... done
Calculating the G-matrix                .... done
The number of degrees of freedom        ....  894

    -----------------------------------------------------------------
                    Redundant Internal Coordinates


    -----------------------------------------------------------------
         Definition                    Initial Value    Approx d2E/dq
    -----------------------------------------------------------------
      1. B(Zr  2,Zr  1)                  3.4550         0.032462   
      2. B(Zr  3,Zr  0)                  3.4550         0.032462   
      3. B(Zr  4,Zr  3)                  3.4544         0.032531   
      4. B(Zr  4,Zr  1)                  3.4537         0.032620   
      5. B(Zr  5,Zr  0)                  3.4537         0.032620   
      6. B(Zr  5,Zr  2)                  3.4544         0.032531   
      7. B(O   6,Zr  0)                  2.2089         0.279594   
      8. B(O   6,Zr  3)                  2.0814         0.446600   
      9. B(O   6,Zr  5)                  2.0646         0.475002   
     10. B(O   7,Zr  4)                  2.0646         0.475002   
     11. B(O   7,Zr  1)                  2.2089         0.279594   
     12. B(O   7,Zr  2)                  2.0814         0.446600   
     13. B(O   8,Zr  5)                  2.0790         0.450545   
     14. B(O   8,Zr  2)                  2.2071         0.281415   
     15. B(O   8,Zr  1)                  2.0622         0.479303   
     16. B(O   9,Zr  4)                  2.0790         0.450544   
     17. B(O   9,Zr  3)                  2.2071         0.281415   
     18. B(O   9,Zr  0)                  2.0622         0.479303   
     19. B(O  10,Zr  3)                  2.0653         0.473832   
     20. B(O  10,Zr  4)                  2.2078         0.280735   
     21. B(O  10,Zr  1)                  2.0807         0.447668   
     22. B(O  11,Zr  5)                  2.2078         0.280735   
     23. B(O  11,Zr  2)                  2.0653         0.473832   
     24. B(O  11,Zr  0)                  2.0807         0.447668   
     25. B(O  12,Zr  0)                  2.2121         0.276322   
     26. B(O  13,Zr  0)                  2.2200         0.268441   
     27. B(O  14,Zr  0)                  2.2201         0.268330   
     28. B(O  15,Zr  0)                  2.2592         0.232435   
     29. B(O  16,Zr  1)                  2.2592         0.232435   
     30. B(O  17,Zr  1)                  2.2201         0.268330   
     31. B(O  18,Zr  1)                  2.2200         0.268441   
     32. B(O  19,Zr  1)                  2.2121         0.276322   
     33. B(O  20,Zr  2)                  2.2188         0.269602   
     34. B(O  21,Zr  2)                  2.2611         0.230756   
     35. B(O  22,Zr  2)                  2.2087         0.279803   
     36. B(O  23,Zr  2)                  2.2211         0.267273   
     37. B(O  24,Zr  3)                  2.2211         0.267273   
     38. B(O  25,Zr  3)                  2.2087         0.279803   
     39. B(O  26,Zr  3)                  2.2611         0.230756   
     40. B(O  27,Zr  3)                  2.2188         0.269602   
     41. B(O  28,Zr  4)                  2.2102         0.278219   
     42. B(O  29,Zr  4)                  2.2246         0.263941   
     43. B(O  30,Zr  4)                  2.2170         0.271378   
     44. B(O  31,Zr  4)                  2.2568         0.234442   
     45. B(O  32,Zr  5)                  2.2568         0.234442   
     46. B(O  33,Zr  5)                  2.2170         0.271378   
     47. B(O  34,Zr  5)                  2.2246         0.263941   
     48. B(O  35,Zr  5)                  2.2102         0.278218   
     49. B(C  36,O  33)                  1.2640         0.888846   
     50. B(C  36,O  12)                  1.2671         0.879020   
     51. B(C  37,O  25)                  1.2672         0.878736   
     52. B(C  37,O  13)                  1.2637         0.890091   
     53. B(C  38,O  21)                  1.2597         0.903258   
     54. B(C  38,O  14)                  1.2737         0.858021   
     55. B(C  39,O  29)                  1.2730         0.860040   
     56. B(C  39,O  15)                  1.2604         0.900945   
     57. B(C  40,O  34)                  1.2730         0.860040   
     58. B(C  40,O  16)                  1.2604         0.900945   
     59. B(C  41,O  26)                  1.2597         0.903258   
     60. B(C  41,O  17)                  1.2737         0.858021   
     61. B(C  42,O  22)                  1.2672         0.878736   
     62. B(C  42,O  18)                  1.2637         0.890091   
     63. B(C  43,O  19)                  1.2671         0.879020   
     64. B(C  43,O  30)                  1.2640         0.888846   
     65. B(C  44,O  35)                  1.2672         0.878667   
     66. B(C  44,O  20)                  1.2638         0.889651   
     67. B(C  45,O  31)                  1.2599         0.902463   
     68. B(C  45,O  23)                  1.2732         0.859545   
     69. B(C  46,O  32)                  1.2599         0.902463   
     70. B(C  46,O  24)                  1.2732         0.859545   
     71. B(C  47,O  28)                  1.2672         0.878667   
     72. B(C  47,O  27)                  1.2638         0.889651   
     73. B(H  48,C  41)                  1.1203         0.322141   
     74. B(H  49,C  42)                  1.1192         0.323517   
     75. B(H  50,C  38)                  1.1203         0.322141   
     76. B(H  51,C  37)                  1.1192         0.323517   
     77. B(H  52,C  43)                  1.1192         0.323518   
     78. B(H  53,C  47)                  1.1192         0.323525   
     79. B(H  54,C  39)                  1.1204         0.322019   
     80. B(H  55,C  45)                  1.1203         0.322194   
     81. B(H  56,C  40)                  1.1204         0.322019   
     82. B(H  57,C  46)                  1.1203         0.322194   
     83. B(H  58,C  36)                  1.1192         0.323518   
     84. B(H  59,C  44)                  1.1192         0.323525   
     85. A(O  13,Zr  0,O  14)          129.3667         0.400405   
     86. A(O  12,Zr  0,O  13)           76.1677         0.402480   
     87. A(O  12,Zr  0,O  15)          121.6571         0.392426   
     88. A(Zr  5,Zr  0,O  11)           37.6256         0.331934   
     89. A(Zr  3,Zr  0,Zr  5)           65.2445         0.239173   
     90. A(Zr  3,Zr  0,O  14)          152.4321         0.305122   
     91. A(Zr  5,Zr  0,O  15)          163.4207         0.298440   
     92. A(O  13,Zr  0,O  15)           78.9126         0.390446   
     93. A(O   6,Zr  0,O  13)           82.0036         0.403316   
     94. A(O   9,Zr  0,O  11)           98.9926         0.487676   
     95. A(Zr  3,Zr  0,O  11)           91.6936         0.331667   
     96. A(O   6,Zr  0,O  15)          140.7427         0.393236   
     97. A(O   9,Zr  0,O  14)          120.1850         0.444065   
     98. A(O  14,Zr  0,O  15)           70.6134         0.390417   
     99. A(Zr  5,Zr  0,O  13)          110.4313         0.305380   
    100. A(O  11,Zr  0,O  12)           83.9669         0.440950   
    101. A(Zr  5,Zr  0,O  14)          109.9749         0.305360   
    102. A(Zr  5,Zr  0,O  12)           74.6057         0.306802   
    103. A(O  11,Zr  0,O  15)          134.1843         0.427439   
    104. A(Zr  5,Zr  0,O   9)           91.3622         0.335717   
    105. A(O   6,Zr  0,O  11)           70.2376         0.441889   
    106. A(O   6,Zr  0,O  14)          144.4002         0.403287   
    107. A(Zr  3,Zr  0,O  13)           74.2382         0.305142   
    108. A(Zr  3,Zr  0,O  15)          106.1344         0.298210   
    109. A(O   9,Zr  0,O  15)           74.9579         0.432710   
    110. A(O  12,Zr  0,O  14)           86.5065         0.402451   
    111. A(Zr  3,Zr  0,O   6)           35.1240         0.307143   
    112. A(O   9,Zr  0,O  12)          153.0622         0.446432   
    113. A(O  11,Zr  0,O  13)          146.8852         0.438653   
    114. A(Zr  5,Zr  0,O   6)           34.6960         0.307383   
    115. A(Zr  3,Zr  0,O   9)           37.4117         0.335446   
    116. A(O  11,Zr  0,O  14)           74.4028         0.438620   
    117. A(O   6,Zr  0,O   9)           70.3301         0.447385   
    118. A(O   6,Zr  0,O  12)           85.8603         0.405382   
    119. A(O   9,Zr  0,O  13)           87.8703         0.444098   
    120. A(Zr  3,Zr  0,O  12)          116.1319         0.306562   
    121. A(Zr  4,Zr  1,O  19)           74.6057         0.306802   
    122. A(O   8,Zr  1,O  16)           74.9579         0.432710   
    123. A(O   7,Zr  1,O  18)           82.0036         0.403316   
    124. A(O  17,Zr  1,O  19)           86.5065         0.402451   
    125. A(O  16,Zr  1,O  17)           70.6134         0.390417   
    126. A(Zr  4,Zr  1,O  16)          163.4207         0.298440   
    127. A(Zr  4,Zr  1,O  10)           37.6256         0.331934   
    128. A(O   7,Zr  1,O  10)           70.2376         0.441889   
    129. A(O   8,Zr  1,O  10)           98.9926         0.487676   
    130. A(Zr  2,Zr  1,O   8)           37.4117         0.335446   
    131. A(Zr  4,Zr  1,O  18)          110.4313         0.305380   
    132. A(O  10,Zr  1,O  16)          134.1843         0.427439   
    133. A(O   7,Zr  1,O  17)          144.4002         0.403287   
    134. A(Zr  2,Zr  1,O  16)          106.1344         0.298210   
    135. A(O  10,Zr  1,O  17)           74.4028         0.438620   
    136. A(Zr  4,Zr  1,O  17)          109.9750         0.305360   
    137. A(O   8,Zr  1,O  18)           87.8703         0.444098   
    138. A(Zr  2,Zr  1,O  10)           91.6936         0.331667   
    139. A(O  17,Zr  1,O  18)          129.3667         0.400405   
    140. A(Zr  2,Zr  1,O  19)          116.1319         0.306562   
    141. A(O  10,Zr  1,O  18)          146.8852         0.438653   
    142. A(O  16,Zr  1,O  18)           78.9126         0.390446   
    143. A(O   7,Zr  1,O  19)           85.8603         0.405382   
    144. A(Zr  4,Zr  1,O   7)           34.6960         0.307383   
    145. A(O   8,Zr  1,O  17)          120.1850         0.444065   
    146. A(Zr  2,Zr  1,O  18)           74.2382         0.305142   
    147. A(Zr  4,Zr  1,O   8)           91.3622         0.335717   
    148. A(Zr  2,Zr  1,Zr  4)           65.2445         0.239173   
    149. A(O  18,Zr  1,O  19)           76.1677         0.402480   
    150. A(Zr  2,Zr  1,O   7)           35.1240         0.307143   
    151. A(O   7,Zr  1,O  16)          140.7427         0.393236   
    152. A(Zr  2,Zr  1,O  17)          152.4321         0.305122   
    153. A(O  10,Zr  1,O  19)           83.9669         0.440950   
    154. A(O   7,Zr  1,O   8)           70.3301         0.447385   
    155. A(O   8,Zr  1,O  19)          153.0622         0.446432   
    156. A(O  16,Zr  1,O  19)          121.6571         0.392426   
    157. A(O   8,Zr  2,O  20)           82.2357         0.404086   
    158. A(Zr  1,Zr  2,O  20)          110.2884         0.305353   
    159. A(Zr  5,Zr  2,O  11)           37.4729         0.334926   
    160. A(Zr  5,Zr  2,O   8)           35.0572         0.307569   
    161. A(O   7,Zr  2,O  23)           74.4404         0.438119   
    162. A(O  21,Zr  2,O  23)           70.4325         0.389654   
    163. A(O  22,Zr  2,O  23)           86.5168         0.403059   
    164. A(Zr  1,Zr  2,O   8)           34.5857         0.307463   
    165. A(O  11,Zr  2,O  23)          120.3820         0.442827   
    166. A(O   8,Zr  2,O  22)           86.0970         0.406746   
    167. A(O  11,Zr  2,O  22)          152.9367         0.446516   
    168. A(Zr  1,Zr  2,Zr  5)           65.3644         0.239080   
    169. A(Zr  1,Zr  2,O  21)          163.5766         0.297867   
    170. A(O   7,Zr  2,O   8)           70.0267         0.442217   
    171. A(O  20,Zr  2,O  23)          129.3238         0.400430   
    172. A(O   8,Zr  2,O  23)          144.2623         0.403468   
    173. A(Zr  5,Zr  2,O   7)           91.8284         0.331653   
    174. A(O   8,Zr  2,O  21)          140.8748         0.393183   
    175. A(Zr  5,Zr  2,O  23)          152.5552         0.305033   
    176. A(Zr  1,Zr  2,O  23)          110.0070         0.304929   
    177. A(O  21,Zr  2,O  22)          121.5594         0.392788   
    178. A(Zr  5,Zr  2,O  20)           74.1713         0.305458   
    179. A(Zr  5,Zr  2,O  22)          116.0825         0.307285   
    180. A(O   7,Zr  2,O  21)          134.1501         0.426701   
    181. A(Zr  1,Zr  2,O  22)           74.5193         0.307180   
    182. A(Zr  1,Zr  2,O  11)           91.8800         0.334807   
    183. A(O   7,Zr  2,O  11)           99.6472         0.486426   
    184. A(Zr  5,Zr  2,O  21)          106.2475         0.297968   
    185. A(O   8,Zr  2,O  11)           70.3440         0.446981   
    186. A(O  20,Zr  2,O  21)           79.1197         0.390245   
    187. A(O  11,Zr  2,O  20)           87.4661         0.443523   
    188. A(O   7,Zr  2,O  20)          146.7194         0.438805   
    189. A(Zr  1,Zr  2,O   7)           37.6320         0.331536   
    190. A(O  20,Zr  2,O  22)           75.9927         0.403677   
    191. A(O  11,Zr  2,O  21)           74.7307         0.431256   
    192. A(O   7,Zr  2,O  22)           83.9147         0.441758   
    193. A(O   6,Zr  3,O  10)           99.6472         0.486426   
    194. A(O   9,Zr  3,O  10)           70.3440         0.446981   
    195. A(Zr  4,Zr  3,O  10)           37.4729         0.334926   
    196. A(O  24,Zr  3,O  25)           86.5168         0.403059   
    197. A(O  26,Zr  3,O  27)           79.1197         0.390245   
    198. A(O   9,Zr  3,O  25)           86.0970         0.406746   
    199. A(Zr  0,Zr  3,O  27)          110.2884         0.305353   
    200. A(O  24,Zr  3,O  26)           70.4325         0.389654   
    201. A(O  25,Zr  3,O  27)           75.9927         0.403677   
    202. A(O  24,Zr  3,O  27)          129.3238         0.400430   
    203. A(O   9,Zr  3,O  27)           82.2357         0.404086   
    204. A(O   6,Zr  3,O  27)          146.7194         0.438805   
    205. A(Zr  4,Zr  3,O  27)           74.1713         0.305458   
    206. A(O  10,Zr  3,O  27)           87.4661         0.443523   
    207. A(O   9,Zr  3,O  26)          140.8748         0.393183   
    208. A(O  25,Zr  3,O  26)          121.5594         0.392788   
    209. A(O  10,Zr  3,O  26)           74.7307         0.431256   
    210. A(Zr  4,Zr  3,O   6)           91.8284         0.331653   
    211. A(O   6,Zr  3,O  26)          134.1501         0.426701   
    212. A(Zr  4,Zr  3,O  26)          106.2475         0.297968   
    213. A(Zr  0,Zr  3,O  26)          163.5766         0.297867   
    214. A(O   6,Zr  3,O   9)           70.0267         0.442217   
    215. A(O  10,Zr  3,O  25)          152.9367         0.446516   
    216. A(O   6,Zr  3,O  25)           83.9147         0.441758   
    217. A(Zr  4,Zr  3,O   9)           35.0572         0.307569   
    218. A(Zr  4,Zr  3,O  25)          116.0825         0.307285   
    219. A(Zr  0,Zr  3,O  25)           74.5193         0.307180   
    220. A(O  10,Zr  3,O  24)          120.3820         0.442827   
    221. A(O   9,Zr  3,O  24)          144.2623         0.403468   
    222. A(Zr  0,Zr  3,O   9)           34.5857         0.307463   
    223. A(O   6,Zr  3,O  24)           74.4404         0.438119   
    224. A(Zr  4,Zr  3,O  24)          152.5552         0.305033   
    225. A(Zr  0,Zr  3,O  24)          110.0070         0.304929   
    226. A(Zr  0,Zr  3,O  10)           91.8800         0.334807   
    227. A(Zr  0,Zr  3,O   6)           37.6320         0.331536   
    228. A(Zr  0,Zr  3,Zr  4)           65.3644         0.239080   
    229. A(Zr  1,Zr  4,Zr  3)           65.1080         0.239245   
    230. A(O   9,Zr  4,O  10)           70.0888         0.442727   
    231. A(O   7,Zr  4,O  10)           70.5454         0.446985   
    232. A(Zr  3,Zr  4,O  10)           34.6890         0.307449   
    233. A(O  10,Zr  4,O  28)           85.7101         0.406164   
    234. A(O   9,Zr  4,O  29)           74.3514         0.437823   
    235. A(O  28,Zr  4,O  30)           76.5640         0.403740   
    236. A(O  30,Zr  4,O  31)           79.3894         0.391777   
    237. A(O  29,Zr  4,O  31)           70.5638         0.389879   
    238. A(O   7,Zr  4,O  31)           75.0592         0.432677   
    239. A(O  28,Zr  4,O  31)          121.7760         0.393488   
    240. A(O  10,Zr  4,O  31)          141.3591         0.394110   
    241. A(O   9,Zr  4,O  31)          133.2831         0.428590   
    242. A(Zr  3,Zr  4,O  31)          163.1249         0.298719   
    243. A(Zr  1,Zr  4,O  31)          106.7110         0.298848   
    244. A(O  29,Zr  4,O  30)          129.3010         0.400009   
    245. A(O  10,Zr  4,O  30)           82.0046         0.404382   
    246. A(O   9,Zr  4,O  30)          147.2787         0.440023   
    247. A(O   7,Zr  4,O  30)           87.4681         0.444248   
    248. A(Zr  3,Zr  4,O  30)          110.6437         0.305780   
    249. A(Zr  1,Zr  4,O  30)           74.2021         0.305913   
    250. A(O  28,Zr  4,O  29)           85.6555         0.401767   
    251. A(O  10,Zr  4,O  29)          144.0275         0.402405   
    252. A(O   7,Zr  4,O  29)          121.0005         0.442021   
    253. A(Zr  3,Zr  4,O  29)          109.5174         0.304421   
    254. A(Zr  1,Zr  4,O  29)          152.9556         0.304554   
    255. A(O   9,Zr  4,O  28)           84.4392         0.442007   
    256. A(O   7,Zr  4,O  28)          153.0973         0.446256   
    257. A(Zr  3,Zr  4,O  28)           74.6024         0.307005   
    258. A(O   7,Zr  4,O   9)           98.5755         0.487440   
    259. A(Zr  1,Zr  4,O  28)          116.1019         0.307139   
    260. A(Zr  3,Zr  4,O   9)           37.5742         0.332136   
    261. A(Zr  1,Zr  4,O   9)           91.1519         0.332286   
    262. A(Zr  3,Zr  4,O   7)           91.4688         0.335063   
    263. A(Zr  1,Zr  4,O   7)           37.5170         0.335215   
    264. A(Zr  1,Zr  4,O  10)           35.1259         0.307584   
    265. A(O  11,Zr  5,O  35)           85.7101         0.406164   
    266. A(O  34,Zr  5,O  35)           85.6555         0.401767   
    267. A(O  33,Zr  5,O  35)           76.5640         0.403740   
    268. A(O  32,Zr  5,O  35)          121.7760         0.393488   
    269. A(O   8,Zr  5,O  35)           84.4392         0.442007   
    270. A(O   6,Zr  5,O  35)          153.0973         0.446256   
    271. A(Zr  2,Zr  5,O  35)           74.6024         0.307005   
    272. A(O  33,Zr  5,O  34)          129.3010         0.400009   
    273. A(O  32,Zr  5,O  34)           70.5638         0.389879   
    274. A(O  11,Zr  5,O  34)          144.0275         0.402405   
    275. A(Zr  0,Zr  5,O  35)          116.1019         0.307139   
    276. A(O  32,Zr  5,O  33)           79.3894         0.391777   
    277. A(O   6,Zr  5,O  34)          121.0005         0.442021   
    278. A(Zr  2,Zr  5,O  34)          109.5174         0.304421   
    279. A(Zr  0,Zr  5,O  34)          152.9556         0.304554   
    280. A(O  11,Zr  5,O  33)           82.0046         0.404382   
    281. A(O   8,Zr  5,O  33)          147.2787         0.440023   
    282. A(O   6,Zr  5,O  33)           87.4681         0.444248   
    283. A(Zr  0,Zr  5,O  33)           74.2021         0.305913   
    284. A(O  11,Zr  5,O  32)          141.3591         0.394110   
    285. A(O   8,Zr  5,O  32)          133.2831         0.428590   
    286. A(O   6,Zr  5,O  32)           75.0592         0.432677   
    287. A(Zr  2,Zr  5,O  32)          163.1249         0.298719   
    288. A(Zr  0,Zr  5,O  32)          106.7110         0.298848   
    289. A(Zr  2,Zr  5,O   6)           91.4688         0.335063   
    290. A(Zr  0,Zr  5,O   6)           37.5170         0.335215   
    291. A(Zr  0,Zr  5,Zr  2)           65.1080         0.239245   
    292. A(O   8,Zr  5,O  34)           74.3514         0.437823   
    293. A(O   8,Zr  5,O  11)           70.0888         0.442727   
    294. A(O   6,Zr  5,O  11)           70.5454         0.446985   
    295. A(Zr  2,Zr  5,O  11)           34.6890         0.307449   
    296. A(Zr  0,Zr  5,O  11)           35.1259         0.307584   
    297. A(O   6,Zr  5,O   8)           98.5755         0.487440   
    298. A(Zr  2,Zr  5,O  33)          110.6437         0.305780   
    299. A(Zr  2,Zr  5,O   8)           37.5742         0.332136   
    300. A(Zr  0,Zr  5,O   8)           91.1519         0.332286   
    301. A(Zr  3,O   6,Zr  5)          127.8779         0.486648   
    302. A(Zr  0,O   6,Zr  5)          107.7870         0.446655   
    303. A(Zr  0,O   6,Zr  3)          107.2440         0.441698   
    304. A(Zr  2,O   7,Zr  4)          127.8779         0.486648   
    305. A(Zr  1,O   7,Zr  4)          107.7870         0.446655   
    306. A(Zr  1,O   7,Zr  2)          107.2440         0.441698   
    307. A(Zr  1,O   8,Zr  2)          108.0026         0.447912   
    308. A(Zr  2,O   8,Zr  5)          107.3686         0.442921   
    309. A(Zr  1,O   8,Zr  5)          128.5651         0.488254   
    310. A(Zr  3,O   9,Zr  4)          107.3686         0.442921   
    311. A(Zr  0,O   9,Zr  4)          128.5651         0.488254   
    312. A(Zr  0,O   9,Zr  3)          108.0026         0.447912   
    313. A(Zr  3,O  10,Zr  4)          107.8381         0.446785   
    314. A(Zr  1,O  10,Zr  4)          107.2485         0.442215   
    315. A(Zr  1,O  10,Zr  3)          127.4226         0.486641   
    316. A(Zr  2,O  11,Zr  5)          107.8381         0.446785   
    317. A(Zr  0,O  11,Zr  5)          107.2485         0.442215   
    318. A(Zr  0,O  11,Zr  2)          127.4226         0.486641   
    319. A(Zr  0,O  12,C  36)          131.8831         0.443164   
    320. A(Zr  0,O  13,C  37)          132.1478         0.441850   
    321. A(Zr  0,O  14,C  38)          136.4442         0.438899   
    322. A(Zr  0,O  15,C  39)          128.3599         0.431472   
    323. A(Zr  1,O  16,C  40)          128.3599         0.431472   
    324. A(Zr  1,O  17,C  41)          136.4442         0.438899   
    325. A(Zr  1,O  18,C  42)          132.1478         0.441850   
    326. A(Zr  1,O  19,C  43)          131.8831         0.443164   
    327. A(Zr  2,O  20,C  44)          132.3080         0.442155   
    328. A(Zr  2,O  21,C  38)          127.8198         0.431109   
    329. A(Zr  2,O  22,C  42)          132.1388         0.444143   
    330. A(Zr  2,O  23,C  45)          136.7473         0.438727   
    331. A(Zr  3,O  24,C  46)          136.7473         0.438727   
    332. A(Zr  3,O  25,C  37)          132.1388         0.444143   
    333. A(Zr  3,O  26,C  41)          127.8198         0.431109   
    334. A(Zr  3,O  27,C  47)          132.3080         0.442155   
    335. A(Zr  4,O  28,C  47)          131.9499         0.443680   
    336. A(Zr  4,O  29,C  39)          136.6851         0.437781   
    337. A(Zr  4,O  30,C  43)          132.3662         0.442608   
    338. A(Zr  4,O  31,C  45)          128.1003         0.432270   
    339. A(Zr  5,O  32,C  46)          128.1003         0.432270   
    340. A(Zr  5,O  33,C  36)          132.3662         0.442608   
    341. A(Zr  5,O  34,C  40)          136.6851         0.437781   
    342. A(Zr  5,O  35,C  44)          131.9499         0.443680   
    343. A(O  12,C  36,O  33)          126.8497         0.487517   
    344. A(O  33,C  36,H  58)          116.6246         0.366168   
    345. A(O  12,C  36,H  58)          116.5256         0.365471   
    346. A(O  13,C  37,O  25)          126.8412         0.487614   
    347. A(O  25,C  37,H  51)          116.4850         0.365451   
    348. A(O  13,C  37,H  51)          116.6738         0.366255   
    349. A(O  14,C  38,O  21)          127.3020         0.486788   
    350. A(O  21,C  38,H  50)          116.6613         0.366910   
    351. A(O  14,C  38,H  50)          116.0305         0.363697   
    352. A(O  15,C  39,O  29)          127.4131         0.486768   
    353. A(O  29,C  39,H  54)          116.0385         0.363820   
    354. A(O  15,C  39,H  54)          116.5421         0.366725   
    355. A(O  16,C  40,O  34)          127.4131         0.486768   
    356. A(O  34,C  40,H  56)          116.0385         0.363820   
    357. A(O  16,C  40,H  56)          116.5421         0.366725   
    358. A(O  17,C  41,O  26)          127.3020         0.486788   
    359. A(O  26,C  41,H  48)          116.6613         0.366910   
    360. A(O  17,C  41,H  48)          116.0305         0.363697   
    361. A(O  18,C  42,O  22)          126.8412         0.487614   
    362. A(O  22,C  42,H  49)          116.4850         0.365451   
    363. A(O  18,C  42,H  49)          116.6738         0.366255   
    364. A(O  30,C  43,H  52)          116.6246         0.366168   
    365. A(O  19,C  43,H  52)          116.5256         0.365471   
    366. A(O  19,C  43,O  30)          126.8497         0.487517   
    367. A(O  35,C  44,H  59)          116.5137         0.365447   
    368. A(O  20,C  44,H  59)          116.6385         0.366226   
    369. A(O  20,C  44,O  35)          126.8479         0.487562   
    370. A(O  31,C  45,H  55)          116.6285         0.366865   
    371. A(O  23,C  45,H  55)          116.0589         0.363817   
    372. A(O  23,C  45,O  31)          127.3058         0.486868   
    373. A(O  32,C  46,H  57)          116.6285         0.366865   
    374. A(O  24,C  46,H  57)          116.0589         0.363817   
    375. A(O  24,C  46,O  32)          127.3058         0.486868   
    376. A(O  28,C  47,H  53)          116.5137         0.365447   
    377. A(O  27,C  47,H  53)          116.6385         0.366226   
    378. A(O  27,C  47,O  28)          126.8479         0.487562   
    379. D(O   7,Zr  2,Zr  1,O  10)    -50.9522         0.010000   
    380. D(Zr  5,Zr  2,Zr  1,O  19)    163.8722         0.010000   
    381. D(O   8,Zr  2,Zr  1,Zr  4)    130.2374         0.010000   
    382. D(O   7,Zr  2,Zr  1,O  19)     33.1580         0.010000   
    383. D(O   7,Zr  2,Zr  1,Zr  4)    -23.3495         0.010000   
    384. D(O   7,Zr  2,Zr  1,O  16)    171.7899         0.010000   
    385. D(Zr  5,Zr  2,Zr  1,O   8)    -22.8727         0.010000   
    386. D(Zr  5,Zr  2,Zr  1,Zr  4)    107.3647         0.010000   
    387. D(O   7,Zr  2,Zr  1,O  17)   -109.3115         0.010000   
    388. D(Zr  5,Zr  2,Zr  1,O  17)     21.4027         0.010000   
    389. D(O   7,Zr  2,Zr  1,O   8)   -153.5869         0.010000   
    390. D(Zr  5,Zr  2,Zr  1,O   7)    130.7142         0.010000   
    391. D(Zr  5,Zr  2,Zr  1,O  10)     79.7620         0.010000   
    392. D(O   7,Zr  2,Zr  1,O  18)     98.6277         0.010000   
    393. D(Zr  5,Zr  2,Zr  1,O  16)    -57.4959         0.010000   
    394. D(Zr  5,Zr  2,Zr  1,O  18)   -130.6581         0.010000   
    395. D(O   6,Zr  3,Zr  0,O  11)     50.9522         0.010000   
    396. D(O   6,Zr  3,Zr  0,O  13)    -98.6277         0.010000   
    397. D(O   6,Zr  3,Zr  0,Zr  5)     23.3495         0.010000   
    398. D(O   6,Zr  3,Zr  0,O  12)    -33.1580         0.010000   
    399. D(O   6,Zr  3,Zr  0,O   9)    153.5869         0.010000   
    400. D(O   9,Zr  3,Zr  0,Zr  5)   -130.2374         0.010000   
    401. D(Zr  4,Zr  3,Zr  0,O   6)   -130.7142         0.010000   
    402. D(Zr  4,Zr  3,Zr  0,O  11)    -79.7620         0.010000   
    403. D(Zr  4,Zr  3,Zr  0,Zr  5)   -107.3647         0.010000   
    404. D(Zr  4,Zr  3,Zr  0,O   9)     22.8727         0.010000   
    405. D(Zr  4,Zr  3,Zr  0,O  15)     57.4959         0.010000   
    406. D(Zr  4,Zr  3,Zr  0,O  13)    130.6581         0.010000   
    407. D(O   6,Zr  3,Zr  0,O  15)   -171.7899         0.010000   
    408. D(O   6,Zr  3,Zr  0,O  14)    109.3115         0.010000   
    409. D(Zr  4,Zr  3,Zr  0,O  12)   -163.8722         0.010000   
    410. D(Zr  4,Zr  3,Zr  0,O  14)    -21.4027         0.010000   
    411. D(O   7,Zr  4,Zr  3,O   6)     52.0253         0.010000   
    412. D(Zr  1,Zr  4,Zr  3,Zr  0)    107.1615         0.010000   
    413. D(O   7,Zr  4,Zr  3,O   9)    102.1977         0.010000   
    414. D(O   7,Zr  4,Zr  1,O  17)    174.1964         0.010000   
    415. D(Zr  3,Zr  4,Zr  1,O  18)   -167.5766         0.010000   
    416. D(Zr  1,Zr  4,Zr  3,O  27)   -131.0680         0.010000   
    417. D(Zr  1,Zr  4,Zr  3,O  10)    -23.9519         0.010000   
    418. D(O   7,Zr  4,Zr  3,O  24)     -6.5867         0.010000   
    419. D(Zr  1,Zr  4,Zr  3,O  25)    163.6968         0.010000   
    420. D(O   7,Zr  4,Zr  3,O  26)    -85.2978         0.010000   
    421. D(Zr  1,Zr  4,Zr  3,O  24)     20.9658         0.010000   
    422. D(O   9,Zr  4,Zr  1,Zr  2)    -79.0174         0.010000   
    423. D(O   7,Zr  4,Zr  3,O  10)    -51.5044         0.010000   
    424. D(Zr  3,Zr  4,Zr  1,O  16)    -45.4327         0.010000   
    425. D(O   7,Zr  4,Zr  1,O  16)     85.1651         0.010000   
    426. D(O   7,Zr  4,Zr  1,O  19)   -105.4360         0.010000   
    427. D(Zr  1,Zr  4,Zr  3,O  26)    -57.7453         0.010000   
    428. D(Zr  3,Zr  4,Zr  1,O  10)     23.6756         0.010000   
    429. D(O   7,Zr  4,Zr  1,O  10)    154.2734         0.010000   
    430. D(Zr  1,Zr  4,Zr  3,O   6)     79.5778         0.010000   
    431. D(O   7,Zr  4,Zr  3,O  25)    136.1443         0.010000   
    432. D(O   7,Zr  4,Zr  3,Zr  0)     79.6090         0.010000   
    433. D(O   7,Zr  4,Zr  1,O  18)    -36.9788         0.010000   
    434. D(Zr  3,Zr  4,Zr  1,Zr  2)   -106.9819         0.010000   
    435. D(Zr  3,Zr  4,Zr  1,O  17)     43.5986         0.010000   
    436. D(Zr  3,Zr  4,Zr  1,O  19)    123.9661         0.010000   
    437. D(O   7,Zr  4,Zr  1,O   8)     51.2557         0.010000   
    438. D(O   7,Zr  4,Zr  1,Zr  2)     23.6159         0.010000   
    439. D(Zr  3,Zr  4,Zr  1,O   8)    -79.3422         0.010000   
    440. D(Zr  1,Zr  4,Zr  3,O   9)    129.7502         0.010000   
    441. D(O   7,Zr  4,Zr  3,O  27)   -158.6205         0.010000   
    442. D(Zr  3,Zr  4,Zr  1,O   7)   -130.5978         0.010000   
    443. D(O   6,Zr  5,Zr  2,O  23)      6.5867         0.010000   
    444. D(O   6,Zr  5,Zr  2,O  22)   -136.1443         0.010000   
    445. D(O   6,Zr  5,Zr  2,O  20)    158.6205         0.010000   
    446. D(Zr  0,Zr  5,Zr  2,O  23)    -20.9658         0.010000   
    447. D(Zr  0,Zr  5,Zr  2,O  20)    131.0680         0.010000   
    448. D(Zr  0,Zr  5,Zr  2,O  22)   -163.6968         0.010000   
    449. D(O   6,Zr  5,Zr  2,Zr  1)    -79.6090         0.010000   
    450. D(O   6,Zr  5,Zr  2,O   7)    -52.0253         0.010000   
    451. D(O   6,Zr  5,Zr  2,O   8)   -102.1977         0.010000   
    452. D(Zr  0,Zr  5,Zr  2,O   7)    -79.5778         0.010000   
    453. D(O   8,Zr  5,Zr  0,Zr  3)     79.0174         0.010000   
    454. D(O   6,Zr  5,Zr  2,O  11)     51.5044         0.010000   
    455. D(O   6,Zr  5,Zr  0,O  12)    105.4360         0.010000   
    456. D(O   6,Zr  5,Zr  0,O  14)   -174.1964         0.010000   
    457. D(Zr  2,Zr  5,Zr  0,O   9)     79.3422         0.010000   
    458. D(Zr  2,Zr  5,Zr  0,O  15)     45.4327         0.010000   
    459. D(Zr  0,Zr  5,Zr  2,O   8)   -129.7502         0.010000   
    460. D(Zr  2,Zr  5,Zr  0,O  14)    -43.5986         0.010000   
    461. D(Zr  0,Zr  5,Zr  2,O  11)     23.9519         0.010000   
    462. D(Zr  0,Zr  5,Zr  2,O  21)     57.7453         0.010000   
    463. D(O   6,Zr  5,Zr  0,O   9)    -51.2557         0.010000   
    464. D(O   6,Zr  5,Zr  2,O  21)     85.2978         0.010000   
    465. D(O   6,Zr  5,Zr  0,Zr  3)    -23.6159         0.010000   
    466. D(Zr  2,Zr  5,Zr  0,O  12)   -123.9661         0.010000   
    467. D(Zr  0,Zr  5,Zr  2,Zr  1)   -107.1615         0.010000   
    468. D(Zr  2,Zr  5,Zr  0,Zr  3)    106.9819         0.010000   
    469. D(O   6,Zr  5,Zr  0,O  11)   -154.2734         0.010000   
    470. D(Zr  2,Zr  5,Zr  0,O  11)    -23.6756         0.010000   
    471. D(Zr  2,Zr  5,Zr  0,O   6)    130.5978         0.010000   
    472. D(O   6,Zr  5,Zr  0,O  13)     36.9788         0.010000   
    473. D(Zr  2,Zr  5,Zr  0,O  13)    167.5766         0.010000   
    474. D(O   6,Zr  5,Zr  0,O  15)    -85.1652         0.010000   
    475. D(Zr  3,O   6,Zr  5,O   8)     49.4705         0.010000   
    476. D(Zr  3,O   6,Zr  5,Zr  2)     86.5383         0.010000   
    477. D(Zr  3,O   6,Zr  5,Zr  0)    130.0882         0.010000   
    478. D(Zr  0,O   6,Zr  5,O  32)    146.7433         0.010000   
    479. D(Zr  0,O   6,Zr  3,O   9)     15.5850         0.010000   
    480. D(Zr  5,O   6,Zr  3,O   9)   -114.7060         0.010000   
    481. D(Zr  0,O   6,Zr  5,Zr  2)    -43.5499         0.010000   
    482. D(Zr  0,O   6,Zr  5,O   8)    -80.6177         0.010000   
    483. D(Zr  5,O   6,Zr  3,Zr  0)   -130.2911         0.010000   
    484. D(Zr  0,O   6,Zr  3,O  26)    158.4828         0.010000   
    485. D(Zr  0,O   6,Zr  5,O  35)     14.0069         0.010000   
    486. D(Zr  0,O   6,Zr  3,O  25)    -72.4616         0.010000   
    487. D(Zr  0,O   6,Zr  3,O  24)   -160.5281         0.010000   
    488. D(Zr  0,O   6,Zr  3,O  27)    -19.7630         0.010000   
    489. D(Zr  0,O   6,Zr  5,O  34)   -157.4600         0.010000   
    490. D(Zr  5,O   6,Zr  0,Zr  3)    140.7804         0.010000   
    491. D(Zr  5,O   6,Zr  3,Zr  4)    -86.7139         0.010000   
    492. D(Zr  0,O   6,Zr  5,O  11)    -15.3598         0.010000   
    493. D(Zr  3,O   6,Zr  0,O  14)   -131.3844         0.010000   
    494. D(Zr  3,O   6,Zr  0,O  15)     12.5199         0.010000   
    495. D(Zr  3,O   6,Zr  0,O  13)     73.9149         0.010000   
    496. D(Zr  3,O   6,Zr  0,O  12)    150.5064         0.010000   
    497. D(Zr  5,O   6,Zr  0,O  11)     16.3550         0.010000   
    498. D(Zr  3,O   6,Zr  0,O  11)   -124.4254         0.010000   
    499. D(Zr  5,O   6,Zr  0,O   9)    124.1017         0.010000   
    500. D(Zr  3,O   6,Zr  0,Zr  5)   -140.7804         0.010000   
    501. D(Zr  0,O   6,Zr  5,O  33)     67.0526         0.010000   
    502. D(Zr  3,O   6,Zr  0,O   9)    -16.6787         0.010000   
    503. D(Zr  0,O   6,Zr  3,O  10)     80.4462         0.010000   
    504. D(Zr  0,O   6,Zr  3,Zr  4)     43.5772         0.010000   
    505. D(Zr  2,O   7,Zr  1,Zr  4)    140.7804         0.010000   
    506. D(Zr  2,O   7,Zr  4,O   9)    -49.4705         0.010000   
    507. D(Zr  2,O   7,Zr  4,Zr  1)   -130.0882         0.010000   
    508. D(Zr  1,O   7,Zr  4,O  31)   -146.7433         0.010000   
    509. D(Zr  1,O   7,Zr  4,O  30)    -67.0526         0.010000   
    510. D(Zr  1,O   7,Zr  4,O  28)    -14.0069         0.010000   
    511. D(Zr  1,O   7,Zr  4,O  10)     15.3598         0.010000   
    512. D(Zr  1,O   7,Zr  4,O   9)     80.6177         0.010000   
    513. D(Zr  1,O   7,Zr  4,Zr  3)     43.5499         0.010000   
    514. D(Zr  4,O   7,Zr  2,O   8)    114.7060         0.010000   
    515. D(Zr  4,O   7,Zr  2,Zr  5)     86.7139         0.010000   
    516. D(Zr  4,O   7,Zr  2,Zr  1)    130.2911         0.010000   
    517. D(Zr  1,O   7,Zr  2,O  23)    160.5281         0.010000   
    518. D(Zr  1,O   7,Zr  2,O  22)     72.4616         0.010000   
    519. D(Zr  1,O   7,Zr  2,O  21)   -158.4828         0.010000   
    520. D(Zr  1,O   7,Zr  2,O  20)     19.7630         0.010000   
    521. D(Zr  1,O   7,Zr  2,O  11)    -80.4462         0.010000   
    522. D(Zr  1,O   7,Zr  2,O   8)    -15.5850         0.010000   
    523. D(Zr  4,O   7,Zr  1,O  10)    -16.3550         0.010000   
    524. D(Zr  4,O   7,Zr  1,Zr  2)   -140.7804         0.010000   
    525. D(Zr  2,O   7,Zr  1,O  19)   -150.5064         0.010000   
    526. D(Zr  2,O   7,Zr  1,O  18)    -73.9149         0.010000   
    527. D(Zr  4,O   7,Zr  1,O   8)   -124.1017         0.010000   
    528. D(Zr  1,O   7,Zr  4,O  29)    157.4600         0.010000   
    529. D(Zr  2,O   7,Zr  1,O  17)    131.3843         0.010000   
    530. D(Zr  2,O   7,Zr  1,O  16)    -12.5200         0.010000   
    531. D(Zr  2,O   7,Zr  1,O  10)    124.4254         0.010000   
    532. D(Zr  2,O   7,Zr  4,Zr  3)    -86.5383         0.010000   
    533. D(Zr  2,O   7,Zr  1,O   8)     16.6787         0.010000   
    534. D(Zr  1,O   7,Zr  2,Zr  5)    -43.5772         0.010000   
    535. D(Zr  2,O   8,Zr  5,O   6)     81.1709         0.010000   
    536. D(Zr  2,O   8,Zr  5,Zr  0)     44.2313         0.010000   
    537. D(Zr  1,O   8,Zr  5,O  35)    156.5464         0.010000   
    538. D(Zr  1,O   8,Zr  5,O  33)   -149.1448         0.010000   
    539. D(Zr  1,O   8,Zr  5,O  32)     27.1187         0.010000   
    540. D(Zr  1,O   8,Zr  5,O  11)   -116.0139         0.010000   
    541. D(Zr  1,O   8,Zr  5,O   6)    -50.3986         0.010000   
    542. D(Zr  1,O   8,Zr  5,Zr  2)   -131.5695         0.010000   
    543. D(Zr  1,O   8,Zr  5,Zr  0)    -87.3382         0.010000   
    544. D(Zr  5,O   8,Zr  2,O  11)    -16.6316         0.010000   
    545. D(Zr  5,O   8,Zr  2,Zr  1)   -142.0413         0.010000   
    546. D(Zr  1,O   8,Zr  2,O  23)     10.3785         0.010000   
    547. D(Zr  1,O   8,Zr  2,O  22)    -68.1386         0.010000   
    548. D(Zr  1,O   8,Zr  2,O  21)    153.4890         0.010000   
    549. D(Zr  1,O   8,Zr  2,O  20)   -144.5146         0.010000   
    550. D(Zr  1,O   8,Zr  2,O  11)    125.4097         0.010000   
    551. D(Zr  1,O   8,Zr  2,O   7)     16.7979         0.010000   
    552. D(Zr  5,O   8,Zr  2,O   7)   -125.2434         0.010000   
    553. D(Zr  1,O   8,Zr  2,Zr  5)    142.0413         0.010000   
    554. D(Zr  5,O   8,Zr  1,O   7)    115.5694         0.010000   
    555. D(Zr  5,O   8,Zr  1,Zr  4)     87.4393         0.010000   
    556. D(Zr  5,O   8,Zr  1,Zr  2)    131.3407         0.010000   
    557. D(Zr  2,O   8,Zr  1,O  19)     13.4594         0.010000   
    558. D(Zr  2,O   8,Zr  1,O  18)     66.4967         0.010000   
    559. D(Zr  2,O   8,Zr  1,O  17)   -158.0521         0.010000   
    560. D(Zr  1,O   8,Zr  5,O  34)     69.5139         0.010000   
    561. D(Zr  2,O   8,Zr  1,O  16)    145.5864         0.010000   
    562. D(Zr  2,O   8,Zr  1,O  10)    -80.9298         0.010000   
    563. D(Zr  2,O   8,Zr  1,O   7)    -15.7713         0.010000   
    564. D(Zr  2,O   8,Zr  1,Zr  4)    -43.9013         0.010000   
    565. D(Zr  3,O   9,Zr  4,O   7)    -81.1709         0.010000   
    566. D(Zr  0,O   9,Zr  4,O  31)    -27.1187         0.010000   
    567. D(Zr  0,O   9,Zr  4,O  30)    149.1448         0.010000   
    568. D(Zr  0,O   9,Zr  4,O  29)    -69.5139         0.010000   
    569. D(Zr  0,O   9,Zr  4,O  28)   -156.5464         0.010000   
    570. D(Zr  0,O   9,Zr  4,O  10)    116.0139         0.010000   
    571. D(Zr  0,O   9,Zr  4,O   7)     50.3986         0.010000   
    572. D(Zr  0,O   9,Zr  4,Zr  3)    131.5695         0.010000   
    573. D(Zr  4,O   9,Zr  3,O  10)     16.6316         0.010000   
    574. D(Zr  4,O   9,Zr  3,O   6)    125.2434         0.010000   
    575. D(Zr  4,O   9,Zr  3,Zr  0)    142.0413         0.010000   
    576. D(Zr  0,O   9,Zr  3,O  27)    144.5146         0.010000   
    577. D(Zr  0,O   9,Zr  3,O  26)   -153.4890         0.010000   
    578. D(Zr  0,O   9,Zr  3,O  25)     68.1386         0.010000   
    579. D(Zr  0,O   9,Zr  3,O  24)    -10.3785         0.010000   
    580. D(Zr  0,O   9,Zr  3,O  10)   -125.4097         0.010000   
    581. D(Zr  0,O   9,Zr  3,O   6)    -16.7979         0.010000   
    582. D(Zr  0,O   9,Zr  3,Zr  4)   -142.0413         0.010000   
    583. D(Zr  4,O   9,Zr  0,O   6)   -115.5694         0.010000   
    584. D(Zr  0,O   9,Zr  4,Zr  1)     87.3382         0.010000   
    585. D(Zr  4,O   9,Zr  0,Zr  5)    -87.4393         0.010000   
    586. D(Zr  4,O   9,Zr  0,Zr  3)   -131.3407         0.010000   
    587. D(Zr  3,O   9,Zr  0,O  15)   -145.5864         0.010000   
    588. D(Zr  3,O   9,Zr  0,O  14)    158.0521         0.010000   
    589. D(Zr  3,O   9,Zr  0,O  13)    -66.4967         0.010000   
    590. D(Zr  3,O   9,Zr  0,O  12)    -13.4594         0.010000   
    591. D(Zr  3,O   9,Zr  0,O  11)     80.9298         0.010000   
    592. D(Zr  3,O   9,Zr  4,Zr  1)    -44.2313         0.010000   
    593. D(Zr  3,O   9,Zr  0,O   6)     15.7713         0.010000   
    594. D(Zr  3,O   9,Zr  0,Zr  5)     43.9013         0.010000   
    595. D(Zr  3,O  10,Zr  4,O   9)     16.6985         0.010000   
    596. D(Zr  3,O  10,Zr  4,O   7)    123.9245         0.010000   
    597. D(Zr  3,O  10,Zr  4,Zr  1)    140.2061         0.010000   
    598. D(Zr  1,O  10,Zr  4,O  31)     12.1099         0.010000   
    599. D(Zr  1,O  10,Zr  4,O  30)     73.8504         0.010000   
    600. D(Zr  1,O  10,Zr  4,O  29)   -132.5934         0.010000   
    601. D(Zr  1,O  10,Zr  4,O  28)    150.8615         0.010000   
    602. D(Zr  1,O  10,Zr  4,O   7)    -16.2816         0.010000   
    603. D(Zr  1,O  10,Zr  4,Zr  3)   -140.2061         0.010000   
    604. D(Zr  4,O  10,Zr  3,O   6)    -80.2965         0.010000   
    605. D(Zr  1,O  10,Zr  3,O  27)   -163.3430         0.010000   
    606. D(Zr  1,O  10,Zr  3,O  26)    -83.9327         0.010000   
    607. D(Zr  1,O  10,Zr  3,O  25)    144.9099         0.010000   
    608. D(Zr  1,O  10,Zr  3,O  24)    -28.1606         0.010000   
    609. D(Zr  1,O  10,Zr  3,O   9)    113.9990         0.010000   
    610. D(Zr  1,O  10,Zr  3,O   6)     49.3801         0.010000   
    611. D(Zr  1,O  10,Zr  3,Zr  4)    129.6767         0.010000   
    612. D(Zr  4,O  10,Zr  3,Zr  0)    -43.2515         0.010000   
    613. D(Zr  1,O  10,Zr  3,Zr  0)     86.4252         0.010000   
    614. D(Zr  4,O  10,Zr  1,O   7)     15.2214         0.010000   
    615. D(Zr  4,O  10,Zr  1,Zr  2)     43.5672         0.010000   
    616. D(Zr  1,O  10,Zr  4,O   9)   -123.5076         0.010000   
    617. D(Zr  3,O  10,Zr  1,O  19)    157.5653         0.010000   
    618. D(Zr  3,O  10,Zr  1,O  18)   -149.4547         0.010000   
    619. D(Zr  3,O  10,Zr  1,O  17)     69.5202         0.010000   
    620. D(Zr  3,O  10,Zr  1,O  16)     28.2759         0.010000   
    621. D(Zr  3,O  10,Zr  1,O   8)    -49.4488         0.010000   
    622. D(Zr  3,O  10,Zr  1,O   7)   -114.6791         0.010000   
    623. D(Zr  3,O  10,Zr  1,Zr  4)   -129.9005         0.010000   
    624. D(Zr  3,O  10,Zr  1,Zr  2)    -86.3333         0.010000   
    625. D(Zr  2,O  11,Zr  0,O  15)    -28.2759         0.010000   
    626. D(Zr  2,O  11,Zr  0,O  14)    -69.5202         0.010000   
    627. D(Zr  2,O  11,Zr  0,O  13)    149.4547         0.010000   
    628. D(Zr  2,O  11,Zr  0,O  12)   -157.5653         0.010000   
    629. D(Zr  2,O  11,Zr  0,O   9)     49.4488         0.010000   
    630. D(Zr  2,O  11,Zr  0,O   6)    114.6791         0.010000   
    631. D(Zr  2,O  11,Zr  0,Zr  5)    129.9005         0.010000   
    632. D(Zr  5,O  11,Zr  0,Zr  3)    -43.5672         0.010000   
    633. D(Zr  2,O  11,Zr  0,Zr  3)     86.3333         0.010000   
    634. D(Zr  2,O  11,Zr  5,O   8)    -16.6985         0.010000   
    635. D(Zr  2,O  11,Zr  5,O   6)   -123.9245         0.010000   
    636. D(Zr  2,O  11,Zr  5,Zr  0)   -140.2061         0.010000   
    637. D(Zr  0,O  11,Zr  5,O  35)   -150.8615         0.010000   
    638. D(Zr  0,O  11,Zr  5,O  34)    132.5934         0.010000   
    639. D(Zr  0,O  11,Zr  5,O  32)    -12.1099         0.010000   
    640. D(Zr  0,O  11,Zr  5,O   8)    123.5076         0.010000   
    641. D(Zr  0,O  11,Zr  5,O   6)     16.2816         0.010000   
    642. D(Zr  0,O  11,Zr  5,Zr  2)    140.2061         0.010000   
    643. D(Zr  5,O  11,Zr  2,O   7)     80.2965         0.010000   
    644. D(Zr  5,O  11,Zr  2,Zr  1)     43.2515         0.010000   
    645. D(Zr  0,O  11,Zr  2,O  23)     28.1606         0.010000   
    646. D(Zr  0,O  11,Zr  2,O  22)   -144.9099         0.010000   
    647. D(Zr  0,O  11,Zr  2,O  21)     83.9327         0.010000   
    648. D(Zr  0,O  11,Zr  5,O  33)    -73.8504         0.010000   
    649. D(Zr  0,O  11,Zr  2,O  20)    163.3430         0.010000   
    650. D(Zr  0,O  11,Zr  2,O   8)   -113.9990         0.010000   
    651. D(Zr  0,O  11,Zr  2,O   7)    -49.3801         0.010000   
    652. D(Zr  0,O  11,Zr  2,Zr  5)   -129.6767         0.010000   
    653. D(Zr  0,O  11,Zr  2,Zr  1)    -86.4252         0.010000   
    654. D(Zr  5,O  11,Zr  0,O   6)    -15.2214         0.010000   
    655. D(C  36,O  12,Zr  0,O  15)   -173.2244         0.010000   
    656. D(C  36,O  12,Zr  0,O  14)   -108.5863         0.010000   
    657. D(C  36,O  12,Zr  0,O  13)    119.3873         0.010000   
    658. D(C  36,O  12,Zr  0,O  11)    -33.9189         0.010000   
    659. D(C  36,O  12,Zr  0,O   9)     64.0693         0.010000   
    660. D(C  36,O  12,Zr  0,O   6)     36.6154         0.010000   
    661. D(C  36,O  12,Zr  0,Zr  5)      3.2398         0.010000   
    662. D(C  36,O  12,Zr  0,Zr  3)     55.0070         0.010000   
    663. D(C  37,O  13,Zr  0,O  15)    109.2141         0.010000   
    664. D(C  37,O  13,Zr  0,O  14)    162.4655         0.010000   
    665. D(C  37,O  13,Zr  0,O  12)   -123.9847         0.010000   
    666. D(C  37,O  13,Zr  0,O  11)    -69.1278         0.010000   
    667. D(C  37,O  13,Zr  0,O   9)     34.1276         0.010000   
    668. D(C  37,O  13,Zr  0,O   6)    -36.3050         0.010000   
    669. D(C  37,O  13,Zr  0,Zr  5)    -56.5332         0.010000   
    670. D(C  37,O  13,Zr  0,Zr  3)     -1.2458         0.010000   
    671. D(C  38,O  14,Zr  0,O  15)   -154.0279         0.010000   
    672. D(C  38,O  14,Zr  0,O  13)    149.5042         0.010000   
    673. D(C  38,O  14,Zr  0,O  12)     80.5989         0.010000   
    674. D(C  38,O  14,Zr  0,O  11)     -4.1061         0.010000   
    675. D(C  38,O  14,Zr  0,O   9)    -95.5596         0.010000   
    676. D(C  38,O  14,Zr  0,O   6)      2.6926         0.010000   
    677. D(C  38,O  14,Zr  0,Zr  5)      8.3672         0.010000   
    678. D(C  38,O  14,Zr  0,Zr  3)    -66.1758         0.010000   
    679. D(C  39,O  15,Zr  0,O  14)     95.5808         0.010000   
    680. D(C  39,O  15,Zr  0,O  13)   -125.4676         0.010000   
    681. D(C  39,O  15,Zr  0,O  12)    168.5516         0.010000   
    682. D(C  39,O  15,Zr  0,O  11)     53.2692         0.010000   
    683. D(C  39,O  15,Zr  0,O   9)    -34.6970         0.010000   
    684. D(C  39,O  15,Zr  0,O   6)    -63.1001         0.010000   
    685. D(C  39,O  15,Zr  0,Zr  5)      0.5788         0.010000   
    686. D(C  39,O  15,Zr  0,Zr  3)    -55.6399         0.010000   
    687. D(C  40,O  16,Zr  1,O  19)   -168.5516         0.010000   
    688. D(C  40,O  16,Zr  1,O  18)    125.4677         0.010000   
    689. D(C  40,O  16,Zr  1,O  17)    -95.5808         0.010000   
    690. D(C  40,O  16,Zr  1,O  10)    -53.2692         0.010000   
    691. D(C  40,O  16,Zr  1,O   8)     34.6970         0.010000   
    692. D(C  40,O  16,Zr  1,O   7)     63.1001         0.010000   
    693. D(C  40,O  16,Zr  1,Zr  4)     -0.5788         0.010000   
    694. D(C  40,O  16,Zr  1,Zr  2)     55.6399         0.010000   
    695. D(C  41,O  17,Zr  1,O  19)    -80.5989         0.010000   
    696. D(C  41,O  17,Zr  1,O  18)   -149.5042         0.010000   
    697. D(C  41,O  17,Zr  1,O  16)    154.0279         0.010000   
    698. D(C  41,O  17,Zr  1,O  10)      4.1062         0.010000   
    699. D(C  41,O  17,Zr  1,O   8)     95.5596         0.010000   
    700. D(C  41,O  17,Zr  1,O   7)     -2.6926         0.010000   
    701. D(C  41,O  17,Zr  1,Zr  4)     -8.3672         0.010000   
    702. D(C  41,O  17,Zr  1,Zr  2)     66.1758         0.010000   
    703. D(C  42,O  18,Zr  1,O  19)    123.9847         0.010000   
    704. D(C  42,O  18,Zr  1,O  17)   -162.4655         0.010000   
    705. D(C  42,O  18,Zr  1,O  16)   -109.2141         0.010000   
    706. D(C  42,O  18,Zr  1,O  10)     69.1278         0.010000   
    707. D(C  42,O  18,Zr  1,O   8)    -34.1276         0.010000   
    708. D(C  42,O  18,Zr  1,O   7)     36.3050         0.010000   
    709. D(C  42,O  18,Zr  1,Zr  4)     56.5332         0.010000   
    710. D(C  42,O  18,Zr  1,Zr  2)      1.2458         0.010000   
    711. D(C  43,O  19,Zr  1,O  18)   -119.3873         0.010000   
    712. D(C  43,O  19,Zr  1,O  17)    108.5863         0.010000   
    713. D(C  43,O  19,Zr  1,O  16)    173.2245         0.010000   
    714. D(C  43,O  19,Zr  1,O  10)     33.9189         0.010000   
    715. D(C  43,O  19,Zr  1,O   8)    -64.0692         0.010000   
    716. D(C  43,O  19,Zr  1,O   7)    -36.6154         0.010000   
    717. D(C  43,O  19,Zr  1,Zr  4)     -3.2398         0.010000   
    718. D(C  43,O  19,Zr  1,Zr  2)    -55.0070         0.010000   
    719. D(C  44,O  20,Zr  2,O  23)    161.7898         0.010000   
    720. D(C  44,O  20,Zr  2,O  22)   -124.7871         0.010000   
    721. D(C  44,O  20,Zr  2,O  21)    108.5401         0.010000   
    722. D(C  44,O  20,Zr  2,O  11)     33.6061         0.010000   
    723. D(C  44,O  20,Zr  2,O   8)    -36.8953         0.010000   
    724. D(C  44,O  20,Zr  2,O   7)    -70.1783         0.010000   
    725. D(C  44,O  20,Zr  2,Zr  5)     -1.9859         0.010000   
    726. D(C  44,O  20,Zr  2,Zr  1)    -57.4626         0.010000   
    727. D(C  38,O  21,Zr  2,O  23)     94.7270         0.010000   
    728. D(C  38,O  21,Zr  2,O  22)    167.6297         0.010000   
    729. D(C  38,O  21,Zr  2,O  20)   -126.4068         0.010000   
    730. D(C  38,O  21,Zr  2,O  11)    -36.0742         0.010000   
    731. D(C  38,O  21,Zr  2,O   8)    -63.4281         0.010000   
    732. D(C  38,O  21,Zr  2,O   7)     52.6131         0.010000   
    733. D(C  38,O  21,Zr  2,Zr  5)    -56.6085         0.010000   
    734. D(C  38,O  21,Zr  2,Zr  1)      0.2311         0.010000   
    735. D(C  42,O  22,Zr  2,O  23)   -108.2640         0.010000   
    736. D(C  42,O  22,Zr  2,O  21)   -172.7226         0.010000   
    737. D(C  42,O  22,Zr  2,O  20)    119.7063         0.010000   
    738. D(C  42,O  22,Zr  2,O  11)     65.7508         0.010000   
    739. D(C  42,O  22,Zr  2,O   8)     36.7452         0.010000   
    740. D(C  42,O  22,Zr  2,O   7)    -33.5580         0.010000   
    741. D(C  42,O  22,Zr  2,Zr  5)     55.4988         0.010000   
    742. D(C  42,O  22,Zr  2,Zr  1)      3.6077         0.010000   
    743. D(C  45,O  23,Zr  2,O  22)     81.1410         0.010000   
    744. D(C  45,O  23,Zr  2,O  21)   -153.5402         0.010000   
    745. D(C  45,O  23,Zr  2,O  20)    149.8361         0.010000   
    746. D(C  45,O  23,Zr  2,O  11)    -95.7065         0.010000   
    747. D(C  45,O  23,Zr  2,O   8)      2.7565         0.010000   
    748. D(C  45,O  23,Zr  2,O   7)     -3.5056         0.010000   
    749. D(C  45,O  23,Zr  2,Zr  5)    -65.8414         0.010000   
    750. D(C  45,O  23,Zr  2,Zr  1)      9.0042         0.010000   
    751. D(C  46,O  24,Zr  3,O  27)   -149.8361         0.010000   
    752. D(C  46,O  24,Zr  3,O  26)    153.5402         0.010000   
    753. D(C  46,O  24,Zr  3,O  25)    -81.1411         0.010000   
    754. D(C  46,O  24,Zr  3,O  10)     95.7065         0.010000   
    755. D(C  46,O  24,Zr  3,O   9)     -2.7565         0.010000   
    756. D(C  46,O  24,Zr  3,O   6)      3.5056         0.010000   
    757. D(C  46,O  24,Zr  3,Zr  4)     65.8414         0.010000   
    758. D(C  46,O  24,Zr  3,Zr  0)     -9.0043         0.010000   
    759. D(C  37,O  25,Zr  3,O  27)   -119.7063         0.010000   
    760. D(C  37,O  25,Zr  3,O  26)    172.7226         0.010000   
    761. D(C  37,O  25,Zr  3,O  24)    108.2640         0.010000   
    762. D(C  37,O  25,Zr  3,O  10)    -65.7507         0.010000   
    763. D(C  37,O  25,Zr  3,O   9)    -36.7452         0.010000   
    764. D(C  37,O  25,Zr  3,O   6)     33.5580         0.010000   
    765. D(C  37,O  25,Zr  3,Zr  4)    -55.4988         0.010000   
    766. D(C  37,O  25,Zr  3,Zr  0)     -3.6077         0.010000   
    767. D(C  41,O  26,Zr  3,O  27)    126.4068         0.010000   
    768. D(C  41,O  26,Zr  3,O  25)   -167.6297         0.010000   
    769. D(C  41,O  26,Zr  3,O  24)    -94.7270         0.010000   
    770. D(C  41,O  26,Zr  3,O  10)     36.0742         0.010000   
    771. D(C  41,O  26,Zr  3,O   9)     63.4281         0.010000   
    772. D(C  41,O  26,Zr  3,O   6)    -52.6130         0.010000   
    773. D(C  41,O  26,Zr  3,Zr  4)     56.6085         0.010000   
    774. D(C  41,O  26,Zr  3,Zr  0)     -0.2311         0.010000   
    775. D(C  47,O  27,Zr  3,O  26)   -108.5401         0.010000   
    776. D(C  47,O  27,Zr  3,O  25)    124.7871         0.010000   
    777. D(C  47,O  27,Zr  3,O  24)   -161.7898         0.010000   
    778. D(C  47,O  27,Zr  3,O  10)    -33.6061         0.010000   
    779. D(C  47,O  27,Zr  3,O   9)     36.8953         0.010000   
    780. D(C  47,O  27,Zr  3,O   6)     70.1783         0.010000   
    781. D(C  47,O  27,Zr  3,Zr  4)      1.9859         0.010000   
    782. D(C  47,O  27,Zr  3,Zr  0)     57.4626         0.010000   
    783. D(C  47,O  28,Zr  4,O  31)   -171.9148         0.010000   
    784. D(C  47,O  28,Zr  4,O  30)    119.8426         0.010000   
    785. D(C  47,O  28,Zr  4,O  29)   -107.9942         0.010000   
    786. D(C  47,O  28,Zr  4,O  10)     37.0516         0.010000   
    787. D(C  47,O  28,Zr  4,O   9)    -33.3253         0.010000   
    788. D(C  47,O  28,Zr  4,O   7)     64.6776         0.010000   
    789. D(C  47,O  28,Zr  4,Zr  3)      3.6261         0.010000   
    790. D(C  47,O  28,Zr  4,Zr  1)     55.2302         0.010000   
    791. D(C  39,O  29,Zr  4,O  31)   -151.7688         0.010000   
    792. D(C  39,O  29,Zr  4,O  30)    150.9937         0.010000   
    793. D(C  39,O  29,Zr  4,O  28)     82.2981         0.010000   
    794. D(C  39,O  29,Zr  4,O  10)      5.7357         0.010000   
    795. D(C  39,O  29,Zr  4,O   9)     -3.1340         0.010000   
    796. D(C  39,O  29,Zr  4,O   7)    -93.8411         0.010000   
    797. D(C  39,O  29,Zr  4,Zr  3)     10.3238         0.010000   
    798. D(C  39,O  29,Zr  4,Zr  1)    -62.9486         0.010000   
    799. D(C  43,O  30,Zr  4,O  31)    109.5410         0.010000   
    800. D(C  43,O  30,Zr  4,O  29)    163.3248         0.010000   
    801. D(C  43,O  30,Zr  4,O  28)   -123.9042         0.010000   
    802. D(C  43,O  30,Zr  4,O  10)    -36.4323         0.010000   
    803. D(C  43,O  30,Zr  4,O   9)    -67.6925         0.010000   
    804. D(C  43,O  30,Zr  4,O   7)     34.2718         0.010000   
    805. D(C  43,O  30,Zr  4,Zr  3)    -56.3447         0.010000   
    806. D(C  43,O  30,Zr  4,Zr  1)     -1.3771         0.010000   
    807. D(C  45,O  31,Zr  4,O  30)   -125.6165         0.010000   
    808. D(C  45,O  31,Zr  4,O  29)     95.8398         0.010000   
    809. D(C  45,O  31,Zr  4,O  28)    167.5951         0.010000   
    810. D(C  45,O  31,Zr  4,O  10)    -63.0652         0.010000   
    811. D(C  45,O  31,Zr  4,O   9)     52.3296         0.010000   
    812. D(C  45,O  31,Zr  4,O   7)    -35.4175         0.010000   
    813. D(C  45,O  31,Zr  4,Zr  3)      2.5593         0.010000   
    814. D(C  45,O  31,Zr  4,Zr  1)    -55.8250         0.010000   
    815. D(C  46,O  32,Zr  5,O  35)   -167.5951         0.010000   
    816. D(C  46,O  32,Zr  5,O  34)    -95.8398         0.010000   
    817. D(C  46,O  32,Zr  5,O  33)    125.6165         0.010000   
    818. D(C  46,O  32,Zr  5,O  11)     63.0652         0.010000   
    819. D(C  46,O  32,Zr  5,O   8)    -52.3296         0.010000   
    820. D(C  46,O  32,Zr  5,O   6)     35.4175         0.010000   
    821. D(C  46,O  32,Zr  5,Zr  2)     -2.5593         0.010000   
    822. D(C  46,O  32,Zr  5,Zr  0)     55.8250         0.010000   
    823. D(C  36,O  33,Zr  5,O  35)    123.9042         0.010000   
    824. D(C  36,O  33,Zr  5,O  34)   -163.3248         0.010000   
    825. D(C  36,O  33,Zr  5,O  32)   -109.5410         0.010000   
    826. D(C  36,O  33,Zr  5,O  11)     36.4323         0.010000   
    827. D(C  36,O  33,Zr  5,O   8)     67.6925         0.010000   
    828. D(C  36,O  33,Zr  5,O   6)    -34.2718         0.010000   
    829. D(C  36,O  33,Zr  5,Zr  2)     56.3447         0.010000   
    830. D(C  36,O  33,Zr  5,Zr  0)      1.3771         0.010000   
    831. D(C  40,O  34,Zr  5,O  35)    -82.2981         0.010000   
    832. D(C  40,O  34,Zr  5,O  33)   -150.9937         0.010000   
    833. D(C  40,O  34,Zr  5,O  32)    151.7688         0.010000   
    834. D(C  40,O  34,Zr  5,O  11)     -5.7357         0.010000   
    835. D(C  40,O  34,Zr  5,O   8)      3.1340         0.010000   
    836. D(C  40,O  34,Zr  5,O   6)     93.8411         0.010000   
    837. D(C  40,O  34,Zr  5,Zr  2)    -10.3238         0.010000   
    838. D(C  40,O  34,Zr  5,Zr  0)     62.9486         0.010000   
    839. D(C  44,O  35,Zr  5,O  34)    107.9942         0.010000   
    840. D(C  44,O  35,Zr  5,O  33)   -119.8426         0.010000   
    841. D(C  44,O  35,Zr  5,O  32)    171.9148         0.010000   
    842. D(C  44,O  35,Zr  5,O  11)    -37.0516         0.010000   
    843. D(C  44,O  35,Zr  5,O   8)     33.3253         0.010000   
    844. D(C  44,O  35,Zr  5,O   6)    -64.6776         0.010000   
    845. D(C  44,O  35,Zr  5,Zr  2)     -3.6261         0.010000   
    846. D(C  44,O  35,Zr  5,Zr  0)    -55.2302         0.010000   
    847. D(H  58,C  36,O  33,Zr  5)   -179.6216         0.062548   
    848. D(O  12,C  36,O  33,Zr  5)      0.4242         0.062548   
    849. D(H  58,C  36,O  12,Zr  0)    176.4453         0.060990   
    850. D(O  33,C  36,O  12,Zr  0)     -3.6005         0.060990   
    851. D(H  51,C  37,O  25,Zr  3)   -175.8211         0.060945   
    852. D(O  13,C  37,O  25,Zr  3)      4.2114         0.060945   
    853. D(H  51,C  37,O  13,Zr  0)    179.1681         0.062747   
    854. D(O  25,C  37,O  13,Zr  0)     -0.8644         0.062747   
    855. D(H  50,C  38,O  21,Zr  2)    173.6233         0.064878   
    856. D(O  14,C  38,O  21,Zr  2)     -7.3260         0.064878   
    857. D(H  50,C  38,O  14,Zr  0)   -143.5013         0.057740   
    858. D(O  21,C  38,O  14,Zr  0)     37.4429         0.057740   
    859. D(H  54,C  39,O  29,Zr  4)   -145.1034         0.058048   
    860. D(O  15,C  39,O  29,Zr  4)     35.8478         0.058048   
    861. D(H  54,C  39,O  15,Zr  0)    173.4958         0.064501   
    862. D(O  29,C  39,O  15,Zr  0)     -7.4596         0.064501   
    863. D(H  56,C  40,O  34,Zr  5)    145.1034         0.058048   
    864. D(O  16,C  40,O  34,Zr  5)    -35.8479         0.058048   
    865. D(H  56,C  40,O  16,Zr  1)   -173.4958         0.064501   
    866. D(O  34,C  40,O  16,Zr  1)      7.4596         0.064501   
    867. D(H  48,C  41,O  26,Zr  3)   -173.6233         0.064878   
    868. D(O  17,C  41,O  26,Zr  3)      7.3260         0.064878   
    869. D(H  48,C  41,O  17,Zr  1)    143.5013         0.057740   
    870. D(O  26,C  41,O  17,Zr  1)    -37.4429         0.057740   
    871. D(H  49,C  42,O  22,Zr  2)    175.8211         0.060945   
    872. D(O  18,C  42,O  22,Zr  2)     -4.2114         0.060945   
    873. D(H  49,C  42,O  18,Zr  1)   -179.1681         0.062747   
    874. D(O  22,C  42,O  18,Zr  1)      0.8644         0.062747   
    875. D(H  52,C  43,O  30,Zr  4)    179.6216         0.062548   
    876. D(O  19,C  43,O  30,Zr  4)     -0.4242         0.062548   
    877. D(H  52,C  43,O  19,Zr  1)   -176.4453         0.060990   
    878. D(O  30,C  43,O  19,Zr  1)      3.6005         0.060990   
    879. D(H  59,C  44,O  35,Zr  5)   -176.2922         0.060934   
    880. D(O  20,C  44,O  35,Zr  5)      3.7015         0.060934   
    881. D(H  59,C  44,O  20,Zr  2)   -179.8432         0.062677   
    882. D(O  35,C  44,O  20,Zr  2)      0.1630         0.062677   
    883. D(H  55,C  45,O  31,Zr  4)    173.7355         0.064749   
    884. D(O  23,C  45,O  31,Zr  4)     -7.2598         0.064749   
    885. D(H  55,C  45,O  23,Zr  2)   -144.5222         0.057972   
    886. D(O  31,C  45,O  23,Zr  2)     36.4682         0.057972   
    887. D(O  24,C  46,O  32,Zr  5)      7.2598         0.064749   
    888. D(H  57,C  46,O  24,Zr  3)    144.5222         0.057972   
    889. D(O  32,C  46,O  24,Zr  3)    -36.4682         0.057972   
    890. D(H  57,C  46,O  32,Zr  5)   -173.7355         0.064749   
    891. D(H  53,C  47,O  28,Zr  4)    176.2922         0.060934   
    892. D(O  27,C  47,O  28,Zr  4)     -3.7015         0.060934   
    893. D(H  53,C  47,O  27,Zr  3)    179.8432         0.062677   
    894. D(O  28,C  47,O  27,Zr  3)     -0.1630         0.062677   
    -----------------------------------------------------------------

Number of atoms                         .... 60
Number of degrees of freedom            .... 894


         *************************************************************
         *                GEOMETRY OPTIMIZATION CYCLE   1            *
         *************************************************************
---------------------------------
CARTESIAN COORDINATES (ANGSTROEM)
---------------------------------
  Zr    -0.178104    2.063720    1.469322
  Zr     0.178104   -2.063720   -1.469322
  Zr     1.716134   -1.134643    1.481691
  Zr    -1.716134    1.134643   -1.481691
  Zr     1.735486    1.017639   -1.557891
  Zr    -1.735486   -1.017639    1.557891
  O     -1.748737    0.796191    0.571747
  O      1.748737   -0.796191   -0.571747
  O     -0.138305   -1.900362    0.561862
  O      0.138306    1.900362   -0.561862
  O     -0.128373   -0.077150   -2.007026
  O      0.128372    0.077150    2.007026
  O     -1.466023    2.108159    3.267268
  O     -1.651525    3.664309    1.027313
  O      1.544729    2.083248    2.869391
  O      1.191506    3.783422    0.949107
  O     -1.191506   -3.783422   -0.949107
  O     -1.544729   -2.083248   -2.869391
  O      1.651526   -3.664309   -1.027313
  O      1.466023   -2.108159   -3.267269
  O      1.100938   -2.487687    3.129060
  O      2.428624    0.033356    3.281937
  O      2.610066   -3.079764    0.937957
  O      3.709396   -0.252491    1.054821
  O     -3.709396    0.252491   -1.054821
  O     -2.610066    3.079764   -0.937957
  O     -2.428624   -0.033356   -3.281937
  O     -1.100939    2.487687   -3.129060
  O      1.156664    2.352295   -3.221846
  O      2.562467    2.847895   -0.601361
  O      2.441226   -0.067297   -3.357873
  O      3.897114    0.668164   -1.011542
  O     -3.897113   -0.668164    1.011542
  O     -2.441226    0.067297    3.357873
  O     -2.562467   -2.847895    0.601360
  O     -1.156664   -2.352295    3.221846
  C     -2.207927    1.228932    3.798315
  C     -2.457962    3.833486    0.069248
[...]
156:   1515.33   0.000000    0.00  0.000000  ( 0.000000  0.000000 -0.000000)
157:   1525.85   0.001742    8.80  0.000356  ( 0.015103  0.009278  0.006480)
158:   1534.95   0.003062   15.48  0.000623  (-0.008724 -0.002442  0.023249)
159:   1535.01   0.003010   15.21  0.000612  ( 0.011843 -0.021621  0.002034)
160:   1541.69   0.000000    0.00  0.000000  (-0.000000  0.000000 -0.000000)
161:   1547.60   0.000000    0.00  0.000000  ( 0.000000  0.000000 -0.000000)
162:   1547.69   0.000000    0.00  0.000000  (-0.000000  0.000000  0.000000)
163:   1601.26   0.321342  1623.93  0.062625  (-0.144554  0.196727  0.055025)
164:   1601.33   0.321564  1625.05  0.062666  (-0.042306 -0.095000  0.227708)
165:   1607.01   0.262449  1326.31  0.050965  ( 0.179951  0.110437  0.079912)
166:   1607.41   0.000000    0.00  0.000000  ( 0.000001  0.000001  0.000001)
167:   1607.52   0.000000    0.00  0.000000  ( 0.000002  0.000001  0.000001)
168:   2946.24   0.000000    0.00  0.000000  (-0.000002  0.000012 -0.000003)
169:   2946.27   0.000000    0.00  0.000000  ( 0.000033 -0.000081  0.000036)
170:   2946.28   0.020654  104.38  0.002188  ( 0.029318 -0.029780 -0.021005)
171:   2946.32   0.020594  104.07  0.002181  (-0.000189  0.026777 -0.038264)
172:   2947.28   0.070006  353.78  0.007412  (-0.068728 -0.042299 -0.029995)
173:   2947.88   0.000000    0.00  0.000000  ( 0.000005  0.000005  0.000002)
174:   2959.84   0.000424    2.14  0.000045  ( 0.004707  0.004231 -0.002163)
175:   2960.01   0.000000    0.00  0.000000  ( 0.000001 -0.000004  0.000001)
176:   2960.07   0.000000    0.00  0.000000  ( 0.000003 -0.000006 -0.000001)
177:   2960.61   0.060311  304.79  0.006357  ( 0.009357 -0.055596  0.056379)
178:   2960.67   0.060350  304.99  0.006361  ( 0.046227 -0.042385 -0.049272)
179:   2961.84   0.000000    0.00  0.000000  ( 0.000001 -0.000002  0.000000)

* The epsilon (eps) is given for a Dirac delta lineshape.
** The dipole moment derivative (T) already includes vibrational overlap.

The first frequency considered to be a vibration is 6
The total number of vibrations considered is 174


--------------------------
THERMOCHEMISTRY AT 298.15K
--------------------------

Temperature         ...   298.15 K
Pressure            ...     1.00 atm
Total Mass          ...  1183.52 AMU
Quasi RRHO          ...     True
Cut-Off Frequency   ...     1.00 cm^-1

Throughout the following assumptions are being made:
  (1) The electronic state is orbitally nondegenerate
  (2) There are no thermally accessible electronically excited states
  (3) Hindered rotations indicated by low frequency modes are not
      treated as such but are treated as vibrations and this may
      cause some error
  (4) All equations used are the standard statistical mechanics
      equations for an ideal gas
  (5) All vibrations are strictly harmonic

freq.      40.48  E(vib)   ...       0.54 
freq.      41.08  E(vib)   ...       0.54 
freq.      56.67  E(vib)   ...       0.52 
freq.      57.25  E(vib)   ...       0.51 
freq.      57.80  E(vib)   ...       0.51 
freq.      60.00  E(vib)   ...       0.51 
freq.      79.09  E(vib)   ...       0.49 
freq.      79.33  E(vib)   ...       0.49 
freq.      94.10  E(vib)   ...       0.47 
freq.      96.15  E(vib)   ...       0.47 
freq.      96.50  E(vib)   ...       0.47 
freq.      97.74  E(vib)   ...       0.46 
freq.     104.60  E(vib)   ...       0.46 
freq.     104.81  E(vib)   ...       0.46 
freq.     107.09  E(vib)   ...       0.45 
freq.     107.21  E(vib)   ...       0.45 
freq.     117.19  E(vib)   ...       0.44 
freq.     122.90  E(vib)   ...       0.43 
freq.     127.82  E(vib)   ...       0.43 
freq.     132.68  E(vib)   ...       0.42 
freq.     149.62  E(vib)   ...       0.40 
freq.     149.69  E(vib)   ...       0.40 
freq.     150.08  E(vib)   ...       0.40 
freq.     150.19  E(vib)   ...       0.40 
freq.     154.70  E(vib)   ...       0.40 
freq.     154.84  E(vib)   ...       0.40 
freq.     159.92  E(vib)   ...       0.39 
freq.     159.95  E(vib)   ...       0.39 
freq.     161.33  E(vib)   ...       0.39 
freq.     162.11  E(vib)   ...       0.39 
freq.     168.75  E(vib)   ...       0.38 
freq.     170.69  E(vib)   ...       0.38 
freq.     171.06  E(vib)   ...       0.38 
freq.     186.70  E(vib)   ...       0.37 
freq.     186.81  E(vib)   ...       0.37 
freq.     188.41  E(vib)   ...       0.36 
freq.     190.70  E(vib)   ...       0.36 
freq.     190.73  E(vib)   ...       0.36 
freq.     190.95  E(vib)   ...       0.36 
freq.     206.18  E(vib)   ...       0.35 
freq.     206.78  E(vib)   ...       0.35 
freq.     208.41  E(vib)   ...       0.34 
freq.     208.48  E(vib)   ...       0.34 
freq.     222.16  E(vib)   ...       0.33 
freq.     222.33  E(vib)   ...       0.33 
freq.     230.41  E(vib)   ...       0.32 
freq.     230.54  E(vib)   ...       0.32 
freq.     242.46  E(vib)   ...       0.31 
freq.     256.43  E(vib)   ...       0.30 
freq.     260.79  E(vib)   ...       0.30 
freq.     261.05  E(vib)   ...       0.30 
freq.     262.83  E(vib)   ...       0.29 
freq.     263.06  E(vib)   ...       0.29 
freq.     268.00  E(vib)   ...       0.29 
freq.     268.83  E(vib)   ...       0.29 
freq.     270.96  E(vib)   ...       0.29 
freq.     271.03  E(vib)   ...       0.29 
freq.     274.07  E(vib)   ...       0.28 
freq.     274.15  E(vib)   ...       0.28 
freq.     274.26  E(vib)   ...       0.28 
freq.     284.06  E(vib)   ...       0.28 
freq.     284.10  E(vib)   ...       0.28 
freq.     289.81  E(vib)   ...       0.27 
freq.     289.87  E(vib)   ...       0.27 
freq.     294.90  E(vib)   ...       0.27 
freq.     297.32  E(vib)   ...       0.27 
freq.     305.89  E(vib)   ...       0.26 
freq.     305.98  E(vib)   ...       0.26 
freq.     308.41  E(vib)   ...       0.26 
freq.     311.66  E(vib)   ...       0.25 
freq.     311.82  E(vib)   ...       0.25 
freq.     314.55  E(vib)   ...       0.25 
freq.     317.97  E(vib)   ...       0.25 
freq.     318.07  E(vib)   ...       0.25 
freq.     323.13  E(vib)   ...       0.25 
freq.     324.44  E(vib)   ...       0.25 
freq.     324.64  E(vib)   ...       0.24 
freq.     340.62  E(vib)   ...       0.23 
freq.     340.75  E(vib)   ...       0.23 
freq.     351.08  E(vib)   ...       0.23 
freq.     351.21  E(vib)   ...       0.23 
freq.     364.72  E(vib)   ...       0.22 
freq.     367.10  E(vib)   ...       0.22 
freq.     389.74  E(vib)   ...       0.20 
freq.     391.67  E(vib)   ...       0.20 
freq.     401.91  E(vib)   ...       0.19 
freq.     404.64  E(vib)   ...       0.19 
freq.     404.82  E(vib)   ...       0.19 
freq.     416.01  E(vib)   ...       0.18 
freq.     416.24  E(vib)   ...       0.18 
freq.     424.01  E(vib)   ...       0.18 
freq.     424.16  E(vib)   ...       0.18 
freq.     472.64  E(vib)   ...       0.15 
freq.     477.51  E(vib)   ...       0.15 
freq.     477.55  E(vib)   ...       0.15 
freq.     532.33  E(vib)   ...       0.13 
freq.     537.63  E(vib)   ...       0.12 
freq.     619.74  E(vib)   ...       0.09 
freq.     674.57  E(vib)   ...       0.08 
freq.     674.88  E(vib)   ...       0.08 
freq.     683.63  E(vib)   ...       0.07 
freq.     684.14  E(vib)   ...       0.07 
freq.     733.29  E(vib)   ...       0.06 
freq.     733.36  E(vib)   ...       0.06 
freq.     733.45  E(vib)   ...       0.06 
freq.     733.64  E(vib)   ...       0.06 
freq.     733.74  E(vib)   ...       0.06 
freq.     735.25  E(vib)   ...       0.06 
freq.     736.26  E(vib)   ...       0.06 
freq.     736.33  E(vib)   ...       0.06 
freq.     736.66  E(vib)   ...       0.06 
freq.     736.73  E(vib)   ...       0.06 
freq.     737.66  E(vib)   ...       0.06 
freq.     738.25  E(vib)   ...       0.06 
freq.    1005.14  E(vib)   ...       0.02 
freq.    1005.15  E(vib)   ...       0.02 
freq.    1005.18  E(vib)   ...       0.02 
freq.    1005.20  E(vib)   ...       0.02 
freq.    1007.18  E(vib)   ...       0.02 
freq.    1007.22  E(vib)   ...       0.02 
freq.    1008.65  E(vib)   ...       0.02 
freq.    1008.87  E(vib)   ...       0.02 
freq.    1008.91  E(vib)   ...       0.02 
freq.    1009.48  E(vib)   ...       0.02 
freq.    1009.51  E(vib)   ...       0.02 
freq.    1009.72  E(vib)   ...       0.02 
freq.    1342.18  E(vib)   ...       0.01 
freq.    1342.22  E(vib)   ...       0.01 
freq.    1342.33  E(vib)   ...       0.01 
freq.    1342.37  E(vib)   ...       0.01 
freq.    1343.99  E(vib)   ...       0.01 
freq.    1344.66  E(vib)   ...       0.01 
freq.    1355.35  E(vib)   ...       0.01 
freq.    1355.71  E(vib)   ...       0.01 
freq.    1355.75  E(vib)   ...       0.01 
freq.    1356.36  E(vib)   ...       0.01 
freq.    1356.38  E(vib)   ...       0.01 
freq.    1356.53  E(vib)   ...       0.01 
freq.    1359.99  E(vib)   ...       0.01 
freq.    1360.05  E(vib)   ...       0.01 
freq.    1360.07  E(vib)   ...       0.01 
freq.    1360.11  E(vib)   ...       0.01 
freq.    1360.60  E(vib)   ...       0.01 
freq.    1360.60  E(vib)   ...       0.01 
freq.    1361.15  E(vib)   ...       0.01 
freq.    1361.86  E(vib)   ...       0.01 
freq.    1361.96  E(vib)   ...       0.01 
freq.    1365.37  E(vib)   ...       0.01 
freq.    1365.53  E(vib)   ...       0.01 
freq.    1372.68  E(vib)   ...       0.01 
freq.    1515.33  E(vib)   ...       0.00 
freq.    1525.85  E(vib)   ...       0.00 
freq.    1534.95  E(vib)   ...       0.00 
freq.    1535.01  E(vib)   ...       0.00 
freq.    1541.69  E(vib)   ...       0.00 
freq.    1547.60  E(vib)   ...       0.00 
freq.    1547.69  E(vib)   ...       0.00 
freq.    1601.26  E(vib)   ...       0.00 
freq.    1601.33  E(vib)   ...       0.00 
freq.    1607.01  E(vib)   ...       0.00 
freq.    1607.41  E(vib)   ...       0.00 
freq.    1607.52  E(vib)   ...       0.00 
freq.    2946.24  E(vib)   ...       0.00 
freq.    2946.27  E(vib)   ...       0.00 
freq.    2946.28  E(vib)   ...       0.00 
freq.    2946.32  E(vib)   ...       0.00 
freq.    2947.28  E(vib)   ...       0.00 
freq.    2947.88  E(vib)   ...       0.00 
freq.    2959.84  E(vib)   ...       0.00 
freq.    2960.01  E(vib)   ...       0.00 
freq.    2960.07  E(vib)   ...       0.00 
freq.    2960.61  E(vib)   ...       0.00 
freq.    2960.67  E(vib)   ...       0.00 
freq.    2961.84  E(vib)   ...       0.00 

------------
INNER ENERGY
------------

The inner energy is: U= E(el) + E(ZPE) + E(vib) + E(rot) + E(trans)
    E(el)   - is the total energy from the electronic structure calculation
              = E(kin-el) + E(nuc-el) + E(el-el) + E(nuc-nuc)
    E(ZPE)  - the the zero temperature vibrational energy from the frequency calculation
    E(vib)  - the the finite temperature correction to E(ZPE) due to population
              of excited vibrational states
    E(rot)  - is the rotational thermal energy
    E(trans)- is the translational thermal energy

Summary of contributions to the inner energy U:
Electronic energy                ...  -3003.85020942 Eh
Zero point energy                ...      0.30679049 Eh     192.51 kcal/mol
Thermal vibrational correction   ...      0.05263968 Eh      33.03 kcal/mol
Thermal rotational correction    ...      0.00141627 Eh       0.89 kcal/mol
Thermal translational correction ...      0.00141627 Eh       0.89 kcal/mol
-----------------------------------------------------------------------
Total thermal energy                  -3003.48794671 Eh


Summary of corrections to the electronic energy:
(perhaps to be used in another calculation)
Total thermal correction                  0.05547222 Eh      34.81 kcal/mol
Non-thermal (ZPE) correction              0.30679049 Eh     192.51 kcal/mol
-----------------------------------------------------------------------
Total correction                          0.36226271 Eh     227.32 kcal/mol


--------
ENTHALPY
--------

The enthalpy is H = U + kB*T
                kB is Boltzmann's constant
Total thermal energy              ...  -3003.48794671 Eh 
Thermal Enthalpy correction       ...      0.00094421 Eh       0.59 kcal/mol
-----------------------------------------------------------------------
Total Enthalpy                    ...  -3003.48700251 Eh


Note: Rotational entropy computed according to Herzberg 
Infrared and Raman Spectra, Chapter V,1, Van Nostrand Reinhold, 1945 
Point Group:  Ci, Symmetry Number:   1  
Rotational constants in cm-1:     0.001903     0.001903     0.001811 

Vibrational entropy computed according to the QRRHO of S. Grimme
Chem.Eur.J. 2012 18 9955 using a reference frequency of 100.0 cm-1


-------
ENTROPY
-------

The entropy contributions are T*S = T*(S(el)+S(vib)+S(rot)+S(trans))
     S(el)   - electronic entropy
     S(vib)  - vibrational entropy
     S(rot)  - rotational entropy
     S(trans)- translational entropy
The entropies will be listed as multiplied by the temperature to get
units of energy

Electronic entropy                ...      0.00000000 Eh      0.00 kcal/mol
Vibrational entropy               ...      0.09391388 Eh     58.93 kcal/mol
Rotational entropy                ...      0.01840608 Eh     11.55 kcal/mol
Translational entropy             ...      0.02237096 Eh     14.04 kcal/mol
-----------------------------------------------------------------------
Final entropy term                ...      0.13469091 Eh     84.52 kcal/mol

In case the symmetry of your molecule has not been determined correctly
or in case you have a reason to use a different symmetry number we print 
out the resulting rotational entropy values for sn=1,12:

 non-linear molecules -----------------------------------
|  sn= 1 | S(rot)=       0.01840608 Eh     11.55 kcal/mol|
|  sn= 2 | S(rot)=       0.01775162 Eh     11.14 kcal/mol|
|  sn= 3 | S(rot)=       0.01736879 Eh     10.90 kcal/mol|
|  sn= 4 | S(rot)=       0.01709717 Eh     10.73 kcal/mol|
|  sn= 5 | S(rot)=       0.01688648 Eh     10.60 kcal/mol|
|  sn= 6 | S(rot)=       0.01671433 Eh     10.49 kcal/mol|
|  sn= 7 | S(rot)=       0.01656879 Eh     10.40 kcal/mol|
|  sn= 8 | S(rot)=       0.01644271 Eh     10.32 kcal/mol|
|  sn= 9 | S(rot)=       0.01633150 Eh     10.25 kcal/mol|
|  sn=10 | S(rot)=       0.01623202 Eh     10.19 kcal/mol|
|  sn=11 | S(rot)=       0.01614203 Eh     10.13 kcal/mol|
|  sn=12 | S(rot)=       0.01605988 Eh     10.08 kcal/mol|
 linear molecules ---------------------------------------
|  Dinfh | S(rot)=       0.01128703 Eh      7.08 kcal/mol|
|  Cinfv | S(rot)=       0.01194149 Eh      7.49 kcal/mol|
 --------------------------------------------------------


-------------------
GIBBS FREE ENERGY
-------------------

The Gibbs free energy is G = H - T*S

Total enthalpy                    ...  -3003.48700251 Eh 
Total entropy correction          ...     -0.13469091 Eh    -84.52 kcal/mol
-----------------------------------------------------------------------
Final Gibbs free energy         ...  -3003.62169342 Eh

For completeness - the Gibbs free energy minus the electronic energy
G-E(el)                           ...      0.22851600 Eh    143.40 kcal/mol


Maximum memory used throughout the entire PROP-calculation: 185.8 MB

--------------------------------
SUGGESTED CITATIONS FOR THIS RUN
--------------------------------

Below you find a list of papers that are relevant to this ORCA run
We neither can nor want to force you to cite these papers, but we appreciate if you do
You receive ORCA, which is the product of decades of hard work by many enthusiastic individuals, for free
The only thing we kindly ask in return is that you cite our papers,
We deeply appreciate it, if you show your appreciation for ORCA by not just citing the generic ORCA reference.

Please note that relegating all ORCA citations to the supporting information does *not* help us.
SI sections are not indexed - citations you put there will not count into any citation statistics
But we need these citations in order to attract the funding resources that allow us to do what we are doing

Therefore, if you are a happy ORCA user, please consider citing a few of the papers listed below in the main body of your paper

In addition to the list printed below, the program has created the file run.bibtex that contains the list in bibtex format
You can import this file easily into all common literature databanks and citation aid programs


List of essential papers. We consider these as the minimum necessary citations

  1. Neese, F.
     Software update: the ORCA program system, version 6.0
     WIRES Comput. Molec. Sci. 2025 15(1), e70019
     doi.org/10.1002/wcms.7019

List of papers to cite with high priority. The work reported in these papers was absolutely
necessary for this run to complete.
Our perspective: the developers of density functionals and basis sets usually get cited in chemistry papers
Good! But without the algorithms to do something with them, the functionals or basis sets would not do anything.
Hence, in our opinion, the algorithm design and method developments papers are equally worthy of getting cited

  1. Neese, F.
     An improvement of the resolution of the identity approximation for the formation of the Coulomb matrix
     J. Comp. Chem. 2003 24(14), 1740-1747
     doi.org/10.1002/jcc.10318
  2. Grimme, S.; Antony, J.; Ehrlich, S.; Krieg, H.
     A consistent and accurate ab initio parametrization of density functional dispersion correction (DFT-D) for the 94 elements H-Pu
     J. Chem. Phys. 2010 132 , 154104
     doi.org/10.1063/1.3382344
  3. Grimme, S.; Ehrlich, S.; Goerigk, L.
     Effect of the damping function in dispersion corrected density functional theory
     J. Comput. Chem. 2011 32(7), 1456-1465
     doi.org/10.1002/jcc.21759
  4. Bykov, D.; Petrenko, T.; Izsak, R.; Kossmann, S.; Becker, U.; Valeev, E.; Neese, F.
     Efficient implementation of the analytic second derivatives of Hartree-Fock and hybrid DFT energies: a detailed analysis of different approximations
     Molec. Phys. 2015 113 , 1961-1977
     doi.org/10.1080/00268976.2015.1025114
  5. Neese, F.
     The SHARK Integral Generation and Digestion System
     J. Comp. Chem. 2022 44(3), 381
     doi.org/10.1002/jcc.26942

List of suggested additional citations. These are papers that are important in the 'surrounding' of 
of this run, or papers that preceded the highly important papers. If you like your results we are grateful for a citation.

  1. Neese, F.
     The ORCA program system
     WIRES Comput. Molec. Sci. 2012 2(1), 73-78
     doi.org/10.1002/wcms.81
  2. Neese, F.
     Software update: the ORCA program system, version 4.0
     WIRES Comput. Molec. Sci. 2018 8(1), 1-6
     doi.org/10.1002/wcms.1327
  3. Neese, F.; Wennmohs, F.; Becker, U.; Riplinger, C.
     The ORCA quantum chemistry program package
     J. Chem. Phys. 2020 152(22), 224108
     doi.org/10.1063/5.0004608
  4. Neese, F.
     Software update: The ORCA program system—Version 5.0
     WIRES Comput. Molec. Sci. 2022 12(1), e1606
     doi.org/10.1002/wcms.1606

List of optional additional citations

  1. Neese, F.
     Approximate second-order SCF convergence for spin unrestricted wavefunctions
     Chem. Phys. Lett. 2000 325(1-3), 93-98
     doi.org/10.1016/s0009-2614(00)00662-x

Timings for individual modules:

Sum of individual times          ...     3866.329 sec (=  64.439 min)
Startup calculation              ...      406.992 sec (=   6.783 min)  10.5 %
SCF iterations                   ...      732.487 sec (=  12.208 min)  18.9 %
Property integrals               ...      973.009 sec (=  16.217 min)  25.2 %
SCF Response                     ...      910.307 sec (=  15.172 min)  23.5 %
Property calculations            ...      421.846 sec (=   7.031 min)  10.9 %
SCF Gradient evaluation          ...      412.566 sec (=   6.876 min)  10.7 %
Geometry relaxation              ...        9.121 sec (=   0.152 min)   0.2 %
                             ****ORCA TERMINATED NORMALLY****
TOTAL RUN TIME: 0 days 1 hours 5 minutes 3 seconds 684 msec
