
                                 *****************
                                 * O   R   C   A *
                                 *****************

                                            #,                                       
                                            ###                                      
                                            ####                                     
                                            #####                                    
                                            ######                                   
                                           ########,                                 
                                     ,,################,,,,,                         
                               ,,#################################,,                 
                          ,,##########################################,,             
                       ,#########################################, ''#####,          
                    ,#############################################,,   '####,        
                  ,##################################################,,,,####,       
                ,###########''''           ''''###############################       
              ,#####''   ,,,,##########,,,,          '''####'''          '####       
            ,##' ,,,,###########################,,,                        '##       
           ' ,,###''''                  '''############,,,                           
         ,,##''                                '''############,,,,        ,,,,,,###''
      ,#''                                            '''#######################'''  
     '                                                          ''''####''''         
             ,#######,   #######,   ,#######,      ##                                
            ,#'     '#,  ##    ##  ,#'     '#,    #''#        ,####,    ,#,          
            ##       ##  ##   ,#'  ##            #'  '#       #'       ,# #          
            ##       ##  #######   ##           ,######,      #####,      #          
            '#,     ,#'  ##    ##  '#,     ,#' ,#      #,     #,   #      #          
             '#######'   ##     ##  '#######'  #'      '#     '####' #    #          



                #########################################################
                #                        -***-                          #
                #          Department of theory and spectroscopy        #
                #                                                       #
                #                      Frank Neese                      #
                #                                                       #
                #     Directorship, Architecture, Infrastructure        #
                #                    SHARK, DRIVERS                     #
                #        Core code/Algorithms in most modules           #
                #                                                       #
                #        Max Planck Institute fuer Kohlenforschung      #
                #                Kaiser Wilhelm Platz 1                 #
                #                 D-45470 Muelheim/Ruhr                 #
                #                      Germany                          #
                #                                                       #
                #                  All rights reserved                  #
                #                        -***-                          #
                #########################################################


                         Program Version 6.1.0  -  RELEASE   -
                                (GIT: $679e74b$)
                          ($2025-06-10 18:02:51 +0200$)


 With contributions from (in alphabetic order):
[Max-Planck-Institut fuer Kohlenforschung]                               
  Daniel Aravena         : Magnetic Suceptibility                        
  Michael Atanasov       : Ab Initio Ligand Field Theory (pilot matlab implementation)
  Alexander A. Auer      : GIAO ZORA, VPT2 properties, NMR spectrum      
  Ute Becker             : All parallelization in ORCA, NUMFREQ, NUMCALC 
  Giovanni Bistoni       : ED, misc. LED, open-shell LED, HFLD           
  Dmytro Bykov           : pre 5.0 version of the SCF Hessian            
  Marcos Casanova-Páez   : Triplet and SCS-CIS(D). UHF-(DLPNO)-IP/EA/STEOM-CCSD. UHF-CVS-IP/STEOM-CCSD   
  Vijay G. Chilkuri      : MRCI spin determinant printing, contributions to CSF-ICE 
  Pauline Colinet        : FMM embedding                                 
  Dipayan Datta          : RHF DLPNO-CCSD density                        
  Achintya Kumar Dutta   : EOM-CC, STEOM-CC                              
  Nicolas Foglia         : Exact transition moments, OPA infrastructure, MCD improvements    
  Dmitry Ganyushin       : Spin-Orbit,Spin-Spin,Magnetic field MRCI      
  Miquel Garcia-Rates    : C-PCM and meta-GGA Hessian, CCSD/C-PCM, Gaussian charge scheme 
  Tiago L. C. Gouveia    : GS-ROHF, GS-ROCIS                             
  Yang Guo               : DLPNO-NEVPT2, F12-NEVPT2, CIM, IAO-localization        
  Andreas Hansen         : Spin unrestricted coupled pair/coupled cluster methods 
  Ingolf Harden          : AUTO-CI MPn and infrastructure                
  Benjamin Helmich-Paris : MC-RPA, TRAH-(SCF,CASSCF), AVAS, COSX integrals, SCF dyn. polar., MC-PDFT, srDFT 
  Lee Huntington         : MR-EOM, pCC                                   
  Robert Izsak           : Overlap fitted RIJCOSX, COSX-SCS-MP3, EOM     
  Riya Kayal             : Wick's Theorem for AUTO-CI, AUTO-CI UHF-CCSDT 
  Emily Kempfer          : AUTO-CI RHF CISDT and CCSDT, approximate NEVPT4
  Christian Kollmar      : KDIIS, OOCD, Brueckner-CCSD(T), CCSD density, CASPT2, CASPT2-K, improved NEVPT2 
  Axel Koslowski         : Symmetry handling                             
  Simone Kossmann        : meta-GGA functionals, TD-DFT gradient, OOMP2, (MP2 Hessian; deprecated post 5.0) 
  Lucas Lang             : DCDCAS, Hyperfine gauge corrections, ICE-SOC+SSC
  Marvin Lechner         : AUTO-CI (C++ implementation), FIC-MRCC        
  Spencer Leger          : CASSCF response                               
  Dagmar Lenk            : GEPOL surface, SMD, ORCA-2-JSON               
  Dimitrios Liakos       : Extrapolation schemes; Compound Job, Property file
  Dimitrios Manganas     : Further ROCIS development; embedding schemes. LFT, Crystal Embedding 
  Dimitrios Pantazis     : SARC Basis sets                               
  Anastasios Papadopoulos: AUTO-CI, single reference methods and gradients 
  Taras Petrenko         : pre 6.0 DFT Hessian and TD-DFT gradient,  ECA, NRVS 
  Petra Pikulova         : Analytic Raman intensities                    
  Peter Pinski           : DLPNO-MP2, DLPNO-MP2 Gradient                 
  Shashank Vittal Rao    : ES-AILFT, MagRelax                            
  Christoph Reimann      : Effective Core Potentials                     
  Marius Retegan         : Local ZFS, SOC                                
  Christoph Riplinger    : Optimizer, TS searches, QM/MM, DLPNO-CCSD(T), (RO)-DLPNO pert. Triples 
  Michael Roemelt        : Original ROCIS implementation, recursive CI coupling coefficients
  Masaaki Saitow         : Open-shell DLPNO-CCSD energy and density      
  Barbara Sandhoefer     : DKH picture change effects                    
  Yorick L. A. Schmerwitz: GMF and freeze-and-release deltaSCF, NEB S-IDPP initial path                    
  Kantharuban Sivalingam : CASSCF convergence/infrastructure, NEVPT2, NEVPT3, NEVPT4(SD), FIC-MRCI and CEPA variants
  Bernardo de Souza      : ESD, SOC TD-DFT                               
  Georgi L. Stoychev     : AutoAux, RI-MP2 NMR, DLPNO-MP2 response, X2C  
  Van Anh Tran           : RI-MP2 g-tensors                              
  Willem Van den Heuvel  : Paramagnetic NMR                              
  Zikuan Wang            : NOTCH, Electric field optimization            
  Frank Wennmohs         : Technical directorship and infrastructure     
  Hang Xu                : AUTO-CI-Response properties                   
                                                                         
[FACCTs GmbH]                                                            
  Markus Bursch, Nicolas Foglia, Miquel Garcia-Rates, Ingolf Harden, Hagen Neugebauer, Anastasios Papadopoulos, 
  Christoph Riplinger, Bernardo de Souza, Georgi L. Stoychev                                                    
                                                                 
  APM, various basis sets, CI-OPT, improved COSX, DLPNO-Multilevel,           
  DOCKER, DRACO, updates on ESD, Fragmentator, GOAT, IRC, LR-CPCM, L-BFGS, MBIS, meta-GGA TD-DFT gradient, ML-optimized integration grids, 
  MM, NACMEs, nearIR, NEB, NEB-TS, NL-DFT gradient (VV10), 2- and 3-layer-ONIOM, interface openCOSMO-RS, QMMM,   
  Crystal-QMMM, RESP, rigid body optimization, SF, symmetry and pop. for TD-DFT, various functionals, SOLVATOR                                   
                                                                         
[Other institutions]                                                     
  V. Asgeirsson          : NEB                                           
  Christoph Bannwarth    : sTDA-DFT, sTD-DFT, PBEh-3c, B97-3c, D3        
  Giovanni Bistoni       : ETS/NOCV, ADLD/ADEX, COVALED                  
  Martin Brehm           : Molecular dynamics                            
  Ronald Cardenas        : ETS/NOCV                                      
  Martina Colucci        : COVALED                                       
  Sebastian Ehlert       : rSCAN, r2SCAN, r2SCAN-3c, D4, dhf basis sets  
  Marvin Friede          : D4 for Fr, Ra, Ac-Lr                          
  Lars Goerigk           : TD-DFT with DH, B97 family of functionals     
  Stefan Grimme          : VdW corrections, initial TS optimization, DFT functionals, gCP, sTDA/sTD-DF 
  Waldemar Hujo          : DFT-NL                                        
  H. Jonsson             : NEB                                           
  Holger Kruse           : gCP                                           
  Marcel Mueller         : wB97X-3c, vDZP basis set                      
  Hagen Neugebauer       : wr2SCAN, Native XTB                           
  Gianluca Regni         : ADLD/ADEX                                     
  Tobias Risthaus        : pre 6.0 range-separated hybrid DFT and stability analysis
  Lukas Wittmann         : regularized MP2, r2SCAN double-hybrids, wr2SCAN        
                                                                         
We gratefully acknowledge several colleagues who have allowed us to      
interface, adapt or use parts of their codes:                            
  Ed Valeev, F. Pavosevic, A. Kumar             : LibInt (2-el integral package), F12 methods 
  Garnet Chan, S. Sharma, J. Yang, R. Olivares  : DMRG                   
  Ulf Ekstrom                                   : XCFun DFT Library      
  Mihaly Kallay                                 : mrcc  (arbitrary order and MRCC methods)
  Frank Weinhold                                : gennbo (NPA and NBO analysis)           
  Simon Mueller                                 : openCOSMO-RS                            
  Christopher J. Cramer and Donald G. Truhlar   : smd solvation model                     
  S Lehtola, MJT Oliveira, MAL Marques          : LibXC Library                           
  Liviu Ungur et al                             : ANISO software                          


 Your calculation uses the libint2 library for the computation of 2-el integrals
 For citations please refer to: http://libint.valeyev.net

 Your ORCA version has been built with support for libXC version: 7.0.0
 For citations please refer to: https://libxc.gitlab.io

 This ORCA versions uses:
   CBLAS   interface :  Fast vector & matrix operations
   LAPACKE interface :  Fast linear algebra routines
   SCALAPACK package :  Parallel linear algebra routines
   Shared memory     :  Shared parallel matrices
   BLAS/LAPACK       :  OpenBLAS 0.3.29  USE64BITINT DYNAMIC_ARCH NO_AFFINITY Zen SINGLE_THREADED
        Core in use  :  Zen
   Copyright (c) 2011-2014, The OpenBLAS Project


  ***********************************
  * Starting time: Wed Jun 25 09:30:56 2025
  * Host name:     gadolinium01
  * Process ID:    2122533
  * Working dir.:  /local/scratch/mehlhorn/61311
  ***********************************

================================================================================

----- Orbital basis set information -----
Your calculation utilizes the basis: def2-SVP
   F. Weigend and R. Ahlrichs, Phys. Chem. Chem. Phys. 7, 3297 (2005).

The basis set includes element-specific modifications.

----- AuxJ basis set information -----
Your calculation utilizes the auxiliary basis: def2/J
   H-Rn: F. Weigend, Phys. Chem. Chem. Phys. 8, 1057 (2006).
   Fr-Lr: K. Eichkorn, F. Weigend, O. Treutler, R. Ahlrichs; Theor. Chem. Acc. 97, 119 (1997).

The basis set includes element-specific modifications.

================================================================================
                                        WARNINGS
                       Please study these warnings very carefully!
================================================================================

WARNING: Frozen-Core approximation turned on, but there are no core electrons.
  ===> : Turning off frozen-core approximation


WARNING: ROHF and Conv is not properly working
  ===> : Setting Mode to Direct


WARNING: Found SCFConvIgnored == true
  ===> : Will try to continue after any unconverged SCF -
         no matter how far from convergence the wavefunction might be.

         Please be very careful with your results!


WARNING: TRAH-SCF with ROHF wave function is not implemented yet
  ===> : Turning TRAH off


================================================================================
                                       INPUT FILE
================================================================================
NAME = run_atom40.inp
|  1> # input to generate an atomic fitting density for Zr
|  2> # this file is used internally by ORCA
|  3> #
|  4> # atomic ground state (Mult=3): 1s2 2s2 2p6 3s2 3p6 4s2 3d10 4p6 4d2 5s2 
|  5> #
|  6> ! ROHF def2-SVP def2/J Conv LeanSCF AODIIS SOSCF NoMulliken NoLoewdin NoMayer NoPrintMOs 
|  7> 
|  8> %output print[p_atomdensfit] 2 end
|  9> 
| 10> %scf
| 11>   guess     HCore
| 12>   maxiter    1000
| 13>   maxdisk  500000
| 14>   diismaxeq     8
| 15>   soscfstart 1e-4
| 16>   lshift  0.300000
| 17>   ignoreconv true
| 18> 
| 19>   hftyp        rohf
| 20>   rohf_case    sahf
| 21>   rohf_numop   3
| 22>   rohf_norb[1] 5,1
| 23>   rohf_nel[1]  2,2
| 24> 
| 25> end
| 26> 
| 27> %basis
| 28>   NewECP 40
| 29>     N_core 28
| 30>     lmax f
| 31>     s 4
| 32>       1       8.2000000000    150.2675911000  2
| 33>       2       4.0897278000     18.9762165000  2
| 34>       3       7.5400000000     21.0937760000  2
| 35>       4       3.7700000000      3.0806943000  2
| 36>     p 4
| 37>       1       7.1100000000     99.6221237000  2
| 38>       2       3.5967980000     14.1687333000  2
| 39>       3       7.5400000000     21.0937760000  2
| 40>       4       3.7700000000      3.0806943000  2
| 41>     d 4
| 42>       1       5.3500000000     35.0451235000  2
| 43>       2       2.4918215000      6.1112595000  2
| 44>       3       7.5400000000     21.0937760000  2
| 45>       4       3.7700000000      3.0806943000  2
| 46>     f 2
| 47>       1       7.5400000000    -21.0937760000  2
| 48>       2       3.7700000000     -3.0806943000  2
| 49>   end
| 50>   NewGTO 40
| 51>     s 3 
| 52>      1       5.8737890000      0.9717450200
| 53>      2       4.2872700000     -1.7058213661
| 54>      3       1.4641370000     -0.2454443851
| 55>     s 1 
| 56>      1       0.8372768234      1.0000000000
| 57>     s 1 
| 58>      1       0.3684980651      1.0000000000
| 59>     s 1 
| 60>      1       0.0778068591      1.0000000000
| 61>     s 1 
| 62>      1       0.0302730883      1.0000000000
| 63>     p 4 
| 64>      1       2.8742240000     -0.4817495790
| 65>      2       2.1199010000      0.4740935833
| 66>      3       0.7884582111      0.6081158782
| 67>      4       0.3633257985      0.3701379789
| 68>     p 1 
| 69>      1       0.1495176202      1.0000000000
| 70>     p 1 
| 71>      1       0.0300000000      1.0000000000
| 72>     d 3 
| 73>      1       4.2898623878     -0.0212335809
| 74>      2       1.3615557498      0.3423771261
| 75>      3       0.5693755069      0.7312273940
| 76>     d 1 
| 77>      1       0.2267494868      1.0000000000
| 78>     d 1 
| 79>      1       0.0830110316      1.0000000000
| 80>   end
| 81>   NewAuxGTO 40
| 82>     S 1
| 83>      1 1310.72 1.0
| 84>     S 1
| 85>      1  655.36 1.0
| 86>     S 1
| 87>      1  327.68 1.0
| 88>     S 1
| 89>      1  163.84 1.0
| 90>     S 1
| 91>      1   81.82 1.0
| 92>     S 1
| 93>      1   40.96 1.0
| 94>     S 1
| 95>      1   20.48 1.0
| 96>     S 1
| 97>      1   10.24 1.0
| 98>     S 1
| 99>      1    5.12 1.0
|100>     S 1
|101>      1    2.56 1.0
|102>     S 1
|103>      1    1.28 1.0
|104>     S 1
|105>      1    0.64 1.0
|106>     S 1
|107>      1    0.32 1.0
|108>     S 1
|109>      1    0.16 1.0
|110>     S 1
|111>      1    0.08 1.0
|112>     S 1
|113>      1    0.04 1.0
|114>     S 1
|115>      1    0.02 1.0
|116>     S 1
|117>      1    0.01 1.0
|118>   end
|119> end
|120> 
|121> * xyz 0 3
|122> 40  0.0 0.0 0.0
|123> *
|124> 
|125> 
|126>                          ****END OF INPUT****
================================================================================

                       ****************************
                       * Single Point Calculation *
                       ****************************

---------------------------------
CARTESIAN COORDINATES (ANGSTROEM)
---------------------------------
  Zr     0.000000    0.000000    0.000000

----------------------------
CARTESIAN COORDINATES (A.U.)
----------------------------
  NO LB      ZA    FRAG     MASS         X           Y           Z
   0 Zr   12.0000*   0    91.220    0.000000    0.000000    0.000000
* core charge reduced due to ECP

--------------------------------
INTERNAL COORDINATES (ANGSTROEM)
--------------------------------
 Zr     0   0   0     0.000000000000     0.00000000     0.00000000

---------------------------
INTERNAL COORDINATES (A.U.)
---------------------------
 Zr     0   0   0     0.000000000000     0.00000000     0.00000000

---------------------
BASIS SET INFORMATION
---------------------
There are 1 groups of distinct atoms

 Group   1 Type Zr  : 7s6p5d contracted to 5s3p3d pattern {31111/411/311}

Atom   0Zr   basis set group =>   1
---------------------------------
AUXILIARY/J BASIS SET INFORMATION
---------------------------------
There are 1 groups of distinct atoms

 Group   1 Type Zr  : 18s contracted to 18s pattern {111111111111111111}

Atom   0Zr   basis set group =>   1
-------------------------
ECP PARAMETER INFORMATION
-------------------------

 Group 1, Type Zr ECP (replacing 28 core electrons, lmax=3)

Atom   0Zr   ECP group =>   1

------------------------------------------------------------------------------
                             ORCA STARTUP CALCULATIONS
------------------------------------------------------------------------------
------------------------------------------------------------------------------
                   ___                                                        
                  /   \      - P O W E R E D   B Y -                         
                 /     \                                                     
                 |  |  |   _    _      __       _____    __    __             
                 |  |  |  | |  | |    /  \     |  _  \  |  |  /  |          
                  \  \/   | |  | |   /    \    | | | |  |  | /  /          
                 / \  \   | |__| |  /  /\  \   | |_| |  |  |/  /          
                |  |  |   |  __  | /  /__\  \  |    /   |      \           
                |  |  |   | |  | | |   __   |  |    \   |  |\   \          
                \     /   | |  | | |  |  |  |  | |\  \  |  | \   \       
                 \___/    |_|  |_| |__|  |__|  |_| \__\ |__|  \__/        
                                                                              
                      - O R C A' S   B I G   F R I E N D -                    
                                      &                                       
                       - I N T E G R A L  F E E D E R -                       
                                                                              
 v1 FN, 2020, v2 2021, v3 2022-2024                                           
------------------------------------------------------------------------------


----------------------
SHARK INTEGRAL PACKAGE
----------------------

Number of atoms                             ...      1
Number of basis functions                   ...     29
Number of shells                            ...     11
Maximum angular momentum                    ...      2
Integral batch strategy                     ... SHARK/LIBINT Hybrid
RI-J (if used) integral strategy            ... SPLIT-RIJ (Revised 2003 algorithm where possible)
Printlevel                                  ...      1
Contraction scheme used                     ... SEGMENTED contraction
Prescreening option                         ... SCHWARTZ
   Thresh                                   ... 1.000e-10
   Tcut                                     ... 1.000e-11
   Tpresel                                  ... 1.000e-11 
Coulomb Range Separation                    ... NOT USED
Exchange Range Separation                   ... NOT USED
Multipole approximations                    ... NOT USED
Finite Nucleus Model                        ... NOT USED
CABS basis                                  ... NOT available
Auxiliary Coulomb fitting basis             ... AVAILABLE
   # of basis functions in Aux-J            ...     18
   # of shells in Aux-J                     ...     18
   Maximum angular momentum in Aux-J        ...      0
Auxiliary J/K fitting basis                 ... NOT available
Auxiliary Correlation fitting basis         ... NOT available
Auxiliary 'external' fitting basis          ... NOT available

Checking pre-screening integrals            ... done (  0.0 sec) Dimension = 11
   => SHARK Basis and OBASIS are compatible. Storing Pre-screening
Shell pair information
Shell pair cut-off parameter TPreSel        ...   1.0e-11
Total number of shell pairs                 ...        66
Shell pairs after pre-screening             ...        66
Total number of primitive shell pairs       ...       183
Primitive shell pairs kept                  ...       183
          la=0 lb=0:     15 shell pairs
          la=1 lb=0:     15 shell pairs
          la=1 lb=1:      6 shell pairs
          la=2 lb=0:     15 shell pairs
          la=2 lb=1:      9 shell pairs
          la=2 lb=2:      6 shell pairs

Checking whether 4 symmetric matrices of dimension 29 fit in memory
:Max Core in MB      =   4096.00
 MB in use           =      1.25
 MB left             =   4094.75
 MB needed           =      0.01
 Data fit in memory  = YES
Calculating RI/J V-Matrix + Cholesky decomp.... done (  0.0 sec)
Calculating Nuclear repulsion               ... done (  0.0 sec) ENN=      0.000000000000 Eh

Diagonalization of the overlap matrix:
Smallest eigenvalue                        ... 2.348e-02
Time for diagonalization                   ...    0.000 sec
Threshold for overlap eigenvalues          ... 1.000e-07
Number of eigenvalues below threshold      ... 0
Time for construction of square roots      ...    0.000 sec
Total time needed                          ...    0.001 sec

-------------------
DFT GRID GENERATION
-------------------

General Integration Accuracy     IntAcc      ... 4.388
Radial Grid Type                 RadialGrid  ... OptM3 with GC (2021)
Angular Grid (max. ang.)         AngularGrid ... 4 (Lebedev-302)
Angular grid pruning method      GridPruning ... 4 (adaptive)
Weight generation scheme         WeightScheme... mBecke (2022)
Basis function cutoff            BFCut       ... 1.0000e-10
Integration weight cutoff        WCut        ... 1.0000e-14
Partially contracted basis set               ... off
Rotationally invariant grid construction     ... off
Angular grids for H and He will be reduced by one unit

Total number of grid points                  ...    11810
Total number of batches                      ...      185
Average number of points per batch           ...       63
Average number of grid points per atom       ...    11810
Grids setup in   0.4 sec
Initializing property integral containers    ... done (  0.0 sec)

SHARK setup successfully completed in   0.5 seconds

Maximum memory used throughout the entire STARTUP-calculation: 6.3 MB
-------------------------------------------------------------------------------
                                 ORCA GUESS
                   Start orbitals & Density for SCF / CASSCF
-------------------------------------------------------------------------------

------------
SCF SETTINGS
------------
Hamiltonian:
 Ab initio Hamiltonian  Method          .... Hartree-Fock(GTOs)


General Settings:
 Integral files         IntName         .... run_atom40
 Hartree-Fock type      HFTyp           .... ROHF
 Total Charge           Charge          ....    0
 Multiplicity           Mult            ....    3
 Number of Electrons    NEL             ....   12
 Basis Dimension        Dim             ....   29
 Nuclear Repulsion      ENuc            ....      0.0000000000 Eh

Convergence Acceleration:
 AO-DIIS                CNVDIIS         .... on
   Start iteration      DIISMaxIt       ....    12
   Startup error        DIISStart       ....  0.200000
   # of expansion vecs  DIISMaxEq       ....     8
   Bias factor          DIISBfac        ....   1.050
   Max. coefficient     DIISMaxC        ....  10.000
 MO-DIIS                CNVKDIIS        .... off
 Trust-Rad. Augm. Hess. CNVTRAH         .... off
 SOSCF                 CNVSOSCF           .... on
   Start iteration     SOSCFMaxIt         ....   150
   Startup grad/error  SOSCFStart         ....  0.000100
   Hessian update      SOSCFHessUp        .... L-BFGS
   Autom. constraints  SOSCFAutoConstrain .... off
 Level Shifting         CNVShift        .... on
   Level shift para.    LevelShift      ....    0.3000
   Turn off err/grad.   ShiftErr        ....    0.0010
 Zerner damping         CNVZerner       .... off
 Static damping         CNVDamp         .... on
   Fraction old density DampFac         ....    0.7000
   Max. Damping (<1)    DampMax         ....    0.9800
   Min. Damping (>=0)   DampMin         ....    0.0000
   Turn off err/grad.   DampErr         ....    0.1000

SCF Procedure:
 Maximum # iterations   MaxIter         ....  1000
 SCF integral mode      SCFMode         .... Direct
   Integral package                     .... SHARK and LIBINT hybrid scheme
 Reset frequency        DirectResetFreq ....    20
 Integral Threshold     Thresh          ....  1.000e-10 Eh
 Primitive CutOff       TCut            ....  1.000e-11 Eh

Convergence Tolerance:
 Convergence Check Mode ConvCheckMode   .... Total+1el-Energy
 Convergence forced     ConvForced      .... -1
 Energy Change          TolE            ....  1.000e-06 Eh
 1-El. energy change                    ....  1.000e-03 Eh
 Orbital Gradient       TolG            ....  5.000e-05
 Orbital Rotation angle TolX            ....  5.000e-05
 DIIS Error             TolErr          ....  1.000e-06


--------------------
INITIAL GUESS: HCORE
--------------------

Orthogonalizing HCORE                      ... done
Diagonalizing the Hamiltonian (no sym.)    ... done
Back transforming and storing orbitals     ... done
AVERAGE-CONFIGURATION (SAHF) CASE FOUND

-------------------
FINAL ROHF SETTINGS
-------------------
Number of operators             ... 3
  operator   0:   4 orbitals   8 electrons n(mue)= 2.000
  operator   1:   5 orbitals   2 electrons n(mue)= 0.400
  operator   2:   1 orbitals   2 electrons n(mue)= 2.000
Vector coupling coefficients a and b (Zerner convention):
   1.000    1.000    1.000           1.000    1.000    1.000 
   1.000    0.625    1.000           1.000    1.250    1.000 
   1.000    1.000    1.000           1.000    1.000    1.000 


   => ROHF data were saved in the ROHF file

Making the density                         ... done

                      -----------------
                      INTIAL GUESS DONE 
                      -----------------

             **** ENERGY FILE WAS UPDATED (run_atom40.en.tmp) ****
Finished Guess after   0.0 sec
Maximum memory used throughout the entire GUESS-calculation: 3.7 MB

-------------------------------------------------------------------------------------------
                                      ORCA LEAN-SCF
                              memory conserving SCF solver
-------------------------------------------------------------------------------------------

----------------------------------------D-I-I-S--------------------------------------------
Iteration    Energy (Eh)           Delta-E    RMSDP     MaxDP     DIISErr   Damp  Time(sec)
-------------------------------------------------------------------------------------------
               ***  Starting incremental Fock matrix formation  ***
    1    -43.2609290420701029     0.00e+00  1.28e-01  2.41e+00  7.57e-01  0.700   0.0
    2    -44.1074129470167833    -8.46e-01  9.16e-02  1.68e+00  4.01e-01  0.700   0.0
                               ***Turning on AO-DIIS***
    3    -44.6450783037794920    -5.38e-01  6.38e-02  1.18e+00  1.08e-01  0.700   0.0
    4    -44.9865541683830230    -3.41e-01  4.45e-02  8.25e-01  1.21e-01  0.700   0.0
    5    -45.2163226053679423    -2.30e-01  3.17e-02  5.77e-01  1.56e-01  0.700   0.0
    6    -45.3249126841166614    -1.09e-01  2.19e-02  4.04e-01  2.10e-01  0.700   0.0
    7    -45.4591006817933803    -1.34e-01  1.54e-02  2.83e-01  1.92e-01  0.700   0.0
    8    -45.5198383149645380    -6.07e-02  1.07e-02  1.98e-01  2.35e-01  0.700   0.0
    9    -45.5837677955315570    -6.39e-02  7.61e-03  1.39e-01  2.34e-01  0.700   0.0
   10    -45.6251025780196287    -4.13e-02  5.45e-03  9.71e-02  2.45e-01  0.700   0.0
   11    -45.7038803940560285    -7.88e-02  3.72e-03  6.79e-02  2.08e-01  0.700   0.0
   12    -45.7375009963450339    -3.36e-02  2.46e-03  4.76e-02  2.39e-01  0.700   0.0
   13    -45.7624027962427249    -2.49e-02  3.12e-03  5.29e-02  2.42e-01  0.700   0.0
   14    -45.8349890028234057    -7.26e-02  9.56e-02  1.48e+00  1.67e-01  0.700   0.0
   15    -45.7202492745336500     1.15e-01  6.53e-02  1.06e+00  2.04e-02  0.700   0.0
   16    -45.6746448199949384     4.56e-02  1.53e-01  2.48e+00  6.17e-02  0.000   0.0
   17    -45.6456217945534561     2.90e-02  3.15e-03  4.97e-02  7.48e-02  0.000   0.0
   18    -45.6514791312318593    -5.86e-03  5.46e-02  1.16e+00  8.31e-02  0.000   0.0
   19    -45.8201798102413349    -1.69e-01  1.45e-01  3.20e+00  1.51e-01  0.000   0.0
   20    -46.1784674984343440    -3.58e-01  5.45e-03  9.52e-02  6.43e-02  0.700   0.0
               *** Restarting incremental Fock matrix formation ***
                             ****Resetting DIIS****
   21    -46.1865662028541522    -8.10e-03  4.59e-02  9.29e-01  6.10e-02  0.000   0.0
   22    -45.8964154392293224     2.90e-01  4.08e-03  7.84e-02  9.36e-02  0.000   0.0
   23    -45.9293924737626185    -3.30e-02  1.81e-03  3.55e-02  7.90e-02  0.000   0.0
   24    -45.9414885403656825    -1.21e-02  1.49e-03  2.88e-02  7.18e-02  0.000   0.0
   25    -45.9504105612885567    -8.92e-03  1.68e-03  3.17e-02  6.57e-02  0.000   0.0
   26    -45.9594335538027607    -9.02e-03  2.39e-03  4.33e-02  5.88e-02  0.000   0.0
   27    -45.9704884292348552    -1.11e-02  3.96e-03  6.73e-02  4.89e-02  0.000   0.0
   28    -45.9847563877427064    -1.43e-02  5.67e-03  8.29e-02  3.27e-02  0.000   0.0
   29    -45.9977144450971380    -1.30e-02  5.09e-03  6.54e-02  1.41e-02  0.000   0.0
   30    -46.0042241150554645    -6.51e-03  2.87e-03  4.05e-02  1.14e-02  0.000   0.0
   31    -46.0072632412487224    -3.04e-03  4.50e-03  6.31e-02  1.01e-02  0.000   0.0
   32    -46.0111760270625396    -3.91e-03  7.38e-03  1.00e-01  8.07e-03  0.000   0.0
   33    -46.0153054976193374    -4.13e-03  3.49e-03  5.15e-02  4.76e-03  0.000   0.0
   34    -46.0163893164344273    -1.08e-03  1.08e-03  1.77e-02  3.14e-03  0.000   0.0
   35    -46.0166781753974234    -2.89e-04  1.85e-03  3.03e-02  2.60e-03  0.000   0.0
   36    -46.0170576517153336    -3.79e-04  2.54e-03  4.27e-02  1.67e-03  0.000   0.0
   37    -46.0173049364287081    -2.47e-04  6.30e-04  1.09e-02  3.98e-04  0.000   0.0
   38    -46.0173185964636104    -1.37e-05  1.16e-04  1.90e-03  2.23e-04  0.000   0.0
   39    -46.0173194566519754    -8.60e-07  9.13e-05  1.18e-03  1.85e-04  0.000   0.0
                 **** Energy Check signals convergence ****

               *****************************************************
               *                     SUCCESS                       *
               *           SCF CONVERGED AFTER  39 CYCLES          *
               *****************************************************

             **** ENERGY FILE WAS UPDATED (run_atom40.en.tmp) ****

----------------
TOTAL SCF ENERGY
----------------

Total Energy       :        -46.01732000169400 Eh           -1252.19494 eV

Components:
Nuclear Repulsion  :          0.00000000000000 Eh               0.00000 eV
Electronic Energy  :        -46.01732000169400 Eh           -1252.19494 eV
One Electron Energy:        -74.62087480616006 Eh           -2030.53723 eV
Two Electron Energy:         28.60355480446606 Eh             778.34230 eV

Virial components:
Potential Energy   :        -60.41995580728589 Eh           -1644.11058 eV
Kinetic Energy     :         14.40263580559188 Eh             391.91564 eV
Virial Ratio       :          4.19506239155388

---------------
SCF CONVERGENCE
---------------

  Last Energy change         ...    8.6019e-07  Tolerance :   1.0000e-06
  Last MAX-Density change    ...    1.1766e-03  Tolerance :   1.0000e-05
  Last RMS-Density change    ...    9.1339e-05  Tolerance :   1.0000e-06
  Last DIIS Error            ...    1.8525e-04  Tolerance :   1.0000e-06


----------------
ORBITAL ENERGIES
----------------

  NO   OCC          E(Eh)            E(eV) 
   0   2.0000      -2.828036       -76.9548 
   1   2.0000      -1.788516       -48.6680 
   2   2.0000      -1.788515       -48.6680 
   3   2.0000      -1.777461       -48.3672 
   4   0.4000      -0.420001       -11.4288 
   5   0.4000      -0.483259       -13.1501 
   6   0.4000      -0.461426       -12.5561 
   7   0.4000      -0.226405        -6.1608 
   8   0.4000      -0.226397        -6.1606 
   9   2.0000      -0.160857        -4.3771 
  10   0.0000      -0.115741        -3.1495 
  11   0.0000      -0.105117        -2.8604 
  12   0.0000      -0.105116        -2.8603 
  13   0.0000       0.078985         2.1493 
  14   0.0000       0.197037         5.3616 
  15   0.0000       0.205350         5.5878 
  16   0.0000       0.208793         5.6816 
  17   0.0000       0.214891         5.8475 
  18   0.0000       0.214894         5.8476 
  19   0.0000       0.219605         5.9758 
  20   0.0000       0.219623         5.9762 
*Only the first 10 virtual orbitals were printed.

Warning: MO coefficients are modified such that the real solid harmonic m components
have the correct order within each shell (0, +1, -1, +2, -2, ...) and all s orbitals
come before all p orbitals etc. (with increasing orbital energy within each block of given angular momentum).

CleanUpVectors: The p-vectors have cracked symmetry
CleanUpVectors: The p-vectors have cracked symmetry
CleanUpVectors: The p-vectors have cracked symmetry
CleanUpVectors: The d-vectors have cracked symmetry at i=5
CleanUpVectors: The d-vectors have cracked symmetry at i=6
CleanUpVectors: The p-vectors have cracked symmetry
CleanUpVectors: The p-vectors have cracked symmetry
CleanUpVectors: The p-vectors have cracked symmetry
CleanUpVectors: The d-vectors have cracked symmetry at i=10
CleanUpVectors: The d-vectors have cracked symmetry at i=11
CleanUpVectors: The d-vectors have cracked symmetry at i=12
CleanUpVectors: The d-vectors have cracked symmetry at i=14
CleanUpVectors: The d-vectors have cracked symmetry at i=15
CleanUpVectors: The d-vectors have cracked symmetry at i=16
CleanUpVectors: The d-vectors have cracked symmetry at i=17
CleanUpVectors: The d-vectors have cracked symmetry at i=18
CleanUpVectors: The p-vectors have cracked symmetry
CleanUpVectors: The p-vectors have cracked symmetry
CleanUpVectors: The p-vectors have cracked symmetry
CleanUpVectors: The d-vectors have cracked symmetry at i=22
CleanUpVectors: The d-vectors have cracked symmetry at i=23
CleanUpVectors: The d-vectors have cracked symmetry at i=24
--------------------------
ATOM BASIS FOR ELEMENT Zr
--------------------------
 NewGTO Zr
 S 7
    1          5.873789000000        -0.551231507746
    2          4.287270000000         0.967643223509
    3          1.464137000000         0.139230637340
    4          0.837276823400        -0.915181599569
    5          0.368498065100        -0.452804916745
    6          0.077806859100        -0.002933833719
    7          0.030273088300        -0.000837630190
 P 18
    1          2.874224000000        -0.011443544768
    2          2.119901000000         0.011261683209
    3          0.788458211100         0.014445266960
    4          0.363325798500         0.008792307698
    5          2.874224000000         0.005723213403
    6          2.119901000000        -0.005632259722
    7          0.788458211100        -0.007224452488
    8          0.363325798500        -0.004397261013
    9          2.874224000000         0.476535024415
   10          2.119901000000        -0.468961898757
   11          0.788458211100        -0.601533509312
   12          0.363325798500        -0.366131530781
   13          0.149517620200         0.000398615289
   14          0.149517620200        -0.000199357840
   15          0.149517620200        -0.016599240050
   16          0.030000000000         0.000090499021
   17          0.030000000000        -0.000045260907
   18          0.030000000000        -0.003768583449
 S 7
    1          5.873789000000        -0.249961330480
    2          4.287270000000         0.438787304752
    3          1.464137000000         0.063135497271
    4          0.837276823400        -0.580822445816
    5          0.368498065100        -0.273937326320
    6          0.077806859100         1.110351181816
    7          0.030273088300         0.081843077571
 S 7
    1          5.873789000000        -0.122045093366
    2          4.287270000000         0.214240488612
    3          1.464137000000         0.030826278786
    4          0.837276823400        -0.210638367434
    5          0.368498065100        -0.450981572852
    6          0.077806859100         2.178398917459
    7          0.030273088300        -2.100914661786
 D 18
    1          5.873789000000         0.000066566523
    2          4.287270000000        -0.000160093835
    3          1.464137000000        -0.000067451759
    4          0.837276823400         0.001198066458
    5          0.368498065100         0.000431170235
    6          0.077806859100        -0.018383244841
    7          0.030273088300        -0.004147713025
    8          4.289862387800        -0.010959382848
    9          1.361555749800         0.176712633686
   10          0.569375506900         0.377411657400
   11          4.289862387800         0.002477945421
   12          1.361555749800        -0.039955193425
   13          0.569375506900        -0.085333773017
   14          4.289862387800        -0.000649848641
   15          1.361555749800         0.010478369678
   16          0.569375506900         0.022379038694
   17          4.289862387800        -0.006821363526
   18          1.361555749800         0.109989871755
 D 18
    1          4.289862387800         0.000468898299
    2          1.361555749800        -0.007560667834
    3          0.569375506900        -0.016147595783
    4          4.289862387800        -0.000188490472
    5          1.361555749800         0.003039281338
    6          0.569375506900         0.006491104701
    7          4.289862387800        -0.011266185661
    8          1.361555749800         0.181659621476
    9          0.569375506900         0.387977120785
   10          4.289862387800         0.000323829066
   11          1.361555749800        -0.005221524602
   12          0.569375506900        -0.011151801731
   13          4.289862387800         0.002207513655
   14          1.361555749800        -0.035594664159
   15          0.569375506900        -0.076020830626
   16          0.226749486800        -0.017108261601
   17          0.226749486800         0.006877278748
   18          0.226749486800         0.411058969219
 D 18
    1          5.873789000000         0.000152410762
    2          4.287270000000        -0.000366550966
    3          1.464137000000        -0.000154437598
    4          0.837276823400         0.006170516709
    5          0.368498065100        -0.024077229157
    6          0.077806859100         0.200952498054
    7          0.030273088300        -0.436328074535
    8          4.289862387800         0.002522889979
    9          1.361555749800        -0.040679894011
   10          0.569375506900        -0.086881542656
   11          4.289862387800        -0.001857045954
   12          1.361555749800         0.029943609594
   13          0.569375506900         0.063951665988
   14          4.289862387800         0.000013770142
   15          1.361555749800        -0.000222034228
   16          0.569375506900        -0.000474206649
   17          4.289862387800        -0.004724613887
   18          1.361555749800         0.076181202422
 P 18
    1          2.874224000000         0.064228632954
    2          2.119901000000        -0.063207907334
    3          0.788458211100        -0.081076254629
    4          0.363325798500        -0.049348162252
    5          2.874224000000         0.327152079210
    6          2.119901000000        -0.321952957050
    7          0.788458211100        -0.412966368059
    8          0.363325798500        -0.251357582176
    9          2.874224000000        -0.002386724731
   10          2.119901000000         0.002348794746
   11          0.788458211100         0.003012779396
   12          0.363325798500         0.001833769051
   13          0.149517620200         0.261944706543
   14          0.149517620200         1.334229788834
   15          0.149517620200        -0.009733819334
   16          0.030000000000        -0.170553104434
   17          0.030000000000        -0.868721630291
   18          0.030000000000         0.006337723435
 D 18
    1          5.873789000000         0.000425636866
    2          4.287270000000        -0.001023665270
    3          1.464137000000        -0.000431297201
    4          0.837276823400         0.010987562164
    5          0.368498065100        -0.018332582860
    6          0.077806859100        -0.031992743182
    7          0.030273088300         0.107667142758
    8          4.289862387800         0.010847458260
    9          1.361555749800        -0.174907925428
   10          0.569375506900        -0.373557275737
   11          4.289862387800        -0.007990197838
   12          1.361555749800         0.128836534251
   13          0.569375506900         0.275160914707
   14          4.289862387800         0.000058613737
   15          1.361555749800        -0.000945106854
   16          0.569375506900        -0.002018499396
   17          4.289862387800        -0.020341489189
   18          1.361555749800         0.327992750812
 end
-------------------------------------------
RADIAL EXPECTATION VALUES <R**-3> TO <R**3>
-------------------------------------------
   0 :     0.000007     0.890946     0.897009     1.230984     1.670498     2.495400
   1 :     0.761739     0.741173     0.812936     1.374772     2.106206     3.586553
   2 :     0.761741     0.741175     0.812937     1.374769     2.106196     3.586525
   3 :     0.757600     0.737798     0.810540     1.383031     2.150023     3.821837
   4 :     0.006344     0.172578     0.355629     3.361825    12.710310    53.915652
   5 :     0.342842     0.408460     0.585304     2.025276     4.832113    67.387315
   6 :     0.336451     0.402951     0.579562     2.065491     5.096983    69.017388
   7 :     0.079294     0.117218     0.283649     4.508534    24.471944   155.037524
   8 :     0.079314     0.117241     0.283678     4.508096    24.467492   154.999169
   9 :     0.062843     0.096094     0.253410     5.028665    29.881177   202.212215
  10 :     0.284642     0.352535     0.536225     2.284068     6.345445   105.568236
  11 :     0.281898     0.349471     0.533057     2.307038     6.499075   109.899667
  12 :     0.281900     0.349473     0.533059     2.307029     6.499027   109.898487
  13 :     0.000128     0.057245     0.190262     6.438652    45.740382   346.164441
  14 :     0.062336     0.098182     0.258947     4.649507    23.603410   632.513711
  15 :     0.097887     0.134969     0.293890     4.437153    22.297285   598.419101
  16 :     0.066262     0.102007     0.262478     4.625880    23.442912   627.089756
  17 :     0.103651     0.140723     0.299294     4.401198    22.054426   591.359417
  18 :     0.103651     0.140722     0.299294     4.401200    22.054433   591.359436
  19 :     0.103044     0.131890     0.279071     5.283418    35.085114   264.791976
  20 :     0.103062     0.131911     0.279099     5.282983    35.080672   264.753649
  21 :     0.123654     0.156411     0.311735     4.754589    29.627612   217.343647
  22 :     0.414251     0.412748     0.538112     2.688316     9.724643   217.369259
  23 :     0.436908     0.431892     0.552254     2.641845     9.517240   213.284007
  24 :     0.410168     0.409211     0.535182     2.705376     9.842660   220.941184
  25 :     0.433888     0.429203     0.550018     2.654830     9.606468   216.012260
  26 :     0.433886     0.429201     0.550016     2.654837     9.606509   216.013421
  27 :     0.000087     0.523237     0.602876     2.512466     9.635078    52.800149
  28 :     0.000000    10.991160     2.693090     0.528867     0.550949     1.666937
Making the total density                ... o.k.
Making exponents                        ... done
Making rho(0)                           ... done (         0.000832170)
Integral calculation                    ... Solving the equation system             ... done
atomic density will be written to file run_atom40.adf

-------
TIMINGS
-------

Total SCF time: 0 days 0 hours 0 min 0 sec 

Total time                  ....       0.667 sec
Sum of individual times     ....       0.615 sec  ( 92.2%)

SCF preparation             ....       0.025 sec  (  3.8%)
Fock matrix formation       ....       0.501 sec  ( 75.2%)
  Startup                   ....       0.002 sec  (  0.5% of F)
  Coulomb+Exchange Fock     ....       0.491 sec  ( 97.9% of F)
Diagonalization             ....       0.000 sec  (  0.0%)
Density matrix formation    ....       0.025 sec  (  3.8%)
Total Energy calculation    ....       0.003 sec  (  0.4%)
Population analysis         ....       0.000 sec  (  0.0%)
Orbital Transformation      ....       0.001 sec  (  0.2%)
Orbital Orthonormalization  ....       0.000 sec  (  0.0%)
DIIS solution               ....       0.059 sec  (  8.8%)
SOSCF solution              ....       0.000 sec  (  0.0%)
Finished LeanSCF after   0.7 sec

Maximum memory used throughout the entire LEANSCF-calculation: 5.9 MB

-------------------------   --------------------
FINAL SINGLE POINT ENERGY       -46.017320001694
-------------------------   --------------------


------------------------------------------------------------------------------
                              ORCA PROPERTY CALCULATIONS
------------------------------------------------------------------------------

GBWName                                 ... run_atom40.gbw
Number of atoms                         ...      1
Number of basis functions               ...     29
Max core memory                         ...   4096 MB

Electric properties:
Dipole moment                           ... YES
Quadrupole moment                       ...  NO
Static polarizability (Dipole/Dipole)   ...  NO
Static polarizability (Dipole/Quad.)    ...  NO
Static polarizability (Quad./Quad.)     ...  NO
Static polarizability (Velocity)        ...  NO
Static hyperpolarizability              ...  NO

Atomic electric properties:
Dipole moment                           ...  NO
Quadrupole moment                       ...  NO
Static polarizability                   ...  NO

Choice of electric origin               ... Center of mass
Position of electric origin             ...     0.000000     0.000000     0.000000

General magnetic properties:
Magnetizability                         ...  NO

EPR properties:
g-Tensor (aka g-matrix)                 ...  NO
Zero-Field splitting spin-orbit         ...  NO
Zero-field splitting spin-spin          ...  NO
Hyperfine couplings                     ...  NO (   0 nuclei)
Quadrupole couplings                    ...  NO (   0 nuclei)
Contact density                         ...  NO (   0 nuclei)

NMR properties:
Chemical shifts                         ...  NO (   0 nuclei)
Spin-rotation constants                 ...  NO (   0 nuclei)
Spin-spin couplings                     ...  NO (   0 nuclei,    0 pairs)

Choice of magnetic origin               ... GIAO
Position of magnetic origin             ...     0.000000     0.000000     0.000000

Properties with geometric perturbations:
SCF Hessian                             ...  NO
IR spectrum                             ...  NO
VCD spectrum                            ...  NO
X-ray spectroscopy properties:
SCF XES/XAS/RIXS spectra                ...  NO

SCF SOC stabilization energy            ...  NO
Diagonal Born-Oppenheimer correction    ...  NO

-------------
DIPOLE MOMENT
-------------

Method             : SCF
Type of density    : Electron Density
Multiplicity       :   3
Irrep              :   0
Energy             :   -46.0173200016940029 Eh
Basis              : AO
                                X                 Y                 Z
Electronic contribution:     -0.000000001      -0.000000000       0.000000001
Nuclear contribution   :      0.000000000       0.000000000       0.000000000
                        -----------------------------------------
Total Dipole Moment    :     -0.000000001      -0.000000000       0.000000001
                        -----------------------------------------
Magnitude (a.u.)       :      0.000000001
Magnitude (Debye)      :      0.000000003



--------------------
Rotational spectrum 
--------------------
 
Rotational constants in cm-1:             0.000000             0.000000             0.000000 
Rotational constants in MHz :             0.000000             0.000000             0.000000 

Dipole components along the rotational axes: 
x,y,z [a.u.] :    -0.000000    -0.000000     0.000000 
x,y,z [Debye]:    -0.000000    -0.000000     0.000000 

 

Dipole moment calculation done in   0.0 sec 

Maximum memory used throughout the entire PROP-calculation: 1.5 MB

--------------------------------
SUGGESTED CITATIONS FOR THIS RUN
--------------------------------

Below you find a list of papers that are relevant to this ORCA run
We neither can nor want to force you to cite these papers, but we appreciate if you do
You receive ORCA, which is the product of decades of hard work by many enthusiastic individuals, for free
The only thing we kindly ask in return is that you cite our papers,
We deeply appreciate it, if you show your appreciation for ORCA by not just citing the generic ORCA reference.

Please note that relegating all ORCA citations to the supporting information does *not* help us.
SI sections are not indexed - citations you put there will not count into any citation statistics
But we need these citations in order to attract the funding resources that allow us to do what we are doing

Therefore, if you are a happy ORCA user, please consider citing a few of the papers listed below in the main body of your paper

In addition to the list printed below, the program has created the file run_atom40.bibtex that contains the list in bibtex format
You can import this file easily into all common literature databanks and citation aid programs


List of essential papers. We consider these as the minimum necessary citations

  1. Neese, F.
     Software update: the ORCA program system, version 6.0
     WIRES Comput. Molec. Sci. 2025 15(1), e70019
     doi.org/10.1002/wcms.7019

List of papers to cite with high priority. The work reported in these papers was absolutely
necessary for this run to complete.
Our perspective: the developers of density functionals and basis sets usually get cited in chemistry papers
Good! But without the algorithms to do something with them, the functionals or basis sets would not do anything.
Hence, in our opinion, the algorithm design and method developments papers are equally worthy of getting cited

  1. Neese, F.
     The SHARK Integral Generation and Digestion System
     J. Comp. Chem. 2022 44(3), 381
     doi.org/10.1002/jcc.26942

List of suggested additional citations. These are papers that are important in the 'surrounding' of 
of this run, or papers that preceded the highly important papers. If you like your results we are grateful for a citation.

  1. Neese, F.
     The ORCA program system
     WIRES Comput. Molec. Sci. 2012 2(1), 73-78
     doi.org/10.1002/wcms.81
  2. Neese, F.
     Software update: the ORCA program system, version 4.0
     WIRES Comput. Molec. Sci. 2018 8(1), 1-6
     doi.org/10.1002/wcms.1327
  3. Neese, F.; Wennmohs, F.; Becker, U.; Riplinger, C.
     The ORCA quantum chemistry program package
     J. Chem. Phys. 2020 152(22), 224108
     doi.org/10.1063/5.0004608
  4. Neese, F.
     Software update: The ORCA program system—Version 5.0
     WIRES Comput. Molec. Sci. 2022 12(1), e1606
     doi.org/10.1002/wcms.1606

List of optional additional citations

  1. Neese, F.
     Approximate second-order SCF convergence for spin unrestricted wavefunctions
     Chem. Phys. Lett. 2000 325(1-3), 93-98
     doi.org/10.1016/s0009-2614(00)00662-x

Timings for individual modules:

Sum of individual times          ...        1.282 sec (=   0.021 min)
Startup calculation              ...        0.499 sec (=   0.008 min)  38.9 %
SCF iterations                   ...        0.739 sec (=   0.012 min)  57.6 %
Property calculations            ...        0.044 sec (=   0.001 min)   3.5 %
                             ****ORCA TERMINATED NORMALLY****
TOTAL RUN TIME: 0 days 0 hours 0 minutes 1 seconds 359 msec
