
                                 *****************
                                 * O   R   C   A *
                                 *****************

                                            #,                                       
                                            ###                                      
                                            ####                                     
                                            #####                                    
                                            ######                                   
                                           ########,                                 
                                     ,,################,,,,,                         
                               ,,#################################,,                 
                          ,,##########################################,,             
                       ,#########################################, ''#####,          
                    ,#############################################,,   '####,        
                  ,##################################################,,,,####,       
                ,###########''''           ''''###############################       
              ,#####''   ,,,,##########,,,,          '''####'''          '####       
            ,##' ,,,,###########################,,,                        '##       
           ' ,,###''''                  '''############,,,                           
         ,,##''                                '''############,,,,        ,,,,,,###''
      ,#''                                            '''#######################'''  
     '                                                          ''''####''''         
             ,#######,   #######,   ,#######,      ##                                
            ,#'     '#,  ##    ##  ,#'     '#,    #''#        ,####,    ,#,          
            ##       ##  ##   ,#'  ##            #'  '#       #'       ,# #          
            ##       ##  #######   ##           ,######,      #####,      #          
            '#,     ,#'  ##    ##  '#,     ,#' ,#      #,     #,   #      #          
             '#######'   ##     ##  '#######'  #'      '#     '####' #    #          



                #########################################################
                #                        -***-                          #
                #          Department of theory and spectroscopy        #
                #                                                       #
                #                      Frank Neese                      #
                #                                                       #
                #     Directorship, Architecture, Infrastructure        #
                #                    SHARK, DRIVERS                     #
                #        Core code/Algorithms in most modules           #
                #                                                       #
                #        Max Planck Institute fuer Kohlenforschung      #
                #                Kaiser Wilhelm Platz 1                 #
                #                 D-45470 Muelheim/Ruhr                 #
                #                      Germany                          #
                #                                                       #
                #                  All rights reserved                  #
                #                        -***-                          #
                #########################################################


                         Program Version 6.1.0  -  RELEASE   -
                                (GIT: $679e74b$)
                          ($2025-06-10 18:02:51 +0200$)


 With contributions from (in alphabetic order):
[Max-Planck-Institut fuer Kohlenforschung]                               
  Daniel Aravena         : Magnetic Suceptibility                        
  Michael Atanasov       : Ab Initio Ligand Field Theory (pilot matlab implementation)
  Alexander A. Auer      : GIAO ZORA, VPT2 properties, NMR spectrum      
  Ute Becker             : All parallelization in ORCA, NUMFREQ, NUMCALC 
  Giovanni Bistoni       : ED, misc. LED, open-shell LED, HFLD           
  Dmytro Bykov           : pre 5.0 version of the SCF Hessian            
  Marcos Casanova-Páez   : Triplet and SCS-CIS(D). UHF-(DLPNO)-IP/EA/STEOM-CCSD. UHF-CVS-IP/STEOM-CCSD   
  Vijay G. Chilkuri      : MRCI spin determinant printing, contributions to CSF-ICE 
  Pauline Colinet        : FMM embedding                                 
  Dipayan Datta          : RHF DLPNO-CCSD density                        
  Achintya Kumar Dutta   : EOM-CC, STEOM-CC                              
  Nicolas Foglia         : Exact transition moments, OPA infrastructure, MCD improvements    
  Dmitry Ganyushin       : Spin-Orbit,Spin-Spin,Magnetic field MRCI      
  Miquel Garcia-Rates    : C-PCM and meta-GGA Hessian, CCSD/C-PCM, Gaussian charge scheme 
  Tiago L. C. Gouveia    : GS-ROHF, GS-ROCIS                             
  Yang Guo               : DLPNO-NEVPT2, F12-NEVPT2, CIM, IAO-localization        
  Andreas Hansen         : Spin unrestricted coupled pair/coupled cluster methods 
  Ingolf Harden          : AUTO-CI MPn and infrastructure                
  Benjamin Helmich-Paris : MC-RPA, TRAH-(SCF,CASSCF), AVAS, COSX integrals, SCF dyn. polar., MC-PDFT, srDFT 
  Lee Huntington         : MR-EOM, pCC                                   
  Robert Izsak           : Overlap fitted RIJCOSX, COSX-SCS-MP3, EOM     
  Riya Kayal             : Wick's Theorem for AUTO-CI, AUTO-CI UHF-CCSDT 
  Emily Kempfer          : AUTO-CI RHF CISDT and CCSDT, approximate NEVPT4
  Christian Kollmar      : KDIIS, OOCD, Brueckner-CCSD(T), CCSD density, CASPT2, CASPT2-K, improved NEVPT2 
  Axel Koslowski         : Symmetry handling                             
  Simone Kossmann        : meta-GGA functionals, TD-DFT gradient, OOMP2, (MP2 Hessian; deprecated post 5.0) 
  Lucas Lang             : DCDCAS, Hyperfine gauge corrections, ICE-SOC+SSC
  Marvin Lechner         : AUTO-CI (C++ implementation), FIC-MRCC        
  Spencer Leger          : CASSCF response                               
  Dagmar Lenk            : GEPOL surface, SMD, ORCA-2-JSON               
  Dimitrios Liakos       : Extrapolation schemes; Compound Job, Property file
  Dimitrios Manganas     : Further ROCIS development; embedding schemes. LFT, Crystal Embedding 
  Dimitrios Pantazis     : SARC Basis sets                               
  Anastasios Papadopoulos: AUTO-CI, single reference methods and gradients 
  Taras Petrenko         : pre 6.0 DFT Hessian and TD-DFT gradient,  ECA, NRVS 
  Petra Pikulova         : Analytic Raman intensities                    
  Peter Pinski           : DLPNO-MP2, DLPNO-MP2 Gradient                 
  Shashank Vittal Rao    : ES-AILFT, MagRelax                            
  Christoph Reimann      : Effective Core Potentials                     
  Marius Retegan         : Local ZFS, SOC                                
  Christoph Riplinger    : Optimizer, TS searches, QM/MM, DLPNO-CCSD(T), (RO)-DLPNO pert. Triples 
  Michael Roemelt        : Original ROCIS implementation, recursive CI coupling coefficients
  Masaaki Saitow         : Open-shell DLPNO-CCSD energy and density      
  Barbara Sandhoefer     : DKH picture change effects                    
  Yorick L. A. Schmerwitz: GMF and freeze-and-release deltaSCF, NEB S-IDPP initial path                    
  Kantharuban Sivalingam : CASSCF convergence/infrastructure, NEVPT2, NEVPT3, NEVPT4(SD), FIC-MRCI and CEPA variants
  Bernardo de Souza      : ESD, SOC TD-DFT                               
  Georgi L. Stoychev     : AutoAux, RI-MP2 NMR, DLPNO-MP2 response, X2C  
  Van Anh Tran           : RI-MP2 g-tensors                              
  Willem Van den Heuvel  : Paramagnetic NMR                              
  Zikuan Wang            : NOTCH, Electric field optimization            
  Frank Wennmohs         : Technical directorship and infrastructure     
  Hang Xu                : AUTO-CI-Response properties                   
                                                                         
[FACCTs GmbH]                                                            
  Markus Bursch, Nicolas Foglia, Miquel Garcia-Rates, Ingolf Harden, Hagen Neugebauer, Anastasios Papadopoulos, 
  Christoph Riplinger, Bernardo de Souza, Georgi L. Stoychev                                                    
                                                                 
  APM, various basis sets, CI-OPT, improved COSX, DLPNO-Multilevel,           
  DOCKER, DRACO, updates on ESD, Fragmentator, GOAT, IRC, LR-CPCM, L-BFGS, MBIS, meta-GGA TD-DFT gradient, ML-optimized integration grids, 
  MM, NACMEs, nearIR, NEB, NEB-TS, NL-DFT gradient (VV10), 2- and 3-layer-ONIOM, interface openCOSMO-RS, QMMM,   
  Crystal-QMMM, RESP, rigid body optimization, SF, symmetry and pop. for TD-DFT, various functionals, SOLVATOR                                   
                                                                         
[Other institutions]                                                     
  V. Asgeirsson          : NEB                                           
  Christoph Bannwarth    : sTDA-DFT, sTD-DFT, PBEh-3c, B97-3c, D3        
  Giovanni Bistoni       : ETS/NOCV, ADLD/ADEX, COVALED                  
  Martin Brehm           : Molecular dynamics                            
  Ronald Cardenas        : ETS/NOCV                                      
  Martina Colucci        : COVALED                                       
  Sebastian Ehlert       : rSCAN, r2SCAN, r2SCAN-3c, D4, dhf basis sets  
  Marvin Friede          : D4 for Fr, Ra, Ac-Lr                          
  Lars Goerigk           : TD-DFT with DH, B97 family of functionals     
  Stefan Grimme          : VdW corrections, initial TS optimization, DFT functionals, gCP, sTDA/sTD-DF 
  Waldemar Hujo          : DFT-NL                                        
  H. Jonsson             : NEB                                           
  Holger Kruse           : gCP                                           
  Marcel Mueller         : wB97X-3c, vDZP basis set                      
  Hagen Neugebauer       : wr2SCAN, Native XTB                           
  Gianluca Regni         : ADLD/ADEX                                     
  Tobias Risthaus        : pre 6.0 range-separated hybrid DFT and stability analysis
  Lukas Wittmann         : regularized MP2, r2SCAN double-hybrids, wr2SCAN        
                                                                         
We gratefully acknowledge several colleagues who have allowed us to      
interface, adapt or use parts of their codes:                            
  Ed Valeev, F. Pavosevic, A. Kumar             : LibInt (2-el integral package), F12 methods 
  Garnet Chan, S. Sharma, J. Yang, R. Olivares  : DMRG                   
  Ulf Ekstrom                                   : XCFun DFT Library      
  Mihaly Kallay                                 : mrcc  (arbitrary order and MRCC methods)
  Frank Weinhold                                : gennbo (NPA and NBO analysis)           
  Simon Mueller                                 : openCOSMO-RS                            
  Christopher J. Cramer and Donald G. Truhlar   : smd solvation model                     
  S Lehtola, MJT Oliveira, MAL Marques          : LibXC Library                           
  Liviu Ungur et al                             : ANISO software                          


 Your calculation uses the libint2 library for the computation of 2-el integrals
 For citations please refer to: http://libint.valeyev.net

 Your ORCA version has been built with support for libXC version: 7.0.0
 For citations please refer to: https://libxc.gitlab.io

 This ORCA versions uses:
   CBLAS   interface :  Fast vector & matrix operations
   LAPACKE interface :  Fast linear algebra routines
   SCALAPACK package :  Parallel linear algebra routines
   Shared memory     :  Shared parallel matrices
   BLAS/LAPACK       :  OpenBLAS 0.3.29  USE64BITINT DYNAMIC_ARCH NO_AFFINITY Bulldozer SINGLE_THREADED
        Core in use  :  Bulldozer
   Copyright (c) 2011-2014, The OpenBLAS Project


  ***********************************
  * Starting time: Sun Aug 17 23:00:55 2025
  * Host name:     chromium05
  * Process ID:    456948
  * Working dir.:  /local/scratch/mehlhorn/62112
  ***********************************



***************************************
The coordinates will be read from file: start.xyz
***************************************


Your calculation utilizes the geometrical counterpoise correction gCP
Please cite in your paper:
H.Kruse, S. Grimme J.Chem.Phys., 136, (2012), 154101 
   

Your calculation utilizes the atom-pairwise dispersion correction
with the Becke-Johnson damping scheme (D3BJ)


Your calculation employs the composite approach PBEh-3c.
Please cite in your paper:
Grimme, S.; Brandenburg, J. G.; Bannwarth, C.; Hansen A. J. Chem. Phys. 2015, 143, 054107 
   

================================================================================

----- Orbital basis set information -----
Your calculation utilizes the basis: def2-mSVP

----- AuxJ basis set information -----
Your calculation utilizes the auxiliary basis: def2-mSVP/J
================================================================================
                                        WARNINGS
                       Please study these warnings very carefully!
================================================================================


WARNING: Geometry Optimization
  ===> : Switching off AutoStart
         For restart on a previous wavefunction, please use MOREAD

================================================================================
                                       INPUT FILE
================================================================================
NAME = run.inp
|  1> # Geometry optimization for (AlH3)n cluster
|  2> 
|  3> %pal nprocs 24  end
|  4> 
|  5> %geom MaxIter 500 end
|  6> 
|  7> %cpcm
|  8> 	epsilon 1.95778548766667
|  9> end
| 10> 
| 11> %elprop Polar 1 end # invoke raman
| 12> 
| 13> ! PBEh-3c
| 14> ! RKS	# closed shell for AlH3
| 15> ! Freq 	# Frequency analysis to check the stabiltity of the structures
| 16> 
| 17> 
| 18> ! NoPop # population analysis not necessary	
| 19> 
| 20> ! DEFGRID3
| 21> ! ExtremeSCF
| 22> ! VeryTightOpt
| 23> 
| 24> 
| 25> ! SmallPrint
| 26> 
| 27> 
| 28> * xyzFile 0 1 start.xyz # only maingroup elements H and Al so there should be no net spin
| 29> 
| 30>                          ****END OF INPUT****
================================================================================

                       *****************************
                       * Geometry Optimization Run *
                       *****************************

Geometry optimization settings:
Update method            Update   .... BFGS
Choice of coordinates    CoordSys .... (2022) Redundant Internals
Initial Hessian          InHess   .... Almloef's Model
Max. no of cycles        MaxIter  .... 500

Convergence Tolerances:
Energy Change            TolE     ....  2.0000e-07 Eh
Max. Gradient            TolMAXG  ....  3.0000e-05 Eh/bohr
RMS Gradient             TolRMSG  ....  8.0000e-06 Eh/bohr
Max. Displacement        TolMAXD  ....  2.0000e-04 bohr
RMS Displacement         TolRMSD  ....  1.0000e-04 bohr
Strict Convergence                .... False

------------------------------------------------------------------------------
                        ORCA OPTIMIZATION COORDINATE SETUP
------------------------------------------------------------------------------

The optimization will be done in redundant internal coordinates (2022)
Making redundant internal coordinates   ...  (2022 redundants) done
Evaluating the initial hessian          ...  (Almloef) done
Evaluating the coordinates              ...  done
Calculating the B-matrix                .... done
Calculating the G-matrix                .... done
The number of degrees of freedom        ....   51

    -----------------------------------------------------------------
                    Redundant Internal Coordinates


    -----------------------------------------------------------------
         Definition                    Initial Value    Approx d2E/dq
    -----------------------------------------------------------------
      1. B(Al  1,Al  0)                  2.6134         0.342843   
      2. B(H   2,Al  0)                  1.7504         0.223024   
      3. B(H   2,Al  1)                  1.7504         0.223024   
      4. B(H   3,Al  1)                  1.5867         0.406949   
      5. B(H   4,Al  1)                  1.7504         0.223023   
      6. B(H   4,Al  0)                  1.7504         0.223023   
      7. B(H   5,Al  0)                  1.5867         0.407018   
      8. B(H   6,Al  0)                  1.5867         0.406949   
      9. B(H   7,Al  1)                  1.5867         0.407018   
     10. A(H   2,Al  0,H   5)          109.0099         0.348720   
     11. A(Al  1,Al  0,H   5)          116.0602         0.438192   
     12. A(H   4,Al  0,H   6)          108.9002         0.348710   
     13. A(H   4,Al  0,H   5)          109.0117         0.348720   
     14. A(Al  1,Al  0,H   4)           41.7120         0.393741   
     15. A(H   2,Al  0,H   4)           83.4234         0.315658   
     16. A(Al  1,Al  0,H   2)           41.7120         0.393741   
     17. A(H   5,Al  0,H   6)          128.4101         0.386592   
     18. A(H   2,Al  0,H   6)          108.9021         0.348710   
     19. A(Al  1,Al  0,H   6)          115.5298         0.438179   
     20. A(H   4,Al  1,H   7)          109.0105         0.348720   
     21. A(H   2,Al  1,H   3)          108.9012         0.348710   
     22. A(H   3,Al  1,H   4)          108.9015         0.348710   
     23. A(Al  0,Al  1,H   2)           41.7120         0.393741   
     24. A(H   2,Al  1,H   4)           83.4233         0.315658   
     25. A(Al  0,Al  1,H   4)           41.7120         0.393741   
     26. A(Al  0,Al  1,H   3)          115.5300         0.438179   
     27. A(Al  0,Al  1,H   7)          116.0599         0.438192   
     28. A(H   2,Al  1,H   7)          109.0108         0.348720   
     29. A(H   3,Al  1,H   7)          128.4101         0.386592   
     30. A(Al  0,H   2,Al  1)           96.5760         0.315658   
     31. A(Al  0,H   4,Al  1)           96.5759         0.315658   
     32. D(H   4,Al  1,Al  0,H   2)   -179.5780         0.010000   
     33. D(H   3,Al  1,Al  0,H   4)    -90.2113         0.010000   
     34. D(H   3,Al  1,Al  0,H   2)     90.2107         0.010000   
     35. D(H   2,Al  1,Al  0,H   6)    -90.2125         0.010000   
     36. D(H   3,Al  1,Al  0,H   5)    179.9984         0.010000   
     37. D(H   3,Al  1,Al  0,H   6)     -0.0018         0.010000   
     38. D(H   2,Al  1,Al  0,H   5)     89.7876         0.010000   
     39. D(H   2,Al  1,Al  0,H   4)    179.5780         0.010000   
     40. D(Al  0,H   2,Al  1,H   7)    108.1668         0.010000   
     41. D(Al  0,H   2,Al  1,H   4)      0.2827         0.010000   
     42. D(Al  0,H   2,Al  1,H   3)   -107.4874         0.010000   
     43. D(Al  1,H   2,Al  0,H   6)    107.4861         0.010000   
     44. D(Al  1,H   2,Al  0,H   5)   -108.1680         0.010000   
     45. D(Al  1,H   2,Al  0,H   4)     -0.2827         0.010000   
     46. D(Al  1,H   4,Al  0,H   2)      0.2827         0.010000   
     47. D(Al  0,H   4,Al  1,H   7)   -108.1671         0.010000   
     48. D(Al  0,H   4,Al  1,H   3)    107.4871         0.010000   
     49. D(Al  0,H   4,Al  1,H   2)     -0.2827         0.010000   
     50. D(Al  1,H   4,Al  0,H   6)   -107.4881         0.010000   
     51. D(Al  1,H   4,Al  0,H   5)    108.1662         0.010000   
    -----------------------------------------------------------------

Number of atoms                         .... 8
Number of degrees of freedom            .... 51


         *************************************************************
         *                GEOMETRY OPTIMIZATION CYCLE   1            *
         *************************************************************
---------------------------------
CARTESIAN COORDINATES (ANGSTROEM)
---------------------------------
  Al     0.000064   -0.002698    2.341285
  Al    -0.000326   -0.002155   -0.272083
  H      1.163599   -0.050069    1.034418
  H     -0.064257   -1.432370   -0.956215
  H     -1.163479    0.053786    1.034787
  H      0.063751    1.421088    3.038615
  H     -0.063706   -1.433198    3.024837
  H      0.063113    1.421926   -0.968834

----------------------------
CARTESIAN COORDINATES (A.U.)
----------------------------
  NO LB      ZA    FRAG     MASS         X           Y           Z
   0 Al   13.0000    0    26.982    0.000122   -0.005099    4.424388
   1 Al   13.0000    0    26.982   -0.000616   -0.004072   -0.514161
   2 H     1.0000    0     1.008    2.198883   -0.094616    1.954767
   3 H     1.0000    0     1.008   -0.121427   -2.706787   -1.806984
   4 H     1.0000    0     1.008   -2.198656    0.101640    1.955464
   5 H     1.0000    0     1.008    0.120472    2.685468    5.742150
   6 H     1.0000    0     1.008   -0.120386   -2.708352    5.716113
   7 H     1.0000    0     1.008    0.119267    2.687050   -1.830831

--------------------------------
INTERNAL COORDINATES (ANGSTROEM)
--------------------------------
 Al     0   0   0     0.000000000000     0.00000000     0.00000000
 Al     1   0   0     2.613367926960     0.00000000     0.00000000
 H      1   2   0     1.750416539635    41.71200813     0.00000000
 H      2   1   3     1.586706843332   115.52999831    90.21074512
 H      1   2   3     1.750417509707    41.71203470   179.57798527
 H      1   2   3     1.586660791281   116.06015838    89.78761863
 H      1   2   3     1.586707007941   115.52976841   269.78750432
 H      2   1   3     1.586661103785   116.05994873   270.21079793

---------------------------
INTERNAL COORDINATES (A.U.)
---------------------------
 Al     0   0   0     0.000000000000     0.00000000     0.00000000
 Al     1   0   0     4.938549669129     0.00000000     0.00000000
 H      1   2   0     3.307807880197    41.71200813     0.00000000
 H      2   1   3     2.998441388717   115.52999831    90.21074512
 H      1   2   3     3.307809713367    41.71203470   179.57798527
 H      1   2   3     2.998354362952   116.06015838    89.78761863
 H      1   2   3     2.998441699783   115.52976841   269.78750432
 H      2   1   3     2.998354953498   116.05994873   270.21079793

---------------------
BASIS SET INFORMATION
---------------------
There are 2 groups of distinct atoms

 Group   1 Type Al  : 10s7p1d contracted to 4s3p1d pattern {5311/511/1}
 Group   2 Type H   : 4s contracted to 2s pattern {31}

Atom   0Al   basis set group =>   1
Atom   1Al   basis set group =>   1
Atom   2H    basis set group =>   2
Atom   3H    basis set group =>   2
Atom   4H    basis set group =>   2
Atom   5H    basis set group =>   2
Atom   6H    basis set group =>   2
Atom   7H    basis set group =>   2
---------------------------------
AUXILIARY/J BASIS SET INFORMATION
---------------------------------
There are 2 groups of distinct atoms

 Group   1 Type Al  : 14s5p5d2f1g contracted to 8s4p3d1f1g pattern {71111111/2111/311/2/1}
 Group   2 Type H   : 5s2p1d contracted to 3s1p1d pattern {311/2/1}

Atom   0Al   basis set group =>   1
Atom   1Al   basis set group =>   1
Atom   2H    basis set group =>   2
Atom   3H    basis set group =>   2
Atom   4H    basis set group =>   2
Atom   5H    basis set group =>   2
Atom   6H    basis set group =>   2
Atom   7H    basis set group =>   2


           ************************************************************
           *        Program running with 24 parallel MPI-processes    *
           *              working on a common directory               *
           ************************************************************
------------------------------------------------------------------------------
                             ORCA STARTUP CALCULATIONS
                           -- RI-GTO INTEGRALS CHOSEN --
------------------------------------------------------------------------------
------------------------------------------------------------------------------
                   ___                                                        
                  /   \      - P O W E R E D   B Y -                         
                 /     \                                                     
                 |  |  |   _    _      __       _____    __    __             
                 |  |  |  | |  | |    /  \     |  _  \  |  |  /  |          
                  \  \/   | |  | |   /    \    | | | |  |  | /  /          
                 / \  \   | |__| |  /  /\  \   | |_| |  |  |/  /          
                |  |  |   |  __  | /  /__\  \  |    /   |      \           
                |  |  |   | |  | | |   __   |  |    \   |  |\   \          
                \     /   | |  | | |  |  |  |  | |\  \  |  | \   \       
                 \___/    |_|  |_| |__|  |__|  |_| \__\ |__|  \__/        
                                                                              
                      - O R C A' S   B I G   F R I E N D -                    
                                      &                                       
                       - I N T E G R A L  F E E D E R -                       
                                                                              
 v1 FN, 2020, v2 2021, v3 2022-2024                                           
------------------------------------------------------------------------------


----------------------
SHARK INTEGRAL PACKAGE
----------------------

Number of atoms                             ...      8
Number of basis functions                   ...     48
Number of shells                            ...     28
Maximum angular momentum                    ...      2
Integral batch strategy                     ... SHARK/LIBINT Hybrid
RI-J (if used) integral strategy            ... SPLIT-RIJ (Revised 2003 algorithm where possible)
Printlevel                                  ...      1
Contraction scheme used                     ... SEGMENTED contraction
Prescreening option                         ... SCHWARTZ
   Thresh                                   ... 3.000e-16
   Tcut                                     ... 3.000e-16
   Tpresel                                  ... 3.000e-16 
Coulomb Range Separation                    ... NOT USED
Exchange Range Separation                   ... NOT USED
Multipole approximations                    ... NOT USED
Finite Nucleus Model                        ... NOT USED
CABS basis                                  ... NOT available
Auxiliary Coulomb fitting basis             ... AVAILABLE
   # of basis functions in Aux-J            ...    168
   # of shells in Aux-J                     ...     64
   Maximum angular momentum in Aux-J        ...      4
Auxiliary J/K fitting basis                 ... NOT available
Auxiliary Correlation fitting basis         ... NOT available
Auxiliary 'external' fitting basis          ... NOT available

Checking pre-screening integrals            ... done (  0.0 sec) Dimension = 28
   => SHARK Basis and OBASIS are compatible. Storing Pre-screening
Shell pair information
Shell pair cut-off parameter TPreSel        ...   3.0e-16
Total number of shell pairs                 ...       406
Shell pairs after pre-screening             ...       405
Total number of primitive shell pairs       ...      1894
Primitive shell pairs kept                  ...      1531
          la=0 lb=0:    209 shell pairs
          la=1 lb=0:    120 shell pairs
          la=1 lb=1:     21 shell pairs
          la=2 lb=0:     40 shell pairs
          la=2 lb=1:     12 shell pairs
          la=2 lb=2:      3 shell pairs

Checking whether 4 symmetric matrices of dimension 48 fit in memory
:Max Core in MB      =   4096.00
 MB in use           =      3.77
 MB left             =   4092.23
 MB needed           =      0.04
 Data fit in memory  = YES
Calculating RI/J V-Matrix + Cholesky decomp.... done (  0.0 sec)
Calculating Nuclear repulsion               ... done (  0.0 sec) ENN=     77.564204413714 Eh

Diagonalization of the overlap matrix:
Smallest eigenvalue                        ... 1.664e-02
Time for diagonalization                   ...    0.001 sec
Threshold for overlap eigenvalues          ... 1.000e-07
Number of eigenvalues below threshold      ... 0
Time for construction of square roots      ...    0.001 sec
Total time needed                          ...    0.003 sec

-------------------
DFT GRID GENERATION
-------------------

General Integration Accuracy     IntAcc      ... 4.959
Radial Grid Type                 RadialGrid  ... OptM3 with GC (2021)
Angular Grid (max. ang.)         AngularGrid ... 6 (Lebedev-590)
Angular grid pruning method      GridPruning ... 4 (adaptive)
Weight generation scheme         WeightScheme... mBecke (2022)
Basis function cutoff            BFCut       ... 3.0000e-16
Integration weight cutoff        WCut        ... 1.0000e-14
Partially contracted basis set               ... off
Rotationally invariant grid construction     ... off
Angular grids for H and He will be reduced by one unit

Total number of grid points                  ...    86194
Total number of batches                      ...     1351
Average number of points per batch           ...       63
Average number of grid points per atom       ...    10774

--------------------
COSX GRID GENERATION
--------------------

GRIDX 1
-------
General Integration Accuracy     IntAcc      ... 4.020
Radial Grid Type                 RadialGrid  ... OptM3 with GC (2021)
Angular Grid (max. ang.)         AngularGrid ... 2 (Lebedev-110)
Angular grid pruning method      GridPruning ... 4 (adaptive)
Weight generation scheme         WeightScheme... mBecke (2022)
Basis function cutoff            BFCut       ... 3.0000e-16
Integration weight cutoff        WCut        ... 1.0000e-14
Partially contracted basis set               ... on
Rotationally invariant grid construction     ... off
Angular grids for H and He will be reduced by one unit

Total number of grid points                  ...     8658
Total number of batches                      ...       71
Average number of points per batch           ...      121
Average number of grid points per atom       ...     1082
UseSFitting                                  ... on

GRIDX 2
-------
General Integration Accuracy     IntAcc      ... 4.338
Radial Grid Type                 RadialGrid  ... OptM3 with GC (2021)
Angular Grid (max. ang.)         AngularGrid ... 3 (Lebedev-194)
Angular grid pruning method      GridPruning ... 4 (adaptive)
Weight generation scheme         WeightScheme... mBecke (2022)
Basis function cutoff            BFCut       ... 3.0000e-16
Integration weight cutoff        WCut        ... 1.0000e-14
Partially contracted basis set               ... on
Rotationally invariant grid construction     ... off
Angular grids for H and He will be reduced by one unit

Total number of grid points                  ...    20150
Total number of batches                      ...      162
Average number of points per batch           ...      124
Average number of grid points per atom       ...     2519
UseSFitting                                  ... on

GRIDX 3
-------
General Integration Accuracy     IntAcc      ... 4.871
Radial Grid Type                 RadialGrid  ... OptM3 with GC (2021)
Angular Grid (max. ang.)         AngularGrid ... 4 (Lebedev-302)
Angular grid pruning method      GridPruning ... 4 (adaptive)
Weight generation scheme         WeightScheme... mBecke (2022)
Basis function cutoff            BFCut       ... 3.0000e-16
Integration weight cutoff        WCut        ... 1.0000e-14
Partially contracted basis set               ... on
Rotationally invariant grid construction     ... off
Angular grids for H and He will be reduced by one unit

Total number of grid points                  ...    40580
Total number of batches                      ...      321
Average number of points per batch           ...      126
Average number of grid points per atom       ...     5072
UseSFitting                                  ... on
Grids setup in   2.9 sec
Initializing property integral containers    ... done (  0.0 sec)

SHARK setup successfully completed in   3.0 seconds

Maximum memory used throughout the entire STARTUP-calculation: 19.2 MB


           ************************************************************
           *        Program running with 24 parallel MPI-processes    *
           *              working on a common directory               *
           ************************************************************
-------------------------------------------------------------------------------
                                 ORCA GUESS
                   Start orbitals & Density for SCF / CASSCF
-------------------------------------------------------------------------------

------------
SCF SETTINGS
------------
Hamiltonian:
 Density Functional     Method          .... DFT(GTOs)
 Exchange Functional    Exchange        .... PBE
   PBE kappa parameter   XKappa         ....  1.024500
   PBE mue parameter    XMuePBE         ....  0.123457
 Correlation Functional Correlation     .... PBE
   PBE beta parameter  CBetaPBE         ....  0.030000
 LDA part of GGA corr.  LDAOpt          .... PW91-LDA
 Gradients option       PostSCFGGA      .... off
 Hybrid DFT is turned on
   Fraction HF Exchange ScalHFX         ....  0.420000
   Scaling of DF-GGA-X  ScalDFX         ....  0.580000
   Scaling of DF-GGA-C  ScalDFC         ....  1.000000
   Scaling of DF-LDA-C  ScalLDAC        ....  1.000000
   Perturbative correction              ....  0.000000
 RI-approximation to the Coulomb term is turned on
   Number of AuxJ basis functions       .... 168
   RIJ-COSX (HFX calculated with COS-X)).... on


General Settings:
 Integral files         IntName         .... run
 Hartree-Fock type      HFTyp           .... RHF
 Total Charge           Charge          ....    0
 Multiplicity           Mult            ....    1
 Number of Electrons    NEL             ....   32
 Basis Dimension        Dim             ....   48
 Nuclear Repulsion      ENuc            ....     77.5642044137 Eh

Convergence Acceleration:
 AO-DIIS                CNVDIIS         .... on
   Start iteration      DIISMaxIt       ....    12
   Startup error        DIISStart       ....  0.200000
   # of expansion vecs  DIISMaxEq       ....     5
   Bias factor          DIISBfac        ....   1.050
   Max. coefficient     DIISMaxC        ....  10.000
 MO-DIIS                CNVKDIIS        .... off
 Trust-Rad. Augm. Hess. CNVTRAH         .... auto
   Auto Start mean grad. ratio tolernc. ....  1.125000
   Auto Start start iteration           ....    50
   Auto Start num. interpolation iter.  ....    10
   Max. Number of Micro iterations      ....    24
   Max. Number of Macro iterations      .... Maxiter - #DIIS iter
   Number of Davidson start vectors     ....     2
   Converg. threshold    (grad. norm)   ....   1.000e-09
   Grad. Scal. Fac. for Micro threshold ....   0.100
   Minimum threshold for Micro iter.    ....   1.000e-02
   NR start threshold (gradient norm)   ....   1.000e-04
   Initial trust radius                 ....   0.400
   Minimum AH scaling param. (alpha)    ....   1.000
   Maximum AH scaling param. (alpha)    .... 1000.000
   Quad. conv. algorithm                .... NR
   White noise on init. David. guess    .... on
   Maximum white noise                  ....   0.010
   Pseudo random numbers                .... off
   Inactive MOs                         .... canonical
   Orbital update algorithm             .... Taylor
   Preconditioner                       .... Diag
   Full preconditioner red. dimension   ....   250
 SOSCF                 CNVSOSCF           .... on
   Start iteration     SOSCFMaxIt         ....   150
   Startup grad/error  SOSCFStart         ....  0.003300
   Hessian update      SOSCFHessUp        .... L-BFGS
   Autom. constraints  SOSCFAutoConstrain .... off
 Level Shifting         CNVShift        .... on
   Level shift para.    LevelShift      ....    0.2500
   Turn off err/grad.   ShiftErr        ....    0.0010
 Zerner damping         CNVZerner       .... off
 Static damping         CNVDamp         .... on
   Fraction old density DampFac         ....    0.7000
   Max. Damping (<1)    DampMax         ....    0.9800
   Min. Damping (>=0)   DampMin         ....    0.0000
   Turn off err/grad.   DampErr         ....    0.1000

SCF Procedure:
 Maximum # iterations   MaxIter         ....   125
 SCF integral mode      SCFMode         .... Direct
   Integral package                     .... SHARK and LIBINT hybrid scheme
 Reset frequency        DirectResetFreq ....    20
 Integral Threshold     Thresh          ....  3.000e-16 Eh
 Primitive CutOff       TCut            ....  3.000e-16 Eh

Convergence Tolerance:
 Convergence Check Mode ConvCheckMode   .... All-Criteria
 Convergence forced     ConvForced      .... 0
 Energy Change          TolE            ....  1.000e-14 Eh
 Max Density Change     TolMaxP         ....  1.000e-14
 RMS Density Change     TolRMSP         ....  1.000e-14
 Orbital Gradient       TolG            ....  1.000e-09
 Orbital Rotation angle TolX            ....  1.000e-09
 DIIS Error             TolErr          ....  1.000e-14

--------------------------------
INITIAL GUESS: MINIMAL BASIS EHT
--------------------------------
The minimal basis has 24 functions
EHT matrix was diagonalized
Basis set overlap was calculated now projecting the orbitals
Using GuessMode=FMatrix for the initial guess
C*T matrix was formed
Effective Fockian was calculated
Effective Fockian was diagonalized
Initial density was built
                      ------------------
                      INITIAL GUESS DONE
                      ------------------
             **** ENERGY FILE WAS UPDATED (run.en.tmp) ****
Finished Guess after   0.6 sec
Maximum memory used throughout the entire GUESS-calculation: 5.9 MB


           ************************************************************
           *        Program running with 24 parallel MPI-processes    *
           *              working on a common directory               *
           ************************************************************

-------------------------------------------------------------------------------------------
                                      ORCA LEAN-SCF
                              memory conserving SCF solver
-------------------------------------------------------------------------------------------

--------------------
CPCM SOLVATION MODEL
--------------------
CPCM parameters:
  Epsilon                                         ...       1.9578
  Refrac                                          ...       1.0000
  Rsolv                                           ...       1.3000
  Surface type                                    ... GAUSSIAN VDW
  Discretization scheme                           ... Constant charge density
    Threshold for H atoms                         ...       5.0000 (charges/Ang^2)
    Threshold for non-H atoms                     ...       5.0000 (charges/Ang^2)
  Epsilon function type                           ...         CPCM
Solvent:                                          ... CUSTOM
Radii:
  Scheme                                          ... Element-dependent radii
  Radius for Al used is    4.1725 Bohr (=   2.2080 Ang.)
  Radius for H  used is    2.4944 Bohr (=   1.3200 Ang.)
Calculating surface                               ...        done! (  0.0s)
Cavity surface points                             ...          766
Cavity Volume                                     ...     624.2354
Cavity Surface-area                               ...     398.2546
Calculating surface distance matrix               ...        done! (  0.0s)
Performing Cholesky decomposition & store         ...        done! (  0.0s)
Overall time for CPCM initialization              ...                 0.1s

----------------------------------------D-I-I-S--------------------------------------------
Iteration    Energy (Eh)           Delta-E    RMSDP     MaxDP     DIISErr   Damp  Time(sec)
-------------------------------------------------------------------------------------------
               ***  Starting incremental Fock matrix formation  ***
    1    -487.0775194149950948     0.00e+00  6.62e-02  9.20e-02  3.38e-01  0.700   0.3
    2    -487.2991691585737044    -2.22e-01  5.53e-02  7.30e-02  2.41e-01  0.700   0.2
                               ***Turning on AO-DIIS***
    3    -487.4542037820848464    -1.55e-01  3.93e-02  4.85e-02  1.68e-01  0.700   0.2
    4    -487.5598459154449529    -1.06e-01  2.82e-02  3.37e-02  1.17e-01  0.700   0.2
    5    -487.6326014802385771    -7.28e-02  2.01e-02  2.35e-02  8.15e-02  0.700   0.2
    6    -487.6830334763631072    -5.04e-02  4.77e-02  5.47e-02  5.69e-02  0.000   0.2
                              *** Initializing SOSCF ***
---------------------------------------S-O-S-C-F--------------------------------------
Iteration    Energy (Eh)           Delta-E    RMSDP     MaxDP     MaxGrad    Time(sec)
--------------------------------------------------------------------------------------
    7    -487.7992865634315649    -1.16e-01  1.11e-03  1.75e-03  6.65e-04     0.2
               *** Restarting incremental Fock matrix formation ***
    8    -487.7992946267163461    -8.06e-06  7.00e-04  1.31e-03  3.04e-04     0.3
    9    -487.7992960499216224    -1.42e-06  1.71e-04  3.27e-04  5.62e-05     0.3
   10    -487.7992960994577061    -4.95e-08  4.91e-06  6.37e-06  2.39e-06     0.3
   11    -487.7992960994396299     1.81e-11  9.52e-07  1.65e-06  6.12e-07     0.3
   12    -487.7992960994525902    -1.30e-11  1.74e-07  3.36e-07  7.05e-08     0.3
   13    -487.7992960994590703    -6.48e-12  1.77e-08  2.26e-08  1.34e-08     0.3
   14    -487.7992960994580471     1.02e-12  0.00e+00  0.00e+00  9.95e-10     0.3
                           ***RMSP convergence achieved***
                           ***MAXP convergence achieved***
                       ***Gradient convergence achieved***
                    ***Orbital Rotation convergence achieved***
   15    -487.7992960994580471     0.00e+00  0.00e+00  0.00e+00  9.95e-10     0.2
                          ***Energy convergence achieved***

               *****************************************************
               *                     SUCCESS                       *
               *           SCF CONVERGED AFTER  15 CYCLES          *
               *****************************************************

Recomputing exchange energy using gridx3       ... done (    0.208 sec)
Old exchange energy                            :    -16.109099688 Eh
New exchange energy                            :    -16.109086673 Eh
Exchange energy change after final integration :      0.000013015 Eh
Total energy after final integration           :   -487.799283085 Eh
             **** ENERGY FILE WAS UPDATED (run.en.tmp) ****

----------------
TOTAL SCF ENERGY
----------------

Total Energy       :       -487.79928308479464 Eh          -13273.69331 eV

Components:
Nuclear Repulsion  :         77.56420441371391 Eh            2110.62930 eV
Electronic Energy  :       -565.36057269832475 Eh          -15384.24330 eV
One Electron Energy:       -831.46382662482108 Eh          -22625.28097 eV
Two Electron Energy:        266.10325392649634 Eh            7241.03767 eV
CPCM Dielectric    :         -0.00292781484722 Eh              -0.07967 eV

Virial components:
Potential Energy   :       -974.49946108710719 Eh          -26517.47846 eV
Kinetic Energy     :        486.70017800231261 Eh           13243.78514 eV
Virial Ratio       :          2.00225827959832

DFT components:
N(Alpha)           :       16.000000735020 electrons
N(Beta)            :       16.000000735020 electrons
N(Total)           :       32.000001470040 electrons
E(X)               :      -21.426616486356 Eh       
E(C)               :       -1.475203230427 Eh       
E(XC)              :      -22.901819716783 Eh       

CPCM Solvation Model Properties:
Surface-charge          :         -0.04630068570379
Corrected charge        :          0.00000000000000
Outlying charge corr.   :          0.00009427548538 Eh               0.00257 eV
Free-energy (cav+disp)  :  This term is not implemented in the current solvation scheme

---------------
SCF CONVERGENCE
---------------

  Last Energy change         ...    0.0000e+00  Tolerance :   1.0000e-14
  Last MAX-Density change    ...    0.0000e+00  Tolerance :   1.0000e-14
  Last RMS-Density change    ...    0.0000e+00  Tolerance :   1.0000e-14
  Last DIIS Error            ...    6.6498e-04  Tolerance :   1.0000e-14
  Last Orbital Gradient      ...    9.9510e-10  Tolerance :   1.0000e-09
  Last Orbital Rotation      ...    0.0000e+00  Tolerance :   1.0000e-09


----------------
ORBITAL ENERGIES
----------------

  NO   OCC          E(Eh)            E(eV) 
   0   2.0000     -56.613418     -1540.5294 
   1   2.0000     -56.613361     -1540.5279 
   2   2.0000      -4.355291      -118.5135 
   3   2.0000      -4.355241      -118.5121 
   4   2.0000      -2.846652       -77.4613 
   5   2.0000      -2.846548       -77.4585 
   6   2.0000      -2.844174       -77.3939 
   7   2.0000      -2.843524       -77.3762 
   8   2.0000      -2.840184       -77.2853 
   9   2.0000      -2.840144       -77.2842 
  10   2.0000      -0.571445       -15.5498 
  11   2.0000      -0.438915       -11.9435 
  12   2.0000      -0.394972       -10.7477 
  13   2.0000      -0.375106       -10.2072 
  14   2.0000      -0.366329        -9.9683 
  15   2.0000      -0.351171        -9.5559 
  16   0.0000      -0.017434        -0.4744 
  17   0.0000       0.051495         1.4012 
  18   0.0000       0.052118         1.4182 
  19   0.0000       0.056314         1.5324 
  20   0.0000       0.064332         1.7506 
  21   0.0000       0.083534         2.2731 
  22   0.0000       0.097215         2.6453 
  23   0.0000       0.162048         4.4096 
  24   0.0000       0.207373         5.6429 
  25   0.0000       0.242972         6.6116 
  26   0.0000       0.265216         7.2169 
*Only the first 10 virtual orbitals were printed.
-------
TIMINGS
-------

Total SCF time: 0 days 0 hours 0 min 4 sec 

Total time                  ....       4.941 sec
Sum of individual times     ....       4.685 sec  ( 94.8%)

SCF preparation             ....       0.716 sec  ( 14.5%)
Fock matrix formation       ....       3.677 sec  ( 74.4%)
  Startup                   ....       0.008 sec  (  0.2% of F)
  Split-RI-J                ....       0.139 sec  (  3.8% of F)
  Chain of spheres X        ....       2.019 sec  ( 54.9% of F)
  XC integration            ....       1.022 sec  ( 27.8% of F)
    XC Preparation          ....       0.000 sec  (  0.0% of XC)
    Basis function eval.    ....       0.222 sec  ( 21.7% of XC)
    Density eval.           ....       0.084 sec  (  8.3% of XC)
    XC-Functional eval.     ....       0.070 sec  (  6.8% of XC)
    XC-Potential eval.      ....       0.078 sec  (  7.7% of XC)
  CPCM terms                ....       0.475 sec  ( 12.9% of F)
Diagonalization             ....       0.000 sec  (  0.0%)
Density matrix formation    ....       0.053 sec  (  1.1%)
Total Energy calculation    ....       0.036 sec  (  0.7%)
Population analysis         ....       0.000 sec  (  0.0%)
Orbital Transformation      ....       0.015 sec  (  0.3%)
Orbital Orthonormalization  ....       0.000 sec  (  0.0%)
DIIS solution               ....       0.099 sec  (  2.0%)
SOSCF solution              ....       0.089 sec  (  1.8%)
Finished LeanSCF after   5.0 sec

Maximum memory used throughout the entire LEANSCF-calculation: 6.0 MB


           ************************************************************
           *        Program running with 24 parallel MPI-processes    *
           *              working on a common directory               *
           ************************************************************

------------------------------------------------------------------------------
                         ORCA PROPERTY INTEGRAL CALCULATIONS
------------------------------------------------------------------------------

GBWName                                   ... run.gbw
Number of atoms                           ...      8
Number of basis functions                 ...     48
Max core memory                           ...   4096 MB

Dipole integrals                          ... YES
Quadrupole integrals                      ...  NO
Linear momentum integrals                 ...  NO
Angular momentum integrals                ...  NO
Higher moments length integrals           ...  NO
Higher moments velocity integrals         ...  NO
Kinetic energy integrals                  ...  NO
GIAO right hand sides                     ...  NO
GIAO dipole derivative integrals          ...  NO
SOC integrals                             ...  NO
EPR diamagnetic integrals (GIAO)          ...  NO
EPR gauge integrals                       ...  NO
Field gradient integrals                  ...  NO (   0 nuclei)
Spin-dipole/Fermi contact integrals       ...  NO (   0 nuclei)
Contact density integrals                 ...  NO (   0 nuclei)
Nucleus-orbit integrals                   ...  NO (   0 nuclei)
Geometric perturbations                   ...  NO (   8 nuclei)

Choice of electric origin   ... Center of mass
Position of electric origin ... ( -0.0003, -0.0047,  1.9551) 
Choice of magnetic origin   ... GIAO
Position of magnetic origin ... (  0.0000,  0.0000,  0.0000) 

Calculating integrals                     ... Electric Dipole (Length)     done (  0.0 sec)

Property integrals calculated in   0.0 sec

Maximum memory used throughout the entire PROPINT-calculation: 6.1 MB


-------------------------------------------------------------------------------
                          DFT DISPERSION CORRECTION                            
                                                                               
                              DFTD3 V3.1  Rev 1                                
                          USING Becke-Johnson damping                          
-------------------------------------------------------------------------------
The PBEh-3c composite method is recognized
Using three-body term ABC
Active option DFTDOPT                   ...         4   

molecular C6(AA) [au] = 1235.381755 


            DFT-D V3
 parameters
 s6 scaling factor         :     1.0000 
 a1 scaling factor         :     0.4860 
 s8 scaling factor         :     0.0000 
 a2 scaling factor         :     4.5000 
 Damping factor alpha9(ATM):    16.0000 
 ad hoc parameters k1-k3   :    16.0000     1.3333    -4.0000 

 Edisp/kcal,au: -1.343633702434  -0.002141216371 
 E6   /kcal   :  -1.345044391 
 E8   /kcal   :  -0.000000000 
 E6(ABC)      :   0.001410688 
 % E8         :   0.000000000 
 % E6(ABC)    :  -0.104990538 

-------------------------   ----------------
Dispersion correction           -0.002141216
-------------------------   ----------------

------------------   -----------------
gCP correction             0.013541992
------------------   -----------------

-------------------------   --------------------
FINAL SINGLE POINT ENERGY      -487.787882309066
-------------------------   --------------------



           ************************************************************
           *        Program running with 24 parallel MPI-processes    *
           *              working on a common directory               *
           ************************************************************
------------------------------------------------------------------------------
                         ORCA SCF GRADIENT CALCULATION
------------------------------------------------------------------------------

Nuc. rep. gradient        (SHARK) ... done (  0.0 sec)
HCore & Overlap gradient  (SHARK) ... done (  0.0 sec)
Split-RIJ-J gradient      (SHARK) ... done (  0.2 sec)
done (  0.9 sec)
XC gradient                       ... done (  0.3 sec)
CPCM gradient                     ... done (  0.2 sec)
Dispersion correction             ... done (  0.1 sec)

-------------------
DISPERSION GRADIENT
-------------------

   1   Al  :    0.000000011    0.000000010    0.000066742
   2   Al  :   -0.000000009    0.000000038   -0.000066742
   3   H   :    0.000031284   -0.000001260   -0.000000005
   4   H   :   -0.000001532   -0.000034139   -0.000051431
   5   H   :   -0.000031272    0.000001531    0.000000005
   6   H   :    0.000001526    0.000033980    0.000051479
   7   H   :   -0.000001517   -0.000034161    0.000051417
   8   H   :    0.000001509    0.000034002   -0.000051466

Difference to translation invariance:
           :    0.0000000000    0.0000000000   -0.0000000000

Difference to rotation invariance:
           :    0.0000000000   -0.0000000000    0.0000000000

Norm of the Dispersion gradient    ...    0.0001615853
RMS gradient                       ...    0.0000329835
MAX gradient                       ...    0.0000667419
gCP correction                   ... done

------------------
CARTESIAN GRADIENT
------------------

   1   Al  :    0.000002573    0.000019834    0.000488897
   2   Al  :    0.000002546    0.000019240   -0.000488887
   3   H   :    0.003908393   -0.000151589   -0.000000564
   4   H   :   -0.000166595   -0.003721291   -0.001786965
   5   H   :   -0.003909779    0.000179660    0.000000608
   6   H   :    0.000165361    0.003687664    0.001867096
   7   H   :   -0.000166736   -0.003722100    0.001785329
   8   H   :    0.000164237    0.003688582   -0.001865514

Difference to translation invariance:
           :   -0.0000000000   -0.0000000000   -0.0000000000

Difference to rotation invariance:
           :   -0.0000006414   -0.0000008490    0.0000351068

Norm of the Cartesian gradient     ...    0.0099729240
RMS gradient                       ...    0.0020357146
MAX gradient                       ...    0.0039097787

-------
TIMINGS
-------

Total SCF gradient time     ....        1.670 sec

Densities                   ....       0.000 sec  (  0.0%)
One electron gradient       ....       0.020 sec  (  1.2%)
RI-J Coulomb gradient       ....       0.191 sec  ( 11.4%)
COSX gradient               ....       0.866 sec  ( 51.8%)
XC gradient                 ....       0.264 sec  ( 15.8%)
CPCM gradient               ....       0.191 sec  ( 11.5%)
   A-Matrix (El+Nuc)        ....       0.003 sec  (  0.2%)
   Potential                ....       0.189 sec  ( 11.3%)

Maximum memory used throughout the entire SCFGRAD-calculation: 25.8 MB
------------------------------------------------------------------------------
                         ORCA GEOMETRY RELAXATION STEP
------------------------------------------------------------------------------

Reading the OPT-File                    .... done
Getting information on internals        .... done
Copying old internal coords+grads       .... done
Making the new internal coordinates     .... (2022 redundants) done
Validating the new internal coordinates .... (2022 redundants) done
Calculating the B-matrix                .... done
Calculating the G,G- and P matrices     .... done
Transforming gradient to internals      .... done
Projecting the internal gradient        .... done
Number of atoms                         ....   8
Number of internal coordinates          ....  51
Current Energy                          ....  -487.787882309 Eh
Current gradient norm                   ....     0.009972924 Eh/bohr
Maximum allowed component of the step   ....  0.300
Current trust radius                    ....  0.300
Evaluating the initial hessian          ....  (Almloef) done
Projecting the Hessian                  .... done
Forming the augmented Hessian           .... done
Diagonalizing the augmented Hessian     .... done
Last element of RFO vector              ....  0.999581590
Lowest eigenvalues of augmented Hessian:
 -0.000272637  0.031001766  0.052197494  0.082473597  0.103135869
Length of the computed step             ....  0.028936925
The final length of the internal step   ....  0.028936925
Converting the step to Cartesian space:
 Initial RMS(Int)=    0.0040519800
Transforming coordinates:
 Iter   0:  RMS(Cart)=    0.0057889573 RMS(Int)=    0.0040519779
done
Storing new coordinates                 .... done

                                .--------------------.
          ----------------------|Geometry convergence|-------------------------
          Item                value                   Tolerance       Converged
          ---------------------------------------------------------------------
          RMS gradient        0.0013593725            0.0000080000      NO
          MAX gradient        0.0041364087            0.0000300000      NO
          RMS step            0.0040519800            0.0001000000      NO
          MAX step            0.0101559238            0.0002000000      NO
          -------------------------------------------------------------------------
          ........................................................
          Max(Bonds)      0.0054      Max(Angles)    0.18
          Max(Dihed)        0.05      Max(Improp)    0.00
          ---------------------------------------------------------------------

The optimization has not yet converged - more geometry cycles are needed


    ---------------------------------------------------------------------------
                         Redundant Internal Coordinates
                            (Angstroem and degrees)

        Definition                    Value    dE/dq     Step     New-Value
    ----------------------------------------------------------------------------
     1. B(Al  1,Al  0)                2.6134  0.001642 -0.0034    2.6099   
     2. B(H   2,Al  0)                1.7504  0.002234 -0.0048    1.7456   
     3. B(H   2,Al  1)                1.7504  0.002234 -0.0048    1.7456   
     4. B(H   3,Al  1)                1.5867  0.004131 -0.0054    1.5813   
     5. B(H   4,Al  1)                1.7504  0.002235 -0.0048    1.7456   
     6. B(H   4,Al  0)                1.7504  0.002236 -0.0048    1.7456   
     7. B(H   5,Al  0)                1.5867  0.004136 -0.0054    1.5813   
     8. B(H   6,Al  0)                1.5867  0.004132 -0.0054    1.5813   
     9. B(H   7,Al  1)                1.5867  0.004136 -0.0054    1.5813   
    10. A(H   2,Al  0,H   5)          109.01 -0.000094    0.02    109.03   
    11. A(Al  1,Al  0,H   5)          116.06  0.000038   -0.02    116.04   
    12. A(H   4,Al  0,H   6)          108.90 -0.000126    0.02    108.92   
    13. A(H   4,Al  0,H   5)          109.01 -0.000090    0.02    109.03   
    14. A(Al  1,Al  0,H   4)           41.71  0.000385   -0.09     41.62   
    15. A(H   2,Al  0,H   4)           83.42  0.000770   -0.18     83.24   
    16. A(Al  1,Al  0,H   2)           41.71  0.000385   -0.09     41.62   
    17. A(H   5,Al  0,H   6)          128.41 -0.000028    0.02    128.43   
    18. A(H   2,Al  0,H   6)          108.90 -0.000122    0.02    108.92   
    19. A(Al  1,Al  0,H   6)          115.53 -0.000010   -0.00    115.53   
    20. A(H   4,Al  1,H   7)          109.01 -0.000090    0.02    109.03   
    21. A(H   2,Al  1,H   3)          108.90 -0.000122    0.02    108.92   
    22. A(H   3,Al  1,H   4)          108.90 -0.000125    0.02    108.92   
    23. A(Al  0,Al  1,H   2)           41.71  0.000385   -0.09     41.62   
    24. A(H   2,Al  1,H   4)           83.42  0.000770   -0.18     83.24   
    25. A(Al  0,Al  1,H   4)           41.71  0.000385   -0.09     41.62   
    26. A(Al  0,Al  1,H   3)          115.53 -0.000010   -0.00    115.53   
    27. A(Al  0,Al  1,H   7)          116.06  0.000038   -0.02    116.04   
    28. A(H   2,Al  1,H   7)          109.01 -0.000095    0.02    109.03   
    29. A(H   3,Al  1,H   7)          128.41 -0.000028    0.02    128.43   
    30. A(Al  0,H   2,Al  1)           96.58 -0.000769    0.18     96.76   
    31. A(Al  0,H   4,Al  1)           96.58 -0.000770    0.18     96.76   
    32. D(H   4,Al  1,Al  0,H   2)   -179.58 -0.000002   -0.01   -179.59   
    33. D(H   3,Al  1,Al  0,H   4)    -90.21  0.000003    0.01    -90.21   
    34. D(H   3,Al  1,Al  0,H   2)     90.21  0.000001   -0.01     90.20   
    35. D(H   2,Al  1,Al  0,H   6)    -90.21 -0.000002    0.01    -90.20   
    36. D(H   3,Al  1,Al  0,H   5)    180.00 -0.000001   -0.00    180.00   
    37. D(H   3,Al  1,Al  0,H   6)     -0.00 -0.000001    0.00     -0.00   
    38. D(H   2,Al  1,Al  0,H   5)     89.79 -0.000002    0.01     89.80   
    39. D(H   2,Al  1,Al  0,H   4)    179.58  0.000002    0.01    179.59   
    40. D(Al  0,H   2,Al  1,H   7)    108.17  0.000156   -0.05    108.12   
    41. D(Al  0,H   2,Al  1,H   4)      0.28  0.000000   -0.01      0.27   
    42. D(Al  0,H   2,Al  1,H   3)   -107.49 -0.000117    0.03   -107.46   
    43. D(Al  1,H   2,Al  0,H   6)    107.49  0.000116   -0.03    107.46   
    44. D(Al  1,H   2,Al  0,H   5)   -108.17 -0.000156    0.05   -108.12   
    45. D(Al  1,H   2,Al  0,H   4)     -0.28 -0.000000    0.01     -0.27   
    46. D(Al  1,H   4,Al  0,H   2)      0.28  0.000000   -0.01      0.27   
    47. D(Al  0,H   4,Al  1,H   7)   -108.17 -0.000151    0.05   -108.12   
    48. D(Al  0,H   4,Al  1,H   3)    107.49  0.000121   -0.03    107.46   
    49. D(Al  0,H   4,Al  1,H   2)     -0.28 -0.000000    0.01     -0.27   
    50. D(Al  1,H   4,Al  0,H   6)   -107.49 -0.000121    0.03   -107.46   
    51. D(Al  1,H   4,Al  0,H   5)    108.17  0.000152   -0.05    108.12   
    ----------------------------------------------------------------------------

Geometry step timings:
Preparation and reading OPT file:      0.000 s ( 1.916 %)
Internal coordinates            :      0.000 s ( 1.916 %)
B/P matrices and projection     :      0.000 s (24.411 %)
Hessian update/contruction      :      0.000 s (15.373 %)
Making the step                 :      0.001 s (25.786 %)
Converting the step to Cartesian:      0.000 s ( 3.880 %)
Storing new data                :      0.000 s ( 2.063 %)
Checking convergence            :      0.000 s ( 2.308 %)
Final printing                  :      0.000 s (22.299 %)
Total time                      :      0.002 s

Time for energy+gradient        :     13.298 s
Time for complete geometry iter :     14.048 s

         *************************************************************
         *                GEOMETRY OPTIMIZATION CYCLE   2            *
         *************************************************************
---------------------------------
CARTESIAN COORDINATES (ANGSTROEM)
---------------------------------
  Al     0.000062   -0.002711    2.339569
  Al    -0.000327   -0.002168   -0.270366
  H      1.158335   -0.050032    1.034419
  H     -0.064035   -1.427587   -0.952094
  H     -1.158229    0.053393    1.034786
  H      0.063537    1.416496    3.034039
  H     -0.063484   -1.428413    3.020718
  H      0.062901    1.417332   -0.964261

----------------------------
CARTESIAN COORDINATES (A.U.)
----------------------------
  NO LB      ZA    FRAG     MASS         X           Y           Z
   0 Al   13.0000    0    26.982    0.000118   -0.005123    4.421144
   1 Al   13.0000    0    26.982   -0.000618   -0.004097   -0.510918
   2 H     1.0000    0     1.008    2.188936   -0.094547    1.954768
   3 H     1.0000    0     1.008   -0.121008   -2.697748   -1.799198
   4 H     1.0000    0     1.008   -2.188736    0.100898    1.955462
   5 H     1.0000    0     1.008    0.120067    2.676790    5.733503
   6 H     1.0000    0     1.008   -0.119968   -2.699310    5.708331
   7 H     1.0000    0     1.008    0.118865    2.678369   -1.822189

--------------------------------
INTERNAL COORDINATES (ANGSTROEM)
--------------------------------
 Al     0   0   0     0.000000000000     0.00000000     0.00000000
 Al     1   0   0     2.609934900585     0.00000000     0.00000000
 H      1   2   0     1.745637869020    41.62062861     0.00000000
 H      2   1   3     1.581338105476   115.52640768    90.20218404
 H      1   2   3     1.745635915081    41.62055104   179.59242914
 H      1   2   3     1.581286629204   116.04009268    89.79610297
 H      1   2   3     1.581338195941   115.52621923   269.79610587
 H      2   1   3     1.581286820406   116.03992202   270.20230623

---------------------------
INTERNAL COORDINATES (A.U.)
---------------------------
 Al     0   0   0     0.000000000000     0.00000000     0.00000000
 Al     1   0   0     4.932062189468     0.00000000     0.00000000
 H      1   2   0     3.298777501449    41.62062861     0.00000000
 H      2   1   3     2.988295944484   115.52640768    90.20218404
 H      1   2   3     3.298773809041    41.62055104   179.59242914
 H      1   2   3     2.988198668427   116.04009268    89.79610297
 H      1   2   3     2.988296115437   115.52621923   269.79610587
 H      2   1   3     2.988199029747   116.03992202   270.20230623



           ************************************************************
           *        Program running with 24 parallel MPI-processes    *
           *              working on a common directory               *
           ************************************************************
------------------------------------------------------------------------------
                   ___                                                        
                  /   \      - P O W E R E D   B Y -                         
                 /     \                                                     
                 |  |  |   _    _      __       _____    __    __             
                 |  |  |  | |  | |    /  \     |  _  \  |  |  /  |          
                  \  \/   | |  | |   /    \    | | | |  |  | /  /          
                 / \  \   | |__| |  /  /\  \   | |_| |  |  |/  /          
                |  |  |   |  __  | /  /__\  \  |    /   |      \           
                |  |  |   | |  | | |   __   |  |    \   |  |\   \          
                \     /   | |  | | |  |  |  |  | |\  \  |  | \   \       
                 \___/    |_|  |_| |__|  |__|  |_| \__\ |__|  \__/        
                                                                              
                      - O R C A' S   B I G   F R I E N D -                    
                                      &                                       
                       - I N T E G R A L  F E E D E R -                       
                                                                              
 v1 FN, 2020, v2 2021, v3 2022-2024                                           
------------------------------------------------------------------------------


----------------------
SHARK INTEGRAL PACKAGE
----------------------

Number of atoms                             ...      8
Number of basis functions                   ...     48
Number of shells                            ...     28
Maximum angular momentum                    ...      2
Integral batch strategy                     ... SHARK/LIBINT Hybrid
RI-J (if used) integral strategy            ... SPLIT-RIJ (Revised 2003 algorithm where possible)
Printlevel                                  ...      1
Contraction scheme used                     ... SEGMENTED contraction
Prescreening option                         ... SCHWARTZ
   Thresh                                   ... 3.000e-16
   Tcut                                     ... 3.000e-16
   Tpresel                                  ... 3.000e-16 
Coulomb Range Separation                    ... NOT USED
Exchange Range Separation                   ... NOT USED
Multipole approximations                    ... NOT USED
Finite Nucleus Model                        ... NOT USED
CABS basis                                  ... NOT available
Auxiliary Coulomb fitting basis             ... AVAILABLE
   # of basis functions in Aux-J            ...    168
   # of shells in Aux-J                     ...     64
   Maximum angular momentum in Aux-J        ...      4
Auxiliary J/K fitting basis                 ... NOT available
Auxiliary Correlation fitting basis         ... NOT available
Auxiliary 'external' fitting basis          ... NOT available

Checking pre-screening integrals            ... done (  0.0 sec) Dimension = 28
   => SHARK Basis and OBASIS are compatible. Storing Pre-screening
Shell pair information
Shell pair cut-off parameter TPreSel        ...   3.0e-16
Total number of shell pairs                 ...       406
Shell pairs after pre-screening             ...       405
Total number of primitive shell pairs       ...      1894
Primitive shell pairs kept                  ...      1531
          la=0 lb=0:    209 shell pairs
          la=1 lb=0:    120 shell pairs
          la=1 lb=1:     21 shell pairs
          la=2 lb=0:     40 shell pairs
          la=2 lb=1:     12 shell pairs
          la=2 lb=2:      3 shell pairs

Checking whether 4 symmetric matrices of dimension 48 fit in memory
:Max Core in MB      =   4096.00
 MB in use           =      3.79
 MB left             =   4092.21
 MB needed           =      0.04
 Data fit in memory  = YES
Calculating RI/J V-Matrix + Cholesky decomp.... done (  0.0 sec)
Calculating Nuclear repulsion               ... done (  0.0 sec) ENN=     77.734915243457 Eh

Diagonalization of the overlap matrix:
Smallest eigenvalue                        ... 1.656e-02
Time for diagonalization                   ...    0.001 sec
Threshold for overlap eigenvalues          ... 1.000e-07
Number of eigenvalues below threshold      ... 0
Time for construction of square roots      ...    0.000 sec
Total time needed                          ...    0.003 sec

-------------------
DFT GRID GENERATION
-------------------

General Integration Accuracy     IntAcc      ... 4.959
Radial Grid Type                 RadialGrid  ... OptM3 with GC (2021)
Angular Grid (max. ang.)         AngularGrid ... 6 (Lebedev-590)
Angular grid pruning method      GridPruning ... 4 (adaptive)
Weight generation scheme         WeightScheme... mBecke (2022)
Basis function cutoff            BFCut       ... 3.0000e-16
Integration weight cutoff        WCut        ... 1.0000e-14
Partially contracted basis set               ... off
Rotationally invariant grid construction     ... off
Angular grids for H and He will be reduced by one unit

Total number of grid points                  ...    86185
Total number of batches                      ...     1351
Average number of points per batch           ...       63
Average number of grid points per atom       ...    10773

--------------------
COSX GRID GENERATION
--------------------

GRIDX 1
-------
General Integration Accuracy     IntAcc      ... 4.020
Radial Grid Type                 RadialGrid  ... OptM3 with GC (2021)
Angular Grid (max. ang.)         AngularGrid ... 2 (Lebedev-110)
Angular grid pruning method      GridPruning ... 4 (adaptive)
Weight generation scheme         WeightScheme... mBecke (2022)
Basis function cutoff            BFCut       ... 3.0000e-16
Integration weight cutoff        WCut        ... 1.0000e-14
Partially contracted basis set               ... on
Rotationally invariant grid construction     ... off
Angular grids for H and He will be reduced by one unit

Total number of grid points                  ...     8656
Total number of batches                      ...       71
Average number of points per batch           ...      121
Average number of grid points per atom       ...     1082
UseSFitting                                  ... on

GRIDX 2
-------
General Integration Accuracy     IntAcc      ... 4.338
Radial Grid Type                 RadialGrid  ... OptM3 with GC (2021)
Angular Grid (max. ang.)         AngularGrid ... 3 (Lebedev-194)
Angular grid pruning method      GridPruning ... 4 (adaptive)
Weight generation scheme         WeightScheme... mBecke (2022)
Basis function cutoff            BFCut       ... 3.0000e-16
Integration weight cutoff        WCut        ... 1.0000e-14
Partially contracted basis set               ... on
Rotationally invariant grid construction     ... off
Angular grids for H and He will be reduced by one unit

Total number of grid points                  ...    20150
Total number of batches                      ...      162
Average number of points per batch           ...      124
Average number of grid points per atom       ...     2519
UseSFitting                                  ... on

GRIDX 3
-------
General Integration Accuracy     IntAcc      ... 4.871
Radial Grid Type                 RadialGrid  ... OptM3 with GC (2021)
Angular Grid (max. ang.)         AngularGrid ... 4 (Lebedev-302)
Angular grid pruning method      GridPruning ... 4 (adaptive)
Weight generation scheme         WeightScheme... mBecke (2022)
Basis function cutoff            BFCut       ... 3.0000e-16
Integration weight cutoff        WCut        ... 1.0000e-14
Partially contracted basis set               ... on
Rotationally invariant grid construction     ... off
Angular grids for H and He will be reduced by one unit

Total number of grid points                  ...    40577
Total number of batches                      ...      320
Average number of points per batch           ...      126
Average number of grid points per atom       ...     5072
UseSFitting                                  ... on
Grids setup in   2.8 sec
Initializing property integral containers    ... done (  0.0 sec)

SHARK setup successfully completed in   3.0 seconds

Maximum memory used throughout the entire STARTUP-calculation: 19.3 MB


           ************************************************************
           *        Program running with 24 parallel MPI-processes    *
           *              working on a common directory               *
           ************************************************************
Occupation numbers will be reassigned to an Aufbau configuration
             **** ENERGY FILE WAS UPDATED (run.en.tmp) ****
Finished Guess after   0.6 sec
Maximum memory used throughout the entire GUESS-calculation: 6.0 MB


           ************************************************************
           *        Program running with 24 parallel MPI-processes    *
           *              working on a common directory               *
           ************************************************************
--------------------
CPCM SOLVATION MODEL
--------------------
CPCM parameters:
  Epsilon                                         ...       1.9578
  Refrac                                          ...       1.0000
  Rsolv                                           ...       1.3000
  Surface type                                    ... GAUSSIAN VDW
  Discretization scheme                           ... Constant charge density
    Threshold for H atoms                         ...       5.0000 (charges/Ang^2)
    Threshold for non-H atoms                     ...       5.0000 (charges/Ang^2)
  Epsilon function type                           ...         CPCM
Solvent:                                          ... CUSTOM
Radii:
  Scheme                                          ... Element-dependent radii
  Radius for Al used is    4.1725 Bohr (=   2.2080 Ang.)
  Radius for H  used is    2.4944 Bohr (=   1.3200 Ang.)
Calculating surface                               ...        done! (  0.0s)
Cavity surface points                             ...          770
Cavity Volume                                     ...     622.7850
Cavity Surface-area                               ...     397.2668
Calculating surface distance matrix               ...        done! (  0.0s)
Performing Cholesky decomposition & store         ...        done! (  0.0s)
Overall time for CPCM initialization              ...                 0.1s

----------------------------------------D-I-I-S--------------------------------------------
Iteration    Energy (Eh)           Delta-E    RMSDP     MaxDP     DIISErr   Damp  Time(sec)
-------------------------------------------------------------------------------------------
               ***  Starting incremental Fock matrix formation  ***
                              *** Initializing SOSCF ***
---------------------------------------S-O-S-C-F--------------------------------------
Iteration    Energy (Eh)           Delta-E    RMSDP     MaxDP     MaxGrad    Time(sec)
--------------------------------------------------------------------------------------
    1    -487.7994634040861683     0.00e+00  8.01e-04  8.74e-04  1.27e-04     0.3
               *** Restarting incremental Fock matrix formation ***
    2    -487.7994697910316972    -6.39e-06  2.16e-04  3.24e-04  1.29e-04     0.3
    3    -487.7994700821933520    -2.91e-07  3.84e-05  8.81e-05  1.83e-05     0.3
    4    -487.7994700870377756    -4.84e-09  3.44e-06  3.50e-06  2.13e-06     0.3
    5    -487.7994700872991416    -2.61e-10  7.21e-07  1.41e-06  4.93e-07     0.3
    6    -487.7994700872736757     2.55e-11  6.64e-08  6.23e-08  5.23e-08     0.3
    7    -487.7994700872711746     2.50e-12  1.67e-08  1.75e-08  6.28e-09     0.3
    8    -487.7994700872711746     0.00e+00  7.33e-10  1.22e-09  1.15e-09     0.3
                          ***Energy convergence achieved***
                    ***Orbital Rotation convergence achieved***
    9    -487.7994700872711746     0.00e+00  0.00e+00  0.00e+00  9.92e-10     0.2
                           ***RMSP convergence achieved***
                           ***MAXP convergence achieved***
                       ***Gradient convergence achieved***

               *****************************************************
               *                     SUCCESS                       *
               *           SCF CONVERGED AFTER   9 CYCLES          *
               *****************************************************

Recomputing exchange energy using gridx3       ... done (    0.206 sec)
Old exchange energy                            :    -16.112031849 Eh
New exchange energy                            :    -16.112018969 Eh
Exchange energy change after final integration :      0.000012880 Eh
Total energy after final integration           :   -487.799457207 Eh
             **** ENERGY FILE WAS UPDATED (run.en.tmp) ****

----------------
TOTAL SCF ENERGY
----------------

Total Energy       :       -487.79945720711220 Eh          -13273.69805 eV

Components:
Nuclear Repulsion  :         77.73491524345694 Eh            2115.27458 eV
Electronic Energy  :       -565.53146850332189 Eh          -15388.89361 eV
One Electron Energy:       -831.81860835035775 Eh          -22634.93507 eV
Two Electron Energy:        266.28713984703586 Eh            7246.04146 eV
CPCM Dielectric    :         -0.00291682740626 Eh              -0.07937 eV

Virial components:
Potential Energy   :       -974.52608788081182 Eh          -26518.20301 eV
Kinetic Energy     :        486.72663067369962 Eh           13244.50496 eV
Virial Ratio       :          2.00220416649882

DFT components:
N(Alpha)           :       16.000000738520 electrons
N(Beta)            :       16.000000738520 electrons
N(Total)           :       32.000001477040 electrons
E(X)               :      -21.430252565348 Eh       
E(C)               :       -1.475604651954 Eh       
E(XC)              :      -22.905857217302 Eh       

CPCM Solvation Model Properties:
[...]
     19       0.196555  -0.019679   0.022439   0.176334   0.017515  -0.021885
     20       0.411779  -0.412900   0.000273   0.466032  -0.011588   0.000268
     21       0.008414   0.000482  -0.499567   0.004175   0.489714   0.492693
     22       0.196660   0.019899   0.022449  -0.176466  -0.017504  -0.021895
     23       0.411680   0.413348   0.000279  -0.466002   0.011586   0.000267
                 12         13         14         15         16         17    
      0      -0.000004   0.000005  -0.000012   0.001412  -0.030195   0.010692
      1       0.000010  -0.000014   0.000003   0.029344   0.001438  -0.000481
      2      -0.034290   0.037349   0.000716   0.000006   0.000005  -0.000003
      3      -0.000005  -0.000006  -0.000012   0.001412  -0.030195  -0.010692
      4       0.000004   0.000001   0.000004   0.029344   0.001438   0.000481
      5      -0.034290  -0.037349  -0.000716   0.000006   0.000005   0.000001
      6       0.000005  -0.019608  -0.028432  -0.030997   0.701619   0.000095
      7      -0.000006   0.012283  -0.613115  -0.645332  -0.033563  -0.000147
      8       0.021143   0.000006  -0.000127  -0.000135  -0.000116   0.691017
      9      -0.009976  -0.014691   0.247913  -0.003366   0.053313  -0.105737
     10      -0.219258  -0.228134  -0.015093  -0.070067  -0.002414   0.004782
     11       0.448361   0.443573   0.007487   0.189516   0.000231   0.000085
     12       0.000006   0.019609   0.028557  -0.031107   0.701597  -0.000094
     13      -0.000003  -0.012178   0.612983  -0.645460  -0.033768   0.000147
     14       0.021142  -0.000006   0.000126  -0.000135  -0.000115  -0.690978
     15      -0.009983   0.014693  -0.247656  -0.003313   0.053338   0.105741
     16      -0.219364   0.228261   0.015065  -0.070080  -0.002415  -0.004780
     17       0.448278  -0.443544  -0.007439   0.189416   0.000231  -0.000086
     18       0.010094  -0.014818   0.247906  -0.003420   0.053313   0.105739
     19       0.219073  -0.227950  -0.015092  -0.069987  -0.002415  -0.004782
     20       0.448451  -0.443666  -0.007570  -0.189543  -0.000248   0.000051
     21       0.010099   0.014822  -0.247649  -0.003366   0.053339  -0.105743
     22       0.219180   0.228078   0.015062  -0.070000  -0.002416   0.004779
     23       0.448369   0.443637   0.007517  -0.189442  -0.000247  -0.000053
                 18         19         20         21         22         23    
      0      -0.000004   0.000002   0.000002  -0.000002   0.001465  -0.001482
      1       0.000007  -0.000004  -0.000012   0.000010   0.032716  -0.033131
      2      -0.024709   0.009779   0.013553  -0.016039   0.000013  -0.000015
      3      -0.000004  -0.000001   0.000002   0.000003  -0.001465  -0.001482
      4       0.000003  -0.000000   0.000008   0.000011  -0.032716  -0.033132
      5      -0.024709  -0.009779   0.013552   0.016039   0.000003   0.000002
      6       0.000108   0.706186   0.000008  -0.005271  -0.000001  -0.000384
      7      -0.000152  -0.032162  -0.000011   0.000385   0.000000  -0.007852
      8       0.703456  -0.000103   0.055023   0.000001  -0.000090  -0.000000
      9       0.001914  -0.000185  -0.020261  -0.020196   0.020006   0.020057
     10       0.042538  -0.008979  -0.452156  -0.451134   0.446046   0.447205
     11      -0.021028   0.000403  -0.208992  -0.214734   0.223417   0.221088
     12       0.000109  -0.706194   0.000008   0.005271   0.000001  -0.000380
     13      -0.000152   0.032267  -0.000011  -0.000377  -0.000000  -0.007852
     14       0.703495   0.000104   0.055023  -0.000001   0.000113  -0.000000
     15       0.001908   0.000185  -0.020249   0.020183  -0.020015   0.020064
     16       0.042542   0.008984  -0.451883   0.450852  -0.446229   0.447378
     17      -0.021028  -0.000410  -0.208999   0.214739  -0.223643   0.221313
     18      -0.001920  -0.000183   0.020199  -0.020128  -0.019946   0.019993
     19      -0.042529  -0.008979   0.452216  -0.451119  -0.446250   0.447324
     20      -0.021047  -0.000406  -0.208797   0.214500   0.223290  -0.220920
     21      -0.001915   0.000183   0.020187   0.020117   0.019955   0.020002
     22      -0.042533   0.008984   0.451937   0.450843   0.446424   0.447506
     23      -0.021047   0.000413  -0.208801  -0.214508  -0.223511  -0.221150


-----------
IR SPECTRUM
-----------

 Mode   freq       eps      Int      T**2         TX        TY        TZ
       cm**-1   L/(mol*cm) km/mol    a.u.
----------------------------------------------------------------------------
  6:    202.37   0.004423   22.35  0.006821  (-0.002618 -0.082549 -0.000015)
  7:    380.34   0.000000    0.00  0.000000  (-0.000001 -0.000017 -0.000000)
  8:    420.55   0.000000    0.00  0.000000  (-0.000001 -0.000000 -0.000094)
  9:    463.66   0.000000    0.00  0.000000  (-0.000000 -0.000000 -0.000010)
 10:    473.89   0.000000    0.00  0.000000  ( 0.000000  0.000000  0.000000)
 11:    618.51   0.076699  387.60  0.038698  (-0.196516  0.008886  0.000026)
 12:    686.03   0.169193  855.03  0.076964  (-0.000038  0.000059 -0.277423)
 13:    736.70   0.000000    0.00  0.000000  (-0.000001 -0.000044  0.000000)
 14:    759.52   0.000000    0.00  0.000000  (-0.000065  0.000021  0.000001)
 15:    846.17   0.068892  348.15  0.025407  ( 0.008230  0.159184  0.000034)
 16:   1310.87   0.099544  503.06  0.023697  (-0.153773  0.007157  0.000025)
 17:   1432.65   0.000000    0.00  0.000000  (-0.000000  0.000000 -0.000007)
 18:   1489.20   0.282679  1428.55  0.059236  (-0.000038  0.000052 -0.243384)
 19:   1568.56   0.000000    0.00  0.000000  ( 0.000001 -0.000010 -0.000000)
 20:   2002.87   0.027016  136.53  0.004209  ( 0.000010 -0.000009  0.064879)
 21:   2010.09   0.000000    0.00  0.000000  ( 0.000002  0.000040  0.000000)
 22:   2015.90   0.000000    0.00  0.000000  (-0.000000  0.000001  0.000034)
 23:   2020.92   0.109507  553.41  0.016910  (-0.005828 -0.129907 -0.000024)

* The epsilon (eps) is given for a Dirac delta lineshape.
** The dipole moment derivative (T) already includes vibrational overlap.

--------------
RAMAN SPECTRUM  
--------------

 Mode    freq (cm**-1)   Activity   Depolarization
-------------------------------------------------------------------
   6:       202.37      0.000000      0.735854
   7:       380.34     15.176960      0.308373
   8:       420.55      0.000001      0.749980
   9:       463.66     14.334453      0.750000
  10:       473.89      5.278274      0.750000
  11:       618.51      0.000002      0.749864
  12:       686.03      0.000002      0.750000
  13:       736.70     29.008197      0.742485
  14:       759.52     46.476486      0.749862
  15:       846.17      0.000002      0.299412
  16:      1310.87      0.000002      0.746252
  17:      1432.65     15.754373      0.750000
  18:      1489.20      0.000000      0.749877
  19:      1568.56    112.138062      0.067022
  20:      2002.87      0.000001      0.740075
  21:      2010.09    541.736120      0.092367
  22:      2015.90    105.103552      0.750000
  23:      2020.92      0.000042      0.083382

The first frequency considered to be a vibration is 6
The total number of vibrations considered is 18


--------------------------
THERMOCHEMISTRY AT 298.15K
--------------------------

Temperature         ...   298.15 K
Pressure            ...     1.00 atm
Total Mass          ...    60.01 AMU
Quasi RRHO          ...     True
Cut-Off Frequency   ...     1.00 cm^-1

Throughout the following assumptions are being made:
  (1) The electronic state is orbitally nondegenerate
  (2) There are no thermally accessible electronically excited states
  (3) Hindered rotations indicated by low frequency modes are not
      treated as such but are treated as vibrations and this may
      cause some error
  (4) All equations used are the standard statistical mechanics
      equations for an ideal gas
  (5) All vibrations are strictly harmonic

freq.     202.37  E(vib)   ...       0.35 
freq.     380.34  E(vib)   ...       0.21 
freq.     420.55  E(vib)   ...       0.18 
freq.     463.66  E(vib)   ...       0.16 
freq.     473.89  E(vib)   ...       0.15 
freq.     618.51  E(vib)   ...       0.09 
freq.     686.03  E(vib)   ...       0.07 
freq.     736.70  E(vib)   ...       0.06 
freq.     759.52  E(vib)   ...       0.06 
freq.     846.17  E(vib)   ...       0.04 
freq.    1310.87  E(vib)   ...       0.01 
freq.    1432.65  E(vib)   ...       0.00 
freq.    1489.20  E(vib)   ...       0.00 
freq.    1568.56  E(vib)   ...       0.00 
freq.    2002.87  E(vib)   ...       0.00 
freq.    2010.09  E(vib)   ...       0.00 
freq.    2015.90  E(vib)   ...       0.00 
freq.    2020.92  E(vib)   ...       0.00 

------------
INNER ENERGY
------------

The inner energy is: U= E(el) + E(ZPE) + E(vib) + E(rot) + E(trans)
    E(el)   - is the total energy from the electronic structure calculation
              = E(kin-el) + E(nuc-el) + E(el-el) + E(nuc-nuc)
    E(ZPE)  - the the zero temperature vibrational energy from the frequency calculation
    E(vib)  - the the finite temperature correction to E(ZPE) due to population
              of excited vibrational states
    E(rot)  - is the rotational thermal energy
    E(trans)- is the translational thermal energy

Summary of contributions to the inner energy U:
Electronic energy                ...   -487.78833302 Eh
Zero point energy                ...      0.04428482 Eh      27.79 kcal/mol
Thermal vibrational correction   ...      0.00222507 Eh       1.40 kcal/mol
Thermal rotational correction    ...      0.00141627 Eh       0.89 kcal/mol
Thermal translational correction ...      0.00141627 Eh       0.89 kcal/mol
-----------------------------------------------------------------------
Total thermal energy                   -487.73899059 Eh


Summary of corrections to the electronic energy:
(perhaps to be used in another calculation)
Total thermal correction                  0.00505761 Eh       3.17 kcal/mol
Non-thermal (ZPE) correction              0.04428482 Eh      27.79 kcal/mol
-----------------------------------------------------------------------
Total correction                          0.04934243 Eh      30.96 kcal/mol


--------
ENTHALPY
--------

The enthalpy is H = U + kB*T
                kB is Boltzmann's constant
Total thermal energy              ...   -487.73899059 Eh 
Thermal Enthalpy correction       ...      0.00094421 Eh       0.59 kcal/mol
-----------------------------------------------------------------------
Total Enthalpy                    ...   -487.73804638 Eh


Note: Rotational entropy computed according to Herzberg 
Infrared and Raman Spectra, Chapter V,1, Van Nostrand Reinhold, 1945 
Point Group:  Cs, Symmetry Number:   1  
Rotational constants in cm-1:     1.572205     0.154188     0.146885 

Vibrational entropy computed according to the QRRHO of S. Grimme
Chem.Eur.J. 2012 18 9955 using a reference frequency of 100.0 cm-1


-------
ENTROPY
-------

The entropy contributions are T*S = T*(S(el)+S(vib)+S(rot)+S(trans))
     S(el)   - electronic entropy
     S(vib)  - vibrational entropy
     S(rot)  - rotational entropy
     S(trans)- translational entropy
The entropies will be listed as multiplied by the temperature to get
units of energy

Electronic entropy                ...      0.00000000 Eh      0.00 kcal/mol
Vibrational entropy               ...      0.00333692 Eh      2.09 kcal/mol
Rotational entropy                ...      0.01108533 Eh      6.96 kcal/mol
Translational entropy             ...      0.01814806 Eh     11.39 kcal/mol
-----------------------------------------------------------------------
Final entropy term                ...      0.03257030 Eh     20.44 kcal/mol

In case the symmetry of your molecule has not been determined correctly
or in case you have a reason to use a different symmetry number we print 
out the resulting rotational entropy values for sn=1,12:

 non-linear molecules -----------------------------------
|  sn= 1 | S(rot)=       0.01108533 Eh      6.96 kcal/mol|
|  sn= 2 | S(rot)=       0.01043087 Eh      6.55 kcal/mol|
|  sn= 3 | S(rot)=       0.01004804 Eh      6.31 kcal/mol|
|  sn= 4 | S(rot)=       0.00977642 Eh      6.13 kcal/mol|
|  sn= 5 | S(rot)=       0.00956573 Eh      6.00 kcal/mol|
|  sn= 6 | S(rot)=       0.00939358 Eh      5.89 kcal/mol|
|  sn= 7 | S(rot)=       0.00924804 Eh      5.80 kcal/mol|
|  sn= 8 | S(rot)=       0.00912196 Eh      5.72 kcal/mol|
|  sn= 9 | S(rot)=       0.00901075 Eh      5.65 kcal/mol|
|  sn=10 | S(rot)=       0.00891127 Eh      5.59 kcal/mol|
|  sn=11 | S(rot)=       0.00882128 Eh      5.54 kcal/mol|
|  sn=12 | S(rot)=       0.00873913 Eh      5.48 kcal/mol|
 linear molecules ---------------------------------------
|  Dinfh | S(rot)=       0.00713685 Eh      4.48 kcal/mol|
|  Cinfv | S(rot)=       0.00779130 Eh      4.89 kcal/mol|
 --------------------------------------------------------


-------------------
GIBBS FREE ENERGY
-------------------

The Gibbs free energy is G = H - T*S

Total enthalpy                    ...   -487.73804638 Eh 
Total entropy correction          ...     -0.03257030 Eh    -20.44 kcal/mol
-----------------------------------------------------------------------
Final Gibbs free energy         ...   -487.77061669 Eh

For completeness - the Gibbs free energy minus the electronic energy
G-E(el)                           ...      0.01771633 Eh     11.12 kcal/mol


Maximum memory used throughout the entire PROP-calculation: 25.9 MB

--------------------------------
SUGGESTED CITATIONS FOR THIS RUN
--------------------------------

Below you find a list of papers that are relevant to this ORCA run
We neither can nor want to force you to cite these papers, but we appreciate if you do
You receive ORCA, which is the product of decades of hard work by many enthusiastic individuals, for free
The only thing we kindly ask in return is that you cite our papers,
We deeply appreciate it, if you show your appreciation for ORCA by not just citing the generic ORCA reference.

Please note that relegating all ORCA citations to the supporting information does *not* help us.
SI sections are not indexed - citations you put there will not count into any citation statistics
But we need these citations in order to attract the funding resources that allow us to do what we are doing

Therefore, if you are a happy ORCA user, please consider citing a few of the papers listed below in the main body of your paper

In addition to the list printed below, the program has created the file run.bibtex that contains the list in bibtex format
You can import this file easily into all common literature databanks and citation aid programs


List of essential papers. We consider these as the minimum necessary citations

  1. Neese, F.
     Software update: the ORCA program system, version 6.0
     WIRES Comput. Molec. Sci. 2025 15(1), e70019
     doi.org/10.1002/wcms.7019

List of papers to cite with high priority. The work reported in these papers was absolutely
necessary for this run to complete.
Our perspective: the developers of density functionals and basis sets usually get cited in chemistry papers
Good! But without the algorithms to do something with them, the functionals or basis sets would not do anything.
Hence, in our opinion, the algorithm design and method developments papers are equally worthy of getting cited

  1. Neese, F.
     An improvement of the resolution of the identity approximation for the formation of the Coulomb matrix
     J. Comp. Chem. 2003 24(14), 1740-1747
     doi.org/10.1002/jcc.10318
  2. Neese, F.; Wennmohs, F.; Hansen, A.; Becker, U.
     Efficient, approximate and parallel Hartree-Fock and hybrid DFT calculations. A 'chain-of-spheres' algorithm for the Hartree-Fock exchange
     Chem. Phys. 2009 356(1-3), 98-109
     doi.org/10.1016/j.chemphys.2008.10.036
  3. Grimme, S.; Antony, J.; Ehrlich, S.; Krieg, H.
     A consistent and accurate ab initio parametrization of density functional dispersion correction (DFT-D) for the 94 elements H-Pu
     J. Chem. Phys. 2010 132 , 154104
     doi.org/10.1063/1.3382344
  4. Grimme, S.; Ehrlich, S.; Goerigk, L.
     Effect of the damping function in dispersion corrected density functional theory
     J. Comput. Chem. 2011 32(7), 1456-1465
     doi.org/10.1002/jcc.21759
  5. Bykov, D.; Petrenko, T.; Izsak, R.; Kossmann, S.; Becker, U.; Valeev, E.; Neese, F.
     Efficient implementation of the analytic second derivatives of Hartree-Fock and hybrid DFT energies: a detailed analysis of different approximations
     Molec. Phys. 2015 113 , 1961-1977
     doi.org/10.1080/00268976.2015.1025114
  6. Garcia-Rates, M.; Neese, F.
     Efficient implementation of the analytical second derivatives of hartree-fock and hybrid DFT energies within the framework of the conductor-like polarizable continuum model
     J. Comput. Chem. 2019 40 , 1816-1828
     doi.org/10.1002/jcc.25833
  7. Garcia-Rates, M.; Neese, F.
     Effect of the Solute Cavity on the Solvation Energy and its Derivatives within the Framework of the Gaussian Charge Scheme
     J. Comput. Chem. 2020 41 , 922-939
     doi.org/10.1002/jcc.26139
  8. Helmich-Paris, B.; de Souza, B.; Neese, F.; Izsák, R.
     An improved chain of spheres for exchange algorithm
     J. Chem. Phys. 2021 155(10), 104109
     doi.org/10.1063/5.0058766
  9. Neese, F.
     The SHARK Integral Generation and Digestion System
     J. Comp. Chem. 2022 44(3), 381
     doi.org/10.1002/jcc.26942
 10. Petra, P.; Frank, N.
     Efficient calculation of analytic Raman intensities
     to be submitted 2025  , 

List of suggested additional citations. These are papers that are important in the 'surrounding' of 
of this run, or papers that preceded the highly important papers. If you like your results we are grateful for a citation.

  1. Izsak, R.; Neese, F.
     An overlap fitted chain of spheres exchange method
     J. Chem. Phys. 2011 135 , 144105
     doi.org/10.1063/1.3646921
  2. Izsak, R.; Hansen, A.; Neese, F.
     The resolution of identity and chain of spheres approximations for the LPNO-CCSD singles Fock term
     Molec. Phys. 2012 110 , 2413-2417
     doi.org/10.1080/00268976.2012.687466
  3. Neese, F.
     The ORCA program system
     WIRES Comput. Molec. Sci. 2012 2(1), 73-78
     doi.org/10.1002/wcms.81
  4. Izsak, R.; Neese, F.; Klopper, W.
     Robust fitting techniques in the chain of spheres approximation to the Fock exchange: The role of the complementary space
     J. Chem. Phys. 2013 139 , 
     doi.org/10.1063/1.4819264
  5. Neese, F.
     Software update: the ORCA program system, version 4.0
     WIRES Comput. Molec. Sci. 2018 8(1), 1-6
     doi.org/10.1002/wcms.1327
  6. Neese, F.; Wennmohs, F.; Becker, U.; Riplinger, C.
     The ORCA quantum chemistry program package
     J. Chem. Phys. 2020 152(22), 224108
     doi.org/10.1063/5.0004608
  7. Neese, F.
     Software update: The ORCA program system—Version 5.0
     WIRES Comput. Molec. Sci. 2022 12(1), e1606
     doi.org/10.1002/wcms.1606

List of optional additional citations

  1. Neese, F.
     Approximate second-order SCF convergence for spin unrestricted wavefunctions
     Chem. Phys. Lett. 2000 325(1-3), 93-98
     doi.org/10.1016/s0009-2614(00)00662-x

Timings for individual modules:

Sum of individual times          ...      172.238 sec (=   2.871 min)
Startup calculation              ...       43.852 sec (=   0.731 min)  25.5 %
SCF iterations                   ...       56.263 sec (=   0.938 min)  32.7 %
Property integrals               ...       16.040 sec (=   0.267 min)   9.3 %
SCF Response                     ...        4.514 sec (=   0.075 min)   2.6 %
Property calculations            ...       23.575 sec (=   0.393 min)  13.7 %
SCF Gradient evaluation          ...       27.954 sec (=   0.466 min)  16.2 %
Geometry relaxation              ...        0.039 sec (=   0.001 min)   0.0 %
                             ****ORCA TERMINATED NORMALLY****
TOTAL RUN TIME: 0 days 0 hours 3 minutes 2 seconds 339 msec
