
                                 *****************
                                 * O   R   C   A *
                                 *****************

                                            #,                                       
                                            ###                                      
                                            ####                                     
                                            #####                                    
                                            ######                                   
                                           ########,                                 
                                     ,,################,,,,,                         
                               ,,#################################,,                 
                          ,,##########################################,,             
                       ,#########################################, ''#####,          
                    ,#############################################,,   '####,        
                  ,##################################################,,,,####,       
                ,###########''''           ''''###############################       
              ,#####''   ,,,,##########,,,,          '''####'''          '####       
            ,##' ,,,,###########################,,,                        '##       
           ' ,,###''''                  '''############,,,                           
         ,,##''                                '''############,,,,        ,,,,,,###''
      ,#''                                            '''#######################'''  
     '                                                          ''''####''''         
             ,#######,   #######,   ,#######,      ##                                
            ,#'     '#,  ##    ##  ,#'     '#,    #''#        ,####,    ,#,          
            ##       ##  ##   ,#'  ##            #'  '#       #'       ,# #          
            ##       ##  #######   ##           ,######,      #####,      #          
            '#,     ,#'  ##    ##  '#,     ,#' ,#      #,     #,   #      #          
             '#######'   ##     ##  '#######'  #'      '#     '####' #    #          



                #########################################################
                #                        -***-                          #
                #          Department of theory and spectroscopy        #
                #                                                       #
                #                      Frank Neese                      #
                #                                                       #
                #     Directorship, Architecture, Infrastructure        #
                #                    SHARK, DRIVERS                     #
                #        Core code/Algorithms in most modules           #
                #                                                       #
                #        Max Planck Institute fuer Kohlenforschung      #
                #                Kaiser Wilhelm Platz 1                 #
                #                 D-45470 Muelheim/Ruhr                 #
                #                      Germany                          #
                #                                                       #
                #                  All rights reserved                  #
                #                        -***-                          #
                #########################################################


                         Program Version 6.1.0  -  RELEASE   -
                                (GIT: $679e74b$)
                          ($2025-06-10 18:02:51 +0200$)


 With contributions from (in alphabetic order):
[Max-Planck-Institut fuer Kohlenforschung]                               
  Daniel Aravena         : Magnetic Suceptibility                        
  Michael Atanasov       : Ab Initio Ligand Field Theory (pilot matlab implementation)
  Alexander A. Auer      : GIAO ZORA, VPT2 properties, NMR spectrum      
  Ute Becker             : All parallelization in ORCA, NUMFREQ, NUMCALC 
  Giovanni Bistoni       : ED, misc. LED, open-shell LED, HFLD           
  Dmytro Bykov           : pre 5.0 version of the SCF Hessian            
  Marcos Casanova-Páez   : Triplet and SCS-CIS(D). UHF-(DLPNO)-IP/EA/STEOM-CCSD. UHF-CVS-IP/STEOM-CCSD   
  Vijay G. Chilkuri      : MRCI spin determinant printing, contributions to CSF-ICE 
  Pauline Colinet        : FMM embedding                                 
  Dipayan Datta          : RHF DLPNO-CCSD density                        
  Achintya Kumar Dutta   : EOM-CC, STEOM-CC                              
  Nicolas Foglia         : Exact transition moments, OPA infrastructure, MCD improvements    
  Dmitry Ganyushin       : Spin-Orbit,Spin-Spin,Magnetic field MRCI      
  Miquel Garcia-Rates    : C-PCM and meta-GGA Hessian, CCSD/C-PCM, Gaussian charge scheme 
  Tiago L. C. Gouveia    : GS-ROHF, GS-ROCIS                             
  Yang Guo               : DLPNO-NEVPT2, F12-NEVPT2, CIM, IAO-localization        
  Andreas Hansen         : Spin unrestricted coupled pair/coupled cluster methods 
  Ingolf Harden          : AUTO-CI MPn and infrastructure                
  Benjamin Helmich-Paris : MC-RPA, TRAH-(SCF,CASSCF), AVAS, COSX integrals, SCF dyn. polar., MC-PDFT, srDFT 
  Lee Huntington         : MR-EOM, pCC                                   
  Robert Izsak           : Overlap fitted RIJCOSX, COSX-SCS-MP3, EOM     
  Riya Kayal             : Wick's Theorem for AUTO-CI, AUTO-CI UHF-CCSDT 
  Emily Kempfer          : AUTO-CI RHF CISDT and CCSDT, approximate NEVPT4
  Christian Kollmar      : KDIIS, OOCD, Brueckner-CCSD(T), CCSD density, CASPT2, CASPT2-K, improved NEVPT2 
  Axel Koslowski         : Symmetry handling                             
  Simone Kossmann        : meta-GGA functionals, TD-DFT gradient, OOMP2, (MP2 Hessian; deprecated post 5.0) 
  Lucas Lang             : DCDCAS, Hyperfine gauge corrections, ICE-SOC+SSC
  Marvin Lechner         : AUTO-CI (C++ implementation), FIC-MRCC        
  Spencer Leger          : CASSCF response                               
  Dagmar Lenk            : GEPOL surface, SMD, ORCA-2-JSON               
  Dimitrios Liakos       : Extrapolation schemes; Compound Job, Property file
  Dimitrios Manganas     : Further ROCIS development; embedding schemes. LFT, Crystal Embedding 
  Dimitrios Pantazis     : SARC Basis sets                               
  Anastasios Papadopoulos: AUTO-CI, single reference methods and gradients 
  Taras Petrenko         : pre 6.0 DFT Hessian and TD-DFT gradient,  ECA, NRVS 
  Petra Pikulova         : Analytic Raman intensities                    
  Peter Pinski           : DLPNO-MP2, DLPNO-MP2 Gradient                 
  Shashank Vittal Rao    : ES-AILFT, MagRelax                            
  Christoph Reimann      : Effective Core Potentials                     
  Marius Retegan         : Local ZFS, SOC                                
  Christoph Riplinger    : Optimizer, TS searches, QM/MM, DLPNO-CCSD(T), (RO)-DLPNO pert. Triples 
  Michael Roemelt        : Original ROCIS implementation, recursive CI coupling coefficients
  Masaaki Saitow         : Open-shell DLPNO-CCSD energy and density      
  Barbara Sandhoefer     : DKH picture change effects                    
  Yorick L. A. Schmerwitz: GMF and freeze-and-release deltaSCF, NEB S-IDPP initial path                    
  Kantharuban Sivalingam : CASSCF convergence/infrastructure, NEVPT2, NEVPT3, NEVPT4(SD), FIC-MRCI and CEPA variants
  Bernardo de Souza      : ESD, SOC TD-DFT                               
  Georgi L. Stoychev     : AutoAux, RI-MP2 NMR, DLPNO-MP2 response, X2C  
  Van Anh Tran           : RI-MP2 g-tensors                              
  Willem Van den Heuvel  : Paramagnetic NMR                              
  Zikuan Wang            : NOTCH, Electric field optimization            
  Frank Wennmohs         : Technical directorship and infrastructure     
  Hang Xu                : AUTO-CI-Response properties                   
                                                                         
[FACCTs GmbH]                                                            
  Markus Bursch, Nicolas Foglia, Miquel Garcia-Rates, Ingolf Harden, Hagen Neugebauer, Anastasios Papadopoulos, 
  Christoph Riplinger, Bernardo de Souza, Georgi L. Stoychev                                                    
                                                                 
  APM, various basis sets, CI-OPT, improved COSX, DLPNO-Multilevel,           
  DOCKER, DRACO, updates on ESD, Fragmentator, GOAT, IRC, LR-CPCM, L-BFGS, MBIS, meta-GGA TD-DFT gradient, ML-optimized integration grids, 
  MM, NACMEs, nearIR, NEB, NEB-TS, NL-DFT gradient (VV10), 2- and 3-layer-ONIOM, interface openCOSMO-RS, QMMM,   
  Crystal-QMMM, RESP, rigid body optimization, SF, symmetry and pop. for TD-DFT, various functionals, SOLVATOR                                   
                                                                         
[Other institutions]                                                     
  V. Asgeirsson          : NEB                                           
  Christoph Bannwarth    : sTDA-DFT, sTD-DFT, PBEh-3c, B97-3c, D3        
  Giovanni Bistoni       : ETS/NOCV, ADLD/ADEX, COVALED                  
  Martin Brehm           : Molecular dynamics                            
  Ronald Cardenas        : ETS/NOCV                                      
  Martina Colucci        : COVALED                                       
  Sebastian Ehlert       : rSCAN, r2SCAN, r2SCAN-3c, D4, dhf basis sets  
  Marvin Friede          : D4 for Fr, Ra, Ac-Lr                          
  Lars Goerigk           : TD-DFT with DH, B97 family of functionals     
  Stefan Grimme          : VdW corrections, initial TS optimization, DFT functionals, gCP, sTDA/sTD-DF 
  Waldemar Hujo          : DFT-NL                                        
  H. Jonsson             : NEB                                           
  Holger Kruse           : gCP                                           
  Marcel Mueller         : wB97X-3c, vDZP basis set                      
  Hagen Neugebauer       : wr2SCAN, Native XTB                           
  Gianluca Regni         : ADLD/ADEX                                     
  Tobias Risthaus        : pre 6.0 range-separated hybrid DFT and stability analysis
  Lukas Wittmann         : regularized MP2, r2SCAN double-hybrids, wr2SCAN        
                                                                         
We gratefully acknowledge several colleagues who have allowed us to      
interface, adapt or use parts of their codes:                            
  Ed Valeev, F. Pavosevic, A. Kumar             : LibInt (2-el integral package), F12 methods 
  Garnet Chan, S. Sharma, J. Yang, R. Olivares  : DMRG                   
  Ulf Ekstrom                                   : XCFun DFT Library      
  Mihaly Kallay                                 : mrcc  (arbitrary order and MRCC methods)
  Frank Weinhold                                : gennbo (NPA and NBO analysis)           
  Simon Mueller                                 : openCOSMO-RS                            
  Christopher J. Cramer and Donald G. Truhlar   : smd solvation model                     
  S Lehtola, MJT Oliveira, MAL Marques          : LibXC Library                           
  Liviu Ungur et al                             : ANISO software                          


 Your calculation uses the libint2 library for the computation of 2-el integrals
 For citations please refer to: http://libint.valeyev.net

 Your ORCA version has been built with support for libXC version: 7.0.0
 For citations please refer to: https://libxc.gitlab.io

 This ORCA versions uses:
   CBLAS   interface :  Fast vector & matrix operations
   LAPACKE interface :  Fast linear algebra routines
   SCALAPACK package :  Parallel linear algebra routines
   Shared memory     :  Shared parallel matrices
   BLAS/LAPACK       :  OpenBLAS 0.3.29  USE64BITINT DYNAMIC_ARCH NO_AFFINITY Zen SINGLE_THREADED
        Core in use  :  Zen
   Copyright (c) 2011-2014, The OpenBLAS Project


  ***********************************
  * Starting time: Fri Jun 27 09:05:32 2025
  * Host name:     gadolinium01
  * Process ID:    2623588
  * Working dir.:  /local/scratch/mehlhorn/61323
  ***********************************



***************************************
The coordinates will be read from file: start.xyz
***************************************


Your calculation utilizes the atom-pairwise dispersion correction
with the Becke-Johnson damping scheme (D3BJ)


================================================================================

----- Orbital basis set information -----
Your calculation utilizes the basis: pc-3
   H, C-F              : F. Jensen, J. Chem. Phys. 115, 9113 (2001).
                         F. Jensen, J. Chem. Phys. 116, 7372 (2002).
                         F. Jensen, J. Chem. Phys. 117, 9234 (2002).
   Si-Cl               : F. Jensen, T. Helgaker, J. Chem. Phys. 121, 3463 (2004).
   He-B, Ne-Mg, Al, Ar : F. Jensen, J. Phys. Chem. A 111, 11198 (2007).
   K, Ca, Ga-Kr        : F. Jensen, J. Chem. Phys. 136, 094110 (2012).
   Sc-Zn               : F. Jensen, J. Chem. Phys. 138, 014107 (2013).

----- AuxJ basis set information -----
Your calculation utilizes the AutoAux generation procedure.
  G. L. Stoychev, A. A. Auer, F. Neese, J. Chem. Theory Comput. 13, 554 (2017)

----- AuxC basis set information -----
Your calculation utilizes the AutoAux generation procedure.
  G. L. Stoychev, A. A. Auer, F. Neese, J. Chem. Theory Comput. 13, 554 (2017)

----- AuxJK basis set information -----
Your calculation utilizes the AutoAux generation procedure.
  G. L. Stoychev, A. A. Auer, F. Neese, J. Chem. Theory Comput. 13, 554 (2017)

----- AuxX basis set information -----
Your calculation utilizes the AutoAux generation procedure.
  G. L. Stoychev, A. A. Auer, F. Neese, J. Chem. Theory Comput. 13, 554 (2017)

================================================================================
                                        WARNINGS
                       Please study these warnings very carefully!
================================================================================


WARNING: Geometry Optimization
  ===> : Switching off AutoStart
         For restart on a previous wavefunction, please use MOREAD

================================================================================
                                       INPUT FILE
================================================================================
NAME = run.inp
|  1> # Geometry optimization for (AlH3)n cluster
|  2> 
|  3> %pal nprocs 64 end
|  4> 
|  5> %geom MaxIter 500 end
|  6> 
|  7> 
|  8> ! PBE 	# functional used for the MOF calculations later (non-expensive)
|  9> ! RKS	# closed shell for AlH3
| 10> ! D3BJ  # better geometries at low cost
| 11> ! pc-3 	# proven basiset from earlier work not to large
| 12> ! Freq 	# Frequency analysis to check the stabiltity of the structures
| 13> 
| 14> ! NoPop # population analysis not necessary	
| 15> 
| 16> ! RI 		# speed up calculation 
| 17> ! AutoAux # no auxiliary basis set for pc implemented
| 18> ! DEFGRID3
| 19> ! TightSCF #
| 20> ! TightOpt
| 21> 
| 22> ! SmallPrint
| 23> 
| 24> 
| 25> * xyzFile 0 1 start.xyz # only maingroup elements H and Al so there should be no net spin
| 26> 
| 27>                          ****END OF INPUT****
================================================================================

                       *****************************
                       * Geometry Optimization Run *
                       *****************************

Geometry optimization settings:
Update method            Update   .... BFGS
Choice of coordinates    CoordSys .... (2022) Redundant Internals
Initial Hessian          InHess   .... Almloef's Model
Max. no of cycles        MaxIter  .... 500

Convergence Tolerances:
Energy Change            TolE     ....  1.0000e-06 Eh
Max. Gradient            TolMAXG  ....  1.0000e-04 Eh/bohr
RMS Gradient             TolRMSG  ....  3.0000e-05 Eh/bohr
Max. Displacement        TolMAXD  ....  1.0000e-03 bohr
RMS Displacement         TolRMSD  ....  6.0000e-04 bohr
Strict Convergence                .... False

------------------------------------------------------------------------------
                        ORCA OPTIMIZATION COORDINATE SETUP
------------------------------------------------------------------------------

The optimization will be done in redundant internal coordinates (2022)
Making redundant internal coordinates   ...  (2022 redundants) done
Evaluating the initial hessian          ...  (Almloef) done
Evaluating the coordinates              ...  done
Calculating the B-matrix                .... done
Calculating the G-matrix                .... done
The number of degrees of freedom        ....  253

    -----------------------------------------------------------------
                    Redundant Internal Coordinates


    -----------------------------------------------------------------
         Definition                    Initial Value    Approx d2E/dq
    -----------------------------------------------------------------
      1. B(H   1,Al  0)                  1.5839         0.411195   
      2. B(Al  4,Al  0)                  2.6256         0.327835   
      3. B(H   5,Al  4)                  1.5850         0.409500   
      4. B(H   6,Al  4)                  1.5865         0.407216   
      5. B(H   7,Al  0)                  1.8089         0.179904   
      6. B(Al  8,Al  0)                  3.1610         0.045859   
      7. B(H   9,Al  8)                  1.5839         0.411143   
      8. B(H  10,Al  4)                  1.7189         0.250409   
      9. B(H  10,Al  0)                  1.7920         0.191401   
     10. B(H  11,Al  8)                  1.7637         0.212420   
     11. B(Al 12,Al  8)                  2.7932         0.177103   
     12. B(Al 12,H   7)                  1.6754         0.293805   
     13. B(Al 12,H   3)                  1.6386         0.336313   
     14. B(Al 12,Al  0)                  2.7866         0.181430   
     15. B(H  13,Al  8)                  1.8075         0.180812   
     16. B(H  13,Al 12)                  1.6757         0.293484   
     17. B(H  14,Al 12)                  1.5768         0.422105   
     18. B(Al 16,H  15)                  1.5851         0.409353   
     19. B(Al 16,H  11)                  1.7303         0.240113   
     20. B(Al 16,Al  8)                  2.6260         0.327316   
     21. B(Al 16,H   2)                  1.5868         0.406772   
     22. B(H  17,Al  8)                  1.7254         0.244482   
     23. B(H  17,Al  0)                  1.7263         0.243698   
     24. B(H  18,Al  4)                  1.7290         0.241317   
     25. B(H  18,Al  0)                  1.7637         0.212365   
     26. B(H  19,Al 16)                  1.7190         0.250302   
     27. B(H  19,Al  8)                  1.7919         0.191484   
     28. A(Al  4,Al  0,H  18)           40.7618         0.387344   
     29. A(H   7,Al  0,H  18)          146.1009         0.302520   
     30. A(Al  4,Al  0,H  17)          124.8523         0.396784   
     31. A(H   1,Al  0,Al 12)          136.6984         0.392048   
     32. A(H  17,Al  0,H  18)           88.6099         0.317703   
     33. A(Al  8,Al  0,H  18)           83.2636         0.280150   
     34. A(H   1,Al  0,H  17)          104.9121         0.354597   
     35. A(Al  4,Al  0,H  10)           40.5489         0.380407   
     36. A(Al  8,Al  0,H  17)           23.6778         0.286198   
     37. A(H  10,Al  0,H  17)          150.3820         0.312386   
     38. A(H  10,Al  0,H  18)           81.2535         0.305535   
     39. A(Al 12,Al  0,H  18)          111.9017         0.349952   
     40. A(Al 12,Al  0,H  17)           73.6777         0.358209   
     41. A(Al  4,Al  0,Al  8)          109.9303         0.346245   
     42. A(H   1,Al  0,Al  8)          128.3132         0.310985   
     43. A(H   7,Al  0,Al 12)           35.2747         0.340336   
     44. A(H   7,Al  0,H  17)           87.5060         0.309275   
     45. A(Al  4,Al  0,H   7)          120.7517         0.376350   
     46. A(Al  4,Al  0,Al 12)          101.9653         0.440184   
     47. A(H   1,Al  0,H  10)          104.6998         0.340465   
     48. A(H   1,Al  0,H  18)          111.3168         0.346451   
     49. A(H   7,Al  0,H  10)           85.7188         0.297555   
     50. A(H  10,Al  0,Al 12)           84.3880         0.343885   
     51. A(Al  8,Al  0,Al 12)           55.5914         0.314004   
     52. A(H   1,Al  0,Al  4)          112.3159         0.435472   
     53. A(H   7,Al  0,Al  8)           79.8067         0.273106   
     54. A(Al  8,Al  0,H  10)          126.8045         0.275705   
     55. A(H   1,Al  0,H   7)          102.2136         0.336964   
     56. A(Al  0,Al  4,H  10)           42.6690         0.398682   
     57. A(Al  0,Al  4,H   5)          118.3597         0.435148   
     58. A(H   5,Al  4,H   6)          128.8135         0.387046   
     59. A(Al  0,Al  4,H   6)          112.8130         0.434710   
     60. A(H   6,Al  4,H  18)          107.5482         0.353425   
     61. A(H   5,Al  4,H  18)          109.2665         0.353760   
     62. A(Al  0,Al  4,H  18)           41.7632         0.396100   
     63. A(H   6,Al  4,H  10)          108.3696         0.355647   
     64. A(H   5,Al  4,H  10)          109.4744         0.355985   
     65. A(H  10,Al  4,H  18)           84.3718         0.325867   
     66. A(Al  0,H   7,Al 12)          106.1516         0.318798   
     67. A(H   9,Al  8,Al 12)          136.6445         0.390388   
     68. A(Al  0,Al  8,Al 12)           55.3950         0.312778   
     69. A(H  13,Al  8,H  19)           85.6230         0.297814   
     70. A(Al 12,Al  8,H  17)           73.5002         0.356936   
     71. A(H  13,Al  8,Al 16)          120.5477         0.376575   
     72. A(Al 12,Al  8,Al 16)          101.9197         0.438145   
     73. A(H  11,Al  8,Al 16)           40.7955         0.387254   
     74. A(H   9,Al  8,Al 16)          112.4868         0.435338   
     75. A(Al  0,Al  8,Al 16)          109.5571         0.346153   
     76. A(H  17,Al  8,H  19)          150.0414         0.312570   
     77. A(Al  0,Al  8,H  19)          126.4657         0.275724   
     78. A(Al 16,Al  8,H  19)           40.5420         0.380331   
     79. A(Al 12,Al  8,H  19)           84.4324         0.342521   
     80. A(H  11,Al  8,H  19)           81.2847         0.305568   
     81. A(H   9,Al  8,H  19)          104.7880         0.340483   
     82. A(Al  0,Al  8,H   9)          128.5680         0.310979   
     83. A(H   9,Al  8,H  11)          111.3771         0.346459   
     84. A(Al 12,Al  8,H  13)           35.1018         0.339252   
     85. A(H  11,Al  8,H  13)          145.8920         0.302776   
     86. A(Al  0,Al  8,H  11)           83.0455         0.280161   
     87. A(H   9,Al  8,H  13)          102.3703         0.337240   
     88. A(Al 16,Al  8,H  17)          124.4674         0.396897   
     89. A(H  13,Al  8,H  17)           87.5842         0.309687   
     90. A(Al  0,Al  8,H  13)           79.7380         0.273316   
     91. A(H  11,Al  8,H  17)           88.3006         0.317882   
     92. A(H   9,Al  8,H  17)          105.1670         0.354782   
     93. A(Al  0,Al  8,H  17)           23.6905         0.286341   
     94. A(H  11,Al  8,Al 12)          111.8850         0.348545   
     95. A(Al  0,H  10,Al  4)           96.7821         0.313763   
     96. A(Al  8,H  11,Al 16)           97.4486         0.316950   
     97. A(H   3,Al 12,H   7)           95.6116         0.353754   
     98. A(Al  0,Al 12,H   7)           38.5737         0.369846   
     99. A(Al  0,Al 12,H   3)           57.6087         0.378569   
    100. A(H  13,Al 12,H  14)          118.4775         0.367657   
    101. A(Al  8,Al 12,H  14)          145.1756         0.392188   
    102. A(H   7,Al 12,H  14)          118.4618         0.367726   
    103. A(H   3,Al 12,H  14)          125.1669         0.376382   
    104. A(Al  0,Al 12,H  14)          145.1320         0.393850   
    105. A(Al  8,Al 12,H  13)           38.3364         0.368247   
    106. A(H   7,Al 12,H  13)           97.4688         0.345716   
    107. A(H   3,Al 12,H  13)           95.6439         0.353689   
    108. A(Al  0,Al 12,H  13)           93.9917         0.369777   
    109. A(H   7,Al 12,Al  8)           93.8679         0.368316   
    110. A(H   3,Al 12,Al  8)           57.9002         0.376991   
    111. A(Al  0,Al 12,Al  8)           69.0136         0.394495   
    112. A(Al  8,H  13,Al 12)          106.5618         0.319003   
    113. A(H  11,Al 16,H  15)          109.3822         0.353439   
    114. A(Al  8,Al 16,H  15)          118.3370         0.434996   
    115. A(H   2,Al 16,H  15)          128.8017         0.386949   
    116. A(Al  8,Al 16,H  11)           41.7559         0.395643   
    117. A(H   2,Al 16,H  11)          107.4868         0.353060   
    118. A(H   2,Al 16,Al  8)          112.8490         0.434501   
    119. A(H  15,Al 16,H  19)          109.4293         0.355937   
    120. A(H  11,Al 16,H  19)           84.3547         0.325576   
    121. A(Al  8,Al 16,H  19)           42.6545         0.398541   
    122. A(H   2,Al 16,H  19)          108.3885         0.355556   
    123. A(Al  0,H  17,Al  8)          132.6317         0.325111   
    124. A(Al  0,H  18,Al  4)           97.4750         0.317195   
    125. A(Al  8,H  19,Al 16)           96.8035         0.313764   
    126. D(H   5,Al  4,Al  0,H  18)    -87.6194         0.010000   
    127. D(H   6,Al  4,Al  0,H   1)     -6.0723         0.010000   
    128. D(H   5,Al  4,Al  0,Al 12)     22.1447         0.010000   
    129. D(H   5,Al  4,Al  0,H  10)     88.4746         0.010000   
    130. D(H   5,Al  4,Al  0,H   1)    175.1601         0.010000   
    131. D(H   5,Al  4,Al  0,H   7)     54.4756         0.010000   
    132. D(H   5,Al  4,Al  0,H  17)    -56.1723         0.010000   
    133. D(H   6,Al  4,Al  0,H   7)   -126.7569         0.010000   
    134. D(H   5,Al  4,Al  0,Al  8)    -35.3349         0.010000   
    135. D(H   6,Al  4,Al  0,Al  8)    143.4326         0.010000   
    136. D(H   6,Al  4,Al  0,H  10)    -92.7578         0.010000   
    137. D(Al 12,H   7,Al  0,Al  8)     42.2668         0.010000   
    138. D(Al 12,H   7,Al  0,H  10)    -86.3317         0.010000   
    139. D(Al 12,H   7,Al  0,Al  4)    -64.9525         0.010000   
    140. D(Al 12,H   7,Al  0,H  18)    -18.9640         0.010000   
    141. D(Al 12,H   7,Al  0,H  17)     64.8152         0.010000   
    142. D(Al 12,H   7,Al  0,H   1)    169.5366         0.010000   
    143. D(H  11,Al  8,Al  0,H  17)    101.7501         0.010000   
    144. D(H  11,Al  8,Al  0,H   7)   -150.7952         0.010000   
    145. D(H  11,Al  8,Al  0,H  18)     -0.2862         0.010000   
    146. D(H  11,Al  8,Al  0,H  10)    -74.0490         0.010000   
    147. D(H   9,Al  8,Al  0,Al  4)   -143.4872         0.010000   
    148. D(H   9,Al  8,Al  0,H  18)   -112.1493         0.010000   
    149. D(H   9,Al  8,Al  0,Al 12)    125.4274         0.010000   
    150. D(H  11,Al  8,Al  0,Al 12)   -122.7096         0.010000   
    151. D(H  11,Al  8,Al  0,Al  4)    -31.6241         0.010000   
    152. D(H  11,Al  8,Al  0,H   1)    111.6267         0.010000   
    153. D(H   9,Al  8,Al  0,H  17)    -10.1129         0.010000   
    154. D(H   9,Al  8,Al  0,H   1)     -0.2363         0.010000   
    155. D(H   9,Al  8,Al  0,H  10)    174.0879         0.010000   
    156. D(H   9,Al  8,Al  0,H   7)     97.3418         0.010000   
    157. D(Al  0,H  10,Al  4,H  18)     -2.6130         0.010000   
    158. D(Al  0,H  10,Al  4,H   5)   -111.0845         0.010000   
    159. D(Al  4,H  10,Al  0,H  17)     73.8982         0.010000   
    160. D(Al  4,H  10,Al  0,Al 12)    115.8040         0.010000   
    161. D(Al  4,H  10,Al  0,Al  8)     77.3107         0.010000   
    162. D(Al  4,H  10,Al  0,H  18)      2.5791         0.010000   
    163. D(Al  0,H  10,Al  4,H   6)    104.0361         0.010000   
    164. D(Al  4,H  10,Al  0,H   1)   -107.2908         0.010000   
    165. D(Al  4,H  10,Al  0,H   7)    151.1905         0.010000   
    166. D(Al 16,H  11,Al  8,H  19)      2.4667         0.010000   
    167. D(Al 16,H  11,Al  8,H  17)    154.2834         0.010000   
    168. D(Al 16,H  11,Al  8,H  13)     71.1183         0.010000   
    169. D(Al 16,H  11,Al  8,Al 12)     82.8327         0.010000   
    170. D(Al 16,H  11,Al  8,H   9)   -100.0837         0.010000   
    171. D(Al 16,H  11,Al  8,Al  0)    131.1078         0.010000   
    172. D(H  14,Al 12,H   7,Al  0)    144.7924         0.010000   
    173. D(H  13,Al 12,H   7,Al  0)    -87.0319         0.010000   
    174. D(Al  8,Al 12,H   7,Al  0)    -48.6635         0.010000   
    175. D(H   7,Al 12,Al  0,H  17)   -109.6010         0.010000   
    176. D(H   7,Al 12,Al  0,H  10)     90.5168         0.010000   
    177. D(H   7,Al 12,Al  0,Al  8)   -126.6442         0.010000   
    178. D(H   3,Al 12,H   7,Al  0)      9.4302         0.010000   
    179. D(H   7,Al 12,Al  0,H   1)    -14.9991         0.010000   
    180. D(H   3,Al 12,Al  0,H  17)     81.5331         0.010000   
    181. D(H   3,Al 12,Al  0,H  18)     -0.1309         0.010000   
    182. D(H   3,Al 12,Al  0,H  10)    -78.3491         0.010000   
    183. D(H   7,Al 12,Al  0,Al  4)    127.2631         0.010000   
    184. D(H   3,Al 12,Al  0,Al  8)     64.4900         0.010000   
    185. D(H   3,Al 12,Al  0,H   7)   -168.8659         0.010000   
    186. D(Al  0,Al 12,Al  8,H   9)   -111.8720         0.010000   
    187. D(H   3,Al 12,Al  0,Al  4)    -41.6028         0.010000   
    188. D(H   3,Al 12,Al  0,H   1)    176.1350         0.010000   
    189. D(H   3,Al 12,Al  8,H  17)    -81.1760         0.010000   
    190. D(H   3,Al 12,Al  8,Al 16)     41.5568         0.010000   
    191. D(H   3,Al 12,Al  8,H  13)    168.6432         0.010000   
    192. D(H   3,Al 12,Al  8,H  11)      0.0627         0.010000   
    193. D(H   3,Al 12,Al  8,H   9)   -175.9800         0.010000   
    194. D(H   3,Al 12,Al  8,Al  0)    -64.1080         0.010000   
    195. D(Al  0,Al 12,Al  8,H  19)    142.4452         0.010000   
    196. D(Al  0,Al 12,Al  8,H  17)    -17.0681         0.010000   
    197. D(Al  0,Al 12,Al  8,Al 16)    105.6648         0.010000   
    198. D(Al  0,Al 12,Al  8,H  13)   -127.2489         0.010000   
    199. D(Al  0,Al 12,Al  8,H  11)     64.1707         0.010000   
    200. D(Al  8,H  13,Al 12,H  14)   -145.0510         0.010000   
    201. D(Al  8,H  13,Al 12,H   7)     86.7840         0.010000   
    202. D(Al  8,H  13,Al 12,H   3)     -9.6499         0.010000   
    203. D(Al  8,H  13,Al 12,Al  0)     48.1607         0.010000   
    204. D(Al 12,H  13,Al  8,H  19)     86.5422         0.010000   
    205. D(Al 12,H  13,Al  8,H  17)    -64.2579         0.010000   
    206. D(Al 12,H  13,Al  8,Al 16)     65.0014         0.010000   
    207. D(Al 12,H  13,Al  8,H  11)     19.1254         0.010000   
    208. D(Al 12,H  13,Al  8,H   9)   -169.2590         0.010000   
    209. D(Al 12,H  13,Al  8,Al  0)    -41.7468         0.010000   
    210. D(H  19,Al 16,H  11,Al  8)     -2.5541         0.010000   
    211. D(H  15,Al 16,H  11,Al  8)   -111.1911         0.010000   
    212. D(H   2,Al 16,H  11,Al  8)    104.9764         0.010000   
    213. D(H  11,Al 16,Al  8,Al 12)   -109.7844         0.010000   
    214. D(H  11,Al 16,Al  8,H   9)     97.1325         0.010000   
    215. D(H  11,Al 16,Al  8,Al  0)    -52.5347         0.010000   
    216. D(H   2,Al 16,Al  8,H  19)     92.7429         0.010000   
    217. D(H   2,Al 16,Al  8,H  17)   -122.7511         0.010000   
    218. D(H   2,Al 16,Al  8,H  13)    127.0213         0.010000   
    219. D(H  11,Al 16,Al  8,H  13)   -141.9689         0.010000   
    220. D(H   2,Al 16,Al  8,Al 12)    159.2058         0.010000   
    221. D(H   2,Al 16,Al  8,H  11)    -91.0098         0.010000   
    222. D(H   2,Al 16,Al  8,H   9)      6.1227         0.010000   
    223. D(H   2,Al 16,Al  8,Al  0)   -143.5444         0.010000   
    224. D(Al  0,H  17,Al  8,H  19)     -7.2710         0.010000   
    225. D(Al  0,H  17,Al  8,Al 16)    -56.3622         0.010000   
    226. D(Al  0,H  17,Al  8,H  13)     69.6578         0.010000   
    227. D(Al  0,H  17,Al  8,Al 12)     36.9599         0.010000   
    228. D(Al  0,H  17,Al  8,H  11)    -76.4753         0.010000   
    229. D(Al  0,H  17,Al  8,H   9)    171.8224         0.010000   
    230. D(Al  8,H  17,Al  0,H  18)     76.3001         0.010000   
    231. D(Al  8,H  17,Al  0,Al 12)    -37.0222         0.010000   
    232. D(Al  8,H  17,Al  0,H  10)      6.8158         0.010000   
    233. D(Al  8,H  17,Al  0,H   7)    -70.0160         0.010000   
    234. D(Al  8,H  17,Al  0,Al  4)     56.3785         0.010000   
    235. D(Al  8,H  17,Al  0,H   1)   -171.9941         0.010000   
    236. D(Al  0,H  18,Al  4,H   6)   -104.8566         0.010000   
    237. D(Al  0,H  18,Al  4,H   5)    111.3480         0.010000   
    238. D(Al  4,H  18,Al  0,H  17)   -154.6430         0.010000   
    239. D(Al  4,H  18,Al  0,Al 12)    -82.8678         0.010000   
    240. D(Al  4,H  18,Al  0,H  10)     -2.5680         0.010000   
    241. D(Al  4,H  18,Al  0,Al  8)   -131.5092         0.010000   
    242. D(Al  4,H  18,Al  0,H   7)    -71.1981         0.010000   
    243. D(Al  0,H  18,Al  4,H  10)      2.6590         0.010000   
    244. D(Al  4,H  18,Al  0,H   1)     99.8803         0.010000   
    245. D(Al  8,H  19,Al 16,H   2)   -104.0686         0.010000   
    246. D(Al 16,H  19,Al  8,H  17)    -73.4511         0.010000   
    247. D(Al 16,H  19,Al  8,H  13)   -150.8916         0.010000   
    248. D(Al 16,H  19,Al  8,Al 12)   -115.6725         0.010000   
    249. D(Al 16,H  19,Al  8,H  11)     -2.4795         0.010000   
    250. D(Al 16,H  19,Al  8,H   9)    107.4539         0.010000   
    251. D(Al  8,H  19,Al 16,H  11)      2.5103         0.010000   
    252. D(Al 16,H  19,Al  8,Al  0)    -77.0765         0.010000   
    253. D(Al  8,H  19,Al 16,H  15)    111.0981         0.010000   
    -----------------------------------------------------------------

Number of atoms                         .... 20
Number of degrees of freedom            .... 253


         *************************************************************
         *                GEOMETRY OPTIMIZATION CYCLE   1            *
         *************************************************************
---------------------------------
CARTESIAN COORDINATES (ANGSTROEM)
---------------------------------
  Al    -1.198321    1.382877    3.654035
  H     -2.375518    2.441792    3.693832
  H      1.670474   -2.129718   -0.338609
  H      0.335282   -0.407405    3.685487
  Al     1.160846    2.504413    3.918642
  H      2.434145    1.565552    4.016082
  H      1.091045    4.089384    3.926742
  H     -1.766495    0.134509    4.833393
  Al    -0.961338   -1.217938    1.873207
  H     -1.989328   -1.783038    0.808929
  H     -0.075279    1.902469    4.950263
  H      0.333979   -0.307946    1.095629
  Al    -0.737410   -1.175763    4.657072
  H     -1.566440   -1.938457    3.416540
  H     -0.363020   -2.014971    5.938366
  H      2.682612   -1.145178    2.149183
  Al     1.535971   -1.552055    1.133202
  H     -1.632341    0.283184    2.396115
  H      0.134911    1.943936    2.644822
  H      0.331404   -2.455616    1.962407

----------------------------
CARTESIAN COORDINATES (A.U.)
----------------------------
  NO LB      ZA    FRAG     MASS         X           Y           Z
   0 Al   13.0000    0    26.982   -2.264498    2.613258    6.905125
   1 H     1.0000    0     1.008   -4.489079    4.614319    6.980331
   2 H     1.0000    0     1.008    3.156738   -4.024585   -0.639879
   3 H     1.0000    0     1.008    0.633591   -0.769884    6.964561
   4 Al   13.0000    0    26.982    2.193681    4.732654    7.405161
   5 H     1.0000    0     1.008    4.599867    2.958465    7.589295
   6 H     1.0000    0     1.008    2.061775    7.727816    7.420467
   7 H     1.0000    0     1.008   -3.338192    0.254185    9.133790
   8 Al   13.0000    0    26.982   -1.816665   -2.301569    3.539848
   9 H     1.0000    0     1.008   -3.759285   -3.369454    1.528654
  10 H     1.0000    0     1.008   -0.142257    3.595145    9.354642
  11 H     1.0000    0     1.008    0.631129   -0.581934    2.070438
  12 Al   13.0000    0    26.982   -1.393502   -2.221869    8.800590
  13 H     1.0000    0     1.008   -2.960142   -3.663152    6.456325
  14 H     1.0000    0     1.008   -0.686009   -3.807743   11.221885
  15 H     1.0000    0     1.008    5.069402   -2.164072    4.061368
  16 Al   13.0000    0    26.982    2.902564   -2.932959    2.141441
  17 H     1.0000    0     1.008   -3.084677    0.535140    4.528002
  18 H     1.0000    0     1.008    0.254945    3.673506    4.997990
  19 H     1.0000    0     1.008    0.626263   -4.640442    3.708412

--------------------------------
INTERNAL COORDINATES (ANGSTROEM)
--------------------------------
 Al     0   0   0     0.000000000000     0.00000000     0.00000000
 H      1   0   0     1.583881425961     0.00000000     0.00000000
 H      1   2   0     6.042310165421   139.30002679     0.00000000
 H      1   2   3     2.357548707156   172.23739847   263.67874269
 Al     1   2   3     2.625552865685   112.31593233   106.98041733
 H      5   1   2     1.585005974560   118.35969011   175.16011390
 H      5   1   2     1.586528208185   112.81299349   353.92765256
 H      1   2   3     1.808903365987   102.21357181   237.85150119
 Al     4   1   2     2.371190696142    83.89607089    66.60556793
 H      9   4   1     1.583915767304   172.05485290   293.55047627
 H      5   1   2     1.718890387617    42.66900975    86.68546864
 H      9   4   1     1.763677736237    76.05363120    93.23377359
 Al     4   1   2     1.638602474597    86.45375215   339.98514158
 H     13   4   1     1.675682719291    95.64387320    91.15434293
 H     13   4   1     1.576753464538   125.16693463   222.13031482
 H     12   9   4     2.706845332775   107.82191956    50.11807180
 Al    16  12   9     1.585103666467    37.08576514    76.19503031
 H      9   4   1     1.725411276711    71.55689247     0.33300631
 H      5   1   2     1.728957360902    41.76318707   262.77953574
 H     17  16  12     1.719006911404   109.42927739   269.22558291

---------------------------
INTERNAL COORDINATES (A.U.)
---------------------------
 Al     0   0   0     0.000000000000     0.00000000     0.00000000
 H      1   0   0     2.993102123671     0.00000000     0.00000000
 H      1   2   0    11.418311428854   139.30002679     0.00000000
 H      1   2   3     4.455121403905   172.23739847   263.67874269
 Al     1   2   3     4.961575866277   112.31593233   106.98041733
 H      5   1   2     2.995227212547   118.35969011   175.16011390
 H      5   1   2     2.998103817210   112.81299349   353.92765256
 H      1   2   3     3.418331964443   102.21357181   237.85150119
 Al     4   1   2     4.480901027010    83.89607089    66.60556793
 H      9   4   1     2.993167019404   172.05485290   293.55047627
 H      5   1   2     3.248232086826    42.66900975    86.68546864
 H      9   4   1     3.332867909983    76.05363120    93.23377359
 Al     4   1   2     3.096509919354    86.45375215   339.98514158
 H     13   4   1     3.166581426805    95.64387320    91.15434293
 H     13   4   1     2.979632228689   125.16693463   222.13031482
 H     12   9   4     5.115196365827   107.82191956    50.11807180
 Al    16  12   9     2.995411823496    37.08576514    76.19503031
 H      9   4   1     3.260554781364    71.55689247     0.33300631
 H      5   1   2     3.267255909331    41.76318707   262.77953574
 H     17  16  12     3.248452284872   109.42927739   269.22558291

---------------------
BASIS SET INFORMATION
---------------------
There are 2 groups of distinct atoms

 Group   1 Type Al  : 35s21p4d2f1g contracted to 6s5p4d2f1g pattern {121010111/99111/1111/11/1}
 Group   2 Type H   : 9s4p2d1f contracted to 5s4p2d1f pattern {51111/1111/11/1}

Atom   0Al   basis set group =>   1
Atom   1H    basis set group =>   2
Atom   2H    basis set group =>   2
Atom   3H    basis set group =>   2
Atom   4Al   basis set group =>   1
Atom   5H    basis set group =>   2
Atom   6H    basis set group =>   2
Atom   7H    basis set group =>   2
Atom   8Al   basis set group =>   1
Atom   9H    basis set group =>   2
Atom  10H    basis set group =>   2
Atom  11H    basis set group =>   2
Atom  12Al   basis set group =>   1
Atom  13H    basis set group =>   2
Atom  14H    basis set group =>   2
Atom  15H    basis set group =>   2
Atom  16Al   basis set group =>   1
Atom  17H    basis set group =>   2
Atom  18H    basis set group =>   2
Atom  19H    basis set group =>   2
---------------------------------
AUXILIARY/J BASIS SET INFORMATION
---------------------------------
There are 2 groups of distinct atoms

 Group   1 Type Al  : 19s16p15d8f8g5h contracted to 19s16p15d8f8g5h pattern {1111111111111111111/1111111111111111/111111111111111/11111111/11111111/11111}
 Group   2 Type H   : 15s7p6d4f4g contracted to 15s7p6d4f4g pattern {111111111111111/1111111/111111/1111/1111}

Atom   0Al   basis set group =>   1
Atom   1H    basis set group =>   2
Atom   2H    basis set group =>   2
Atom   3H    basis set group =>   2
Atom   4Al   basis set group =>   1
Atom   5H    basis set group =>   2
Atom   6H    basis set group =>   2
Atom   7H    basis set group =>   2
Atom   8Al   basis set group =>   1
Atom   9H    basis set group =>   2
Atom  10H    basis set group =>   2
Atom  11H    basis set group =>   2
Atom  12Al   basis set group =>   1
Atom  13H    basis set group =>   2
Atom  14H    basis set group =>   2
Atom  15H    basis set group =>   2
Atom  16Al   basis set group =>   1
Atom  17H    basis set group =>   2
Atom  18H    basis set group =>   2
Atom  19H    basis set group =>   2
---------------------------------
AUXILIARY/C BASIS SET INFORMATION
---------------------------------
There are 2 groups of distinct atoms

 Group   1 Type Al  : 19s16p15d8f8g5h contracted to 19s16p15d8f8g5h pattern {1111111111111111111/1111111111111111/111111111111111/11111111/11111111/11111}
 Group   2 Type H   : 15s7p6d4f4g contracted to 15s7p6d4f4g pattern {111111111111111/1111111/111111/1111/1111}

Atom   0Al   basis set group =>   1
Atom   1H    basis set group =>   2
Atom   2H    basis set group =>   2
Atom   3H    basis set group =>   2
Atom   4Al   basis set group =>   1
Atom   5H    basis set group =>   2
Atom   6H    basis set group =>   2
Atom   7H    basis set group =>   2
Atom   8Al   basis set group =>   1
Atom   9H    basis set group =>   2
Atom  10H    basis set group =>   2
Atom  11H    basis set group =>   2
Atom  12Al   basis set group =>   1
Atom  13H    basis set group =>   2
Atom  14H    basis set group =>   2
Atom  15H    basis set group =>   2
Atom  16Al   basis set group =>   1
Atom  17H    basis set group =>   2
Atom  18H    basis set group =>   2
Atom  19H    basis set group =>   2
----------------------------------
AUXILIARY/JK BASIS SET INFORMATION
----------------------------------
There are 2 groups of distinct atoms

 Group   1 Type Al  : 19s16p15d8f8g5h contracted to 19s16p15d8f8g5h pattern {1111111111111111111/1111111111111111/111111111111111/11111111/11111111/11111}
 Group   2 Type H   : 15s7p6d4f4g contracted to 15s7p6d4f4g pattern {111111111111111/1111111/111111/1111/1111}

Atom   0Al   basis set group =>   1
Atom   1H    basis set group =>   2
Atom   2H    basis set group =>   2
Atom   3H    basis set group =>   2
Atom   4Al   basis set group =>   1
Atom   5H    basis set group =>   2
Atom   6H    basis set group =>   2
Atom   7H    basis set group =>   2
Atom   8Al   basis set group =>   1
Atom   9H    basis set group =>   2
Atom  10H    basis set group =>   2
Atom  11H    basis set group =>   2
Atom  12Al   basis set group =>   1
Atom  13H    basis set group =>   2
Atom  14H    basis set group =>   2
Atom  15H    basis set group =>   2
Atom  16Al   basis set group =>   1
Atom  17H    basis set group =>   2
Atom  18H    basis set group =>   2
Atom  19H    basis set group =>   2
---------------------------------
AUXILIARY/X BASIS SET INFORMATION
---------------------------------
There are 2 groups of distinct atoms

 Group   1 Type Al  : 19s16p15d8f8g5h contracted to 19s16p15d8f8g5h pattern {1111111111111111111/1111111111111111/111111111111111/11111111/11111111/11111}
 Group   2 Type H   : 15s7p6d4f4g contracted to 15s7p6d4f4g pattern {111111111111111/1111111/111111/1111/1111}

Atom   0Al   basis set group =>   1
Atom   1H    basis set group =>   2
Atom   2H    basis set group =>   2
Atom   3H    basis set group =>   2
Atom   4Al   basis set group =>   1
Atom   5H    basis set group =>   2
Atom   6H    basis set group =>   2
Atom   7H    basis set group =>   2
Atom   8Al   basis set group =>   1
Atom   9H    basis set group =>   2
Atom  10H    basis set group =>   2
Atom  11H    basis set group =>   2
Atom  12Al   basis set group =>   1
Atom  13H    basis set group =>   2
Atom  14H    basis set group =>   2
Atom  15H    basis set group =>   2
Atom  16Al   basis set group =>   1
Atom  17H    basis set group =>   2
Atom  18H    basis set group =>   2
Atom  19H    basis set group =>   2


           ************************************************************
           *        Program running with 64 parallel MPI-processes    *
           *              working on a common directory               *
           ************************************************************
------------------------------------------------------------------------------
                             ORCA STARTUP CALCULATIONS
                           -- RI-GTO INTEGRALS CHOSEN --
------------------------------------------------------------------------------
------------------------------------------------------------------------------
                   ___                                                        
                  /   \      - P O W E R E D   B Y -                         
                 /     \                                                     
                 |  |  |   _    _      __       _____    __    __             
                 |  |  |  | |  | |    /  \     |  _  \  |  |  /  |          
                  \  \/   | |  | |   /    \    | | | |  |  | /  /          
                 / \  \   | |__| |  /  /\  \   | |_| |  |  |/  /          
                |  |  |   |  __  | /  /__\  \  |    /   |      \           
                |  |  |   | |  | | |   __   |  |    \   |  |\   \          
                \     /   | |  | | |  |  |  |  | |\  \  |  | \   \       
                 \___/    |_|  |_| |__|  |__|  |_| \__\ |__|  \__/        
                                                                              
                      - O R C A' S   B I G   F R I E N D -                    
                                      &                                       
                       - I N T E G R A L  F E E D E R -                       
                                                                              
 v1 FN, 2020, v2 2021, v3 2022-2024                                           
------------------------------------------------------------------------------


----------------------
SHARK INTEGRAL PACKAGE
----------------------

Number of atoms                             ...     20
Number of basis functions                   ...    830
Number of shells                            ...    270
Maximum angular momentum                    ...      4
Integral batch strategy                     ... SHARK/LIBINT Hybrid
RI-J (if used) integral strategy            ... SPLIT-RIJ (Revised 2003 algorithm where possible)
Printlevel                                  ...      1
Contraction scheme used                     ... SEGMENTED contraction
Prescreening option                         ... SCHWARTZ
   Thresh                                   ... 2.500e-11
   Tcut                                     ... 2.500e-12
   Tpresel                                  ... 2.500e-12 
Coulomb Range Separation                    ... NOT USED
Exchange Range Separation                   ... NOT USED
Multipole approximations                    ... NOT USED
Finite Nucleus Model                        ... NOT USED
CABS basis                                  ... NOT available
Auxiliary Coulomb fitting basis             ... AVAILABLE
   # of basis functions in Aux-J            ...   3575
   # of shells in Aux-J                     ...    895
   Maximum angular momentum in Aux-J        ...      5
Auxiliary J/K fitting basis                 ... AVAILABLE
   # of basis functions in Aux-JK           ...   3575
   # of shells in Aux-JK                    ...    895
   Maximum angular momentum in Aux-JK       ...      5
Auxiliary Correlation fitting basis         ... AVAILABLE
   # of basis functions in Aux-C            ...   3575
   # of shells in Aux-C                     ...    895
   Maximum angular momentum in Aux-C        ...      5
Auxiliary 'external' fitting basis          ... NOT available

Checking pre-screening integrals            ... done (  0.0 sec) Dimension = 270
   => SHARK Basis and OBASIS are compatible. Storing Pre-screening
Shell pair information
Shell pair cut-off parameter TPreSel        ...   2.5e-12
Total number of shell pairs                 ...     36585
Shell pairs after pre-screening             ...     29264
Total number of primitive shell pairs       ...    155580
Primitive shell pairs kept                  ...     79221
          la=0 lb=0:   4810 shell pairs
          la=1 lb=0:   7426 shell pairs
          la=1 lb=1:   2909 shell pairs
          la=2 lb=0:   4186 shell pairs
          la=2 lb=1:   3192 shell pairs
          la=2 lb=2:    898 shell pairs
          la=3 lb=0:   2066 shell pairs
          la=3 lb=1:   1520 shell pairs
          la=3 lb=2:    839 shell pairs
          la=3 lb=3:    218 shell pairs
          la=4 lb=0:    477 shell pairs
          la=4 lb=1:    379 shell pairs
          la=4 lb=2:    220 shell pairs
          la=4 lb=3:    109 shell pairs
          la=4 lb=4:     15 shell pairs

Checking whether 4 symmetric matrices of dimension 830 fit in memory
:Max Core in MB      =   4096.00
 MB in use           =     48.38
 MB left             =   4047.62
 MB needed           =     10.52
 Data fit in memory  = YES
Calculating RI/J V-Matrix + Cholesky decomp.... done (  0.6 sec)
Calculating RI/JK V-Matrix + Cholesky decomp.... done (  0.6 sec)
Calculating RI/C V-Matrix + Cholesky decomp.... done (  0.6 sec)
Calculating Nuclear repulsion               ... done (  0.0 sec) ENN=    453.856421561675 Eh

Diagonalization of the overlap matrix:
Smallest eigenvalue                        ... 7.561e-05
Time for diagonalization                   ...    0.230 sec
Threshold for overlap eigenvalues          ... 1.000e-07
Number of eigenvalues below threshold      ... 0
Time for construction of square roots      ...    0.153 sec
Total time needed                          ...    0.392 sec

-------------------
DFT GRID GENERATION
-------------------

General Integration Accuracy     IntAcc      ... 4.959
Radial Grid Type                 RadialGrid  ... OptM3 with GC (2021)
Angular Grid (max. ang.)         AngularGrid ... 6 (Lebedev-590)
Angular grid pruning method      GridPruning ... 4 (adaptive)
Weight generation scheme         WeightScheme... mBecke (2022)
Basis function cutoff            BFCut       ... 1.0000e-11
Integration weight cutoff        WCut        ... 1.0000e-14
Partially contracted basis set               ... off
Rotationally invariant grid construction     ... off
Angular grids for H and He will be reduced by one unit
Diffuse basis detected: some atoms will have their outermost
                        angular grid increased by 1.

Total number of grid points                  ...   220737
Total number of batches                      ...     3459
Average number of points per batch           ...       63
Average number of grid points per atom       ...    11037
Grids setup in   2.5 sec
Initializing property integral containers    ... done (  0.0 sec)

SHARK setup successfully completed in   5.7 seconds

Maximum memory used throughout the entire STARTUP-calculation: 84.8 MB


           ************************************************************
           *        Program running with 64 parallel MPI-processes    *
           *              working on a common directory               *
           ************************************************************
-------------------------------------------------------------------------------
                                 ORCA GUESS
                   Start orbitals & Density for SCF / CASSCF
-------------------------------------------------------------------------------

------------
SCF SETTINGS
------------
Hamiltonian:
 Density Functional     Method          .... DFT(GTOs)
 Exchange Functional    Exchange        .... PBE
   PBE kappa parameter   XKappa         ....  0.804000
   PBE mue parameter    XMuePBE         ....  0.219520
 Correlation Functional Correlation     .... PBE
   PBE beta parameter  CBetaPBE         ....  0.066725
 LDA part of GGA corr.  LDAOpt          .... PW91-LDA
 Gradients option       PostSCFGGA      .... off
   NL short-range parameter             ....  6.400000
 RI-approximation to the Coulomb term is turned on
   Number of AuxJ basis functions       .... 3575


General Settings:
 Integral files         IntName         .... run
 Hartree-Fock type      HFTyp           .... RHF
 Total Charge           Charge          ....    0
 Multiplicity           Mult            ....    1
 Number of Electrons    NEL             ....   80
 Basis Dimension        Dim             ....  830
 Nuclear Repulsion      ENuc            ....    453.8564215617 Eh

Convergence Acceleration:
 AO-DIIS                CNVDIIS         .... on
   Start iteration      DIISMaxIt       ....    12
   Startup error        DIISStart       ....  0.200000
   # of expansion vecs  DIISMaxEq       ....     5
   Bias factor          DIISBfac        ....   1.050
   Max. coefficient     DIISMaxC        ....  10.000
 MO-DIIS                CNVKDIIS        .... off
 Trust-Rad. Augm. Hess. CNVTRAH         .... auto
   Auto Start mean grad. ratio tolernc. ....  1.125000
   Auto Start start iteration           ....    50
   Auto Start num. interpolation iter.  ....    10
   Max. Number of Micro iterations      ....    24
   Max. Number of Macro iterations      .... Maxiter - #DIIS iter
   Number of Davidson start vectors     ....     2
   Converg. threshold    (grad. norm)   ....   1.000e-05
   Grad. Scal. Fac. for Micro threshold ....   0.100
   Minimum threshold for Micro iter.    ....   1.000e-02
   NR start threshold (gradient norm)   ....   1.000e-04
   Initial trust radius                 ....   0.400
   Minimum AH scaling param. (alpha)    ....   1.000
   Maximum AH scaling param. (alpha)    .... 1000.000
   Quad. conv. algorithm                .... NR
   White noise on init. David. guess    .... on
   Maximum white noise                  ....   0.010
   Pseudo random numbers                .... off
   Inactive MOs                         .... canonical
   Orbital update algorithm             .... Taylor
   Preconditioner                       .... Diag
   Full preconditioner red. dimension   ....   250
 SOSCF                 CNVSOSCF           .... on
   Start iteration     SOSCFMaxIt         ....   150
   Startup grad/error  SOSCFStart         ....  0.003300
   Hessian update      SOSCFHessUp        .... L-BFGS
   Autom. constraints  SOSCFAutoConstrain .... off
 Level Shifting         CNVShift        .... on
   Level shift para.    LevelShift      ....    0.2500
   Turn off err/grad.   ShiftErr        ....    0.0010
 Zerner damping         CNVZerner       .... off
 Static damping         CNVDamp         .... on
   Fraction old density DampFac         ....    0.7000
   Max. Damping (<1)    DampMax         ....    0.9800
   Min. Damping (>=0)   DampMin         ....    0.0000
   Turn off err/grad.   DampErr         ....    0.1000

SCF Procedure:
 Maximum # iterations   MaxIter         ....   125
 SCF integral mode      SCFMode         .... Direct
   Integral package                     .... SHARK and LIBINT hybrid scheme
 Reset frequency        DirectResetFreq ....    20
 Integral Threshold     Thresh          ....  2.500e-11 Eh
 Primitive CutOff       TCut            ....  2.500e-12 Eh

Convergence Tolerance:
 Convergence Check Mode ConvCheckMode   .... Total+1el-Energy
 Convergence forced     ConvForced      .... 0
 Energy Change          TolE            ....  1.000e-08 Eh
 1-El. energy change                    ....  1.000e-05 Eh
 Orbital Gradient       TolG            ....  1.000e-05
 Orbital Rotation angle TolX            ....  1.000e-05
 DIIS Error             TolErr          ....  5.000e-07

------------------------------
INITIAL GUESS: MODEL POTENTIAL
------------------------------
Loading Hartree-Fock densities                     ... done
Calculating cut-offs                               ... done
Initializing the effective Hamiltonian             ... done
Setting up the integral package (SHARK)            ... done
Starting the Coulomb interaction                   ... done (   0.2 sec)
Making the grid                                    ... done (   0.1 sec)
Mapping shells                                     ... done
Starting the XC term evaluation                    ... done (   0.1 sec)
  promolecular density results
     # of electrons  =     79.992617929
     EX              =    -94.599401888
     EC              =     -2.794634327
     EX+EC           =    -97.394036215
Transforming the Hamiltonian                       ... done (   0.1 sec)
Diagonalizing the Hamiltonian                      ... done (   0.2 sec)
Back transforming the eigenvectors                 ... done (   0.1 sec)
Now organizing SCF variables                       ... done
                      ------------------
                      INITIAL GUESS DONE (   1.0 sec)
                      ------------------
             **** ENERGY FILE WAS UPDATED (run.en.tmp) ****
Finished Guess after   2.7 sec
Maximum memory used throughout the entire GUESS-calculation: 67.3 MB


           ************************************************************
           *        Program running with 64 parallel MPI-processes    *
           *              working on a common directory               *
           ************************************************************

-------------------------------------------------------------------------------------------
                                      ORCA LEAN-SCF
                              memory conserving SCF solver
-------------------------------------------------------------------------------------------

----------------------------------------D-I-I-S--------------------------------------------
Iteration    Energy (Eh)           Delta-E    RMSDP     MaxDP     DIISErr   Damp  Time(sec)
-------------------------------------------------------------------------------------------
               ***  Starting incremental Fock matrix formation  ***
    1    -1220.4174719665606972     0.00e+00  1.31e-03  1.58e-02  8.17e-02  0.700   2.4
    2    -1220.4382457853712367    -2.08e-02  1.24e-03  1.28e-02  5.44e-02  0.700   2.4
                               ***Turning on AO-DIIS***
    3    -1220.4516508722017534    -1.34e-02  8.02e-04  8.00e-03  3.22e-02  0.700   1.9
    4    -1220.4596552400785185    -8.00e-03  1.73e-03  1.73e-02  2.09e-02  0.000   1.9
                              *** Initializing SOSCF ***
---------------------------------------S-O-S-C-F--------------------------------------
Iteration    Energy (Eh)           Delta-E    RMSDP     MaxDP     MaxGrad    Time(sec)
--------------------------------------------------------------------------------------
    5    -1220.4756376050163453    -1.60e-02  1.53e-04  1.51e-03  1.83e-03     3.5
               *** Restarting incremental Fock matrix formation ***
    6    -1220.4756801137573348    -4.25e-05  1.13e-04  8.39e-04  1.81e-04     1.6
    7    -1220.4756831666286416    -3.05e-06  3.21e-05  3.78e-04  1.63e-04     1.5
    8    -1220.4756856489525489    -2.48e-06  1.73e-05  1.27e-04  5.83e-05     1.5
    9    -1220.4756857572583613    -1.08e-07  7.42e-06  6.38e-05  3.14e-05     1.5
   10    -1220.4756858773225758    -1.20e-07  3.93e-06  4.92e-05  8.03e-06     1.5
   11    -1220.4756859745320980    -9.72e-08  1.48e-06  9.47e-06  6.23e-06     1.4
   12    -1220.4756858350729090     1.39e-07  1.62e-06  1.78e-05  8.96e-07     1.5
                  *** Gradient check signals convergence ***

               *****************************************************
               *                     SUCCESS                       *
               *           SCF CONVERGED AFTER  12 CYCLES          *
               *****************************************************

             **** ENERGY FILE WAS UPDATED (run.en.tmp) ****

----------------
TOTAL SCF ENERGY
----------------

Total Energy       :      -1220.47568586012039 Eh          -33210.83182 eV

Components:
Nuclear Repulsion  :        453.85642156167489 Eh           12350.06110 eV
Electronic Energy  :      -1674.33210742179517 Eh          -45560.89291 eV
One Electron Energy:      -2599.30939669376176 Eh          -70730.80457 eV
Two Electron Energy:        924.97728927196670 Eh           25169.91165 eV

Virial components:
Potential Energy   :      -2439.63461882437423 Eh          -66385.83297 eV
Kinetic Energy     :       1219.15893296425406 Eh           33175.00115 eV
Virial Ratio       :          2.00108005023813

DFT components:
N(Alpha)           :       40.000014381562 electrons
N(Beta)            :       40.000014381562 electrons
N(Total)           :       80.000028763124 electrons
E(X)               :      -95.345242739183 Eh       
E(C)               :       -2.753918285706 Eh       
E(XC)              :      -98.099161024888 Eh       

---------------
SCF CONVERGENCE
---------------

  Last Energy change         ...   -1.3946e-07  Tolerance :   1.0000e-08
  Last MAX-Density change    ...    1.7840e-05  Tolerance :   1.0000e-07
  Last RMS-Density change    ...    1.6189e-06  Tolerance :   5.0000e-09
  Last DIIS Error            ...    1.8318e-03  Tolerance :   5.0000e-07
  Last Orbital Gradient      ...    8.9606e-07  Tolerance :   1.0000e-05
  Last Orbital Rotation      ...    3.3016e-06  Tolerance :   1.0000e-05


----------------
ORBITAL ENERGIES
----------------

  NO   OCC          E(Eh)            E(eV) 
   0   2.0000     -55.386605     -1507.1461 
   1   2.0000     -55.386471     -1507.1425 
   2   2.0000     -55.378994     -1506.9390 
   3   2.0000     -55.351323     -1506.1861 
   4   2.0000     -55.351089     -1506.1797 
   5   2.0000      -3.955679      -107.6395 
   6   2.0000      -3.955523      -107.6353 
   7   2.0000      -3.953358      -107.5763 
   8   2.0000      -3.925563      -106.8200 
   9   2.0000      -3.925347      -106.8141 
  10   2.0000      -2.558121       -69.6100 
  11   2.0000      -2.557971       -69.6059 
  12   2.0000      -2.557286       -69.5873 
  13   2.0000      -2.557126       -69.5829 
  14   2.0000      -2.556195       -69.5576 
  15   2.0000      -2.555464       -69.5377 
  16   2.0000      -2.555148       -69.5291 
  17   2.0000      -2.554981       -69.5246 
  18   2.0000      -2.551555       -69.4314 
  19   2.0000      -2.529697       -68.8365 
  20   2.0000      -2.529481       -68.8307 
  21   2.0000      -2.527097       -68.7658 
  22   2.0000      -2.526881       -68.7599 
  23   2.0000      -2.523019       -68.6549 
  24   2.0000      -2.522804       -68.6490 
  25   2.0000      -0.519826       -14.1452 
  26   2.0000      -0.464333       -12.6351 
  27   2.0000      -0.436641       -11.8816 
  28   2.0000      -0.384915       -10.4741 
  29   2.0000      -0.373873       -10.1736 
  30   2.0000      -0.340188        -9.2570 
  31   2.0000      -0.319298        -8.6885 
  32   2.0000      -0.318195        -8.6585 
  33   2.0000      -0.313700        -8.5362 
  34   2.0000      -0.295641        -8.0448 
  35   2.0000      -0.289883        -7.8881 
  36   2.0000      -0.282360        -7.6834 
  37   2.0000      -0.271599        -7.3906 
  38   2.0000      -0.267274        -7.2729 
  39   2.0000      -0.262516        -7.1434 
  40   0.0000      -0.073758        -2.0071 
  41   0.0000      -0.070714        -1.9242 
  42   0.0000      -0.055338        -1.5058 
  43   0.0000      -0.050067        -1.3624 
  44   0.0000      -0.045183        -1.2295 
  45   0.0000      -0.040815        -1.1106 
  46   0.0000      -0.033708        -0.9172 
  47   0.0000      -0.027252        -0.7416 
  48   0.0000      -0.015919        -0.4332 
  49   0.0000      -0.012557        -0.3417 
  50   0.0000      -0.004046        -0.1101 
*Only the first 10 virtual orbitals were printed.
-------
TIMINGS
-------

Total SCF time: 0 days 0 hours 0 min 26 sec 

Total time                  ....      26.105 sec
Sum of individual times     ....      24.945 sec  ( 95.6%)

SCF preparation             ....       1.636 sec  (  6.3%)
Fock matrix formation       ....      14.023 sec  ( 53.7%)
  Startup                   ....       0.171 sec  (  1.2% of F)
  Split-RI-J                ....       9.205 sec  ( 65.6% of F)
  XC integration            ....       4.323 sec  ( 30.8% of F)
    XC Preparation          ....       0.000 sec  (  0.0% of XC)
    Basis function eval.    ....       0.587 sec  ( 13.6% of XC)
    Density eval.           ....       1.159 sec  ( 26.8% of XC)
    XC-Functional eval.     ....       0.032 sec  (  0.7% of XC)
    XC-Potential eval.      ....       1.058 sec  ( 24.5% of XC)
Diagonalization             ....       0.000 sec  (  0.0%)
Density matrix formation    ....       0.709 sec  (  2.7%)
Total Energy calculation    ....       0.273 sec  (  1.0%)
Population analysis         ....       0.000 sec  (  0.0%)
Orbital Transformation      ....       1.227 sec  (  4.7%)
Orbital Orthonormalization  ....       0.000 sec  (  0.0%)
DIIS solution               ....       3.750 sec  ( 14.4%)
SOSCF solution              ....       3.327 sec  ( 12.7%)
Finished LeanSCF after  26.2 sec

Maximum memory used throughout the entire LEANSCF-calculation: 82.1 MB


           ************************************************************
           *        Program running with 64 parallel MPI-processes    *
           *              working on a common directory               *
           ************************************************************

------------------------------------------------------------------------------
                         ORCA PROPERTY INTEGRAL CALCULATIONS
------------------------------------------------------------------------------

GBWName                                   ... run.gbw
Number of atoms                           ...     20
Number of basis functions                 ...    830
Max core memory                           ...   4096 MB

Dipole integrals                          ... YES
Quadrupole integrals                      ...  NO
Linear momentum integrals                 ...  NO
Angular momentum integrals                ...  NO
Higher moments length integrals           ...  NO
Higher moments velocity integrals         ...  NO
Kinetic energy integrals                  ...  NO
GIAO right hand sides                     ...  NO
GIAO dipole derivative integrals          ...  NO
SOC integrals                             ...  NO
EPR diamagnetic integrals (GIAO)          ...  NO
EPR gauge integrals                       ...  NO
Field gradient integrals                  ...  NO (   0 nuclei)
Spin-dipole/Fermi contact integrals       ...  NO (   0 nuclei)
Contact density integrals                 ...  NO (   0 nuclei)
Nucleus-orbit integrals                   ...  NO (   0 nuclei)
Geometric perturbations                   ...  NO (  20 nuclei)

Choice of electric origin   ... Center of mass
Position of electric origin ... ( -0.0776, -0.0176,  5.7517) 
Choice of magnetic origin   ... GIAO
Position of magnetic origin ... (  0.0000,  0.0000,  0.0000) 

Calculating integrals                     ... Electric Dipole (Length)     done (  0.1 sec)

Property integrals calculated in   0.1 sec

Maximum memory used throughout the entire PROPINT-calculation: 72.5 MB


-------------------------------------------------------------------------------
                          DFT DISPERSION CORRECTION                            
                                                                               
                              DFTD3 V3.1  Rev 1                                
                          USING Becke-Johnson damping                          
-------------------------------------------------------------------------------
The PBE functional is recognized
Active option DFTDOPT                   ...         4   

molecular C6(AA) [au] = 7710.774662 


            DFT-D V3
 parameters
 s6 scaling factor         :     1.0000 
 a1 scaling factor         :     0.4289 
 s8 scaling factor         :     0.7875 
 a2 scaling factor         :     4.4407 
 ad hoc parameters k1-k3   :    16.0000     1.3333    -4.0000 

 Edisp/kcal,au: -12.984392896671  -0.020691944980 
 E6   /kcal   :  -8.154851790 
 E8   /kcal   :  -4.829541106 
 % E8         :  37.194970490 

-------------------------   ----------------
Dispersion correction           -0.020691945
-------------------------   ----------------


-------------------------   --------------------
FINAL SINGLE POINT ENERGY     -1220.496377805100
-------------------------   --------------------



           ************************************************************
           *        Program running with 64 parallel MPI-processes    *
           *              working on a common directory               *
           ************************************************************
------------------------------------------------------------------------------
                         ORCA SCF GRADIENT CALCULATION
------------------------------------------------------------------------------

Nuc. rep. gradient        (SHARK) ... done (  0.0 sec)
HCore & Overlap gradient  (SHARK) ... done (  0.1 sec)
Split-RIJ-J gradient      (SHARK) ... done (  2.4 sec)
XC gradient                       ... done (  1.7 sec)
Dispersion correction             ... done (  0.0 sec)

-------------------
DISPERSION GRADIENT
-------------------

   1   Al  :   -0.000308650    0.000339162    0.000166974
   2   H   :   -0.000182834    0.000141835    0.000005610
   3   H   :    0.000092699   -0.000051434   -0.000118611
   4   H   :   -0.000023626   -0.000071831    0.000105187
   5   Al  :    0.000353663    0.000618195    0.000193556
   6   H   :    0.000212706    0.000111045    0.000068356
   7   H   :    0.000074778    0.000140042    0.000012588
   8   H   :   -0.000140548   -0.000009061    0.000156933
   9   Al  :   -0.000248978   -0.000314356   -0.000281125
  10   H   :   -0.000162284   -0.000078986   -0.000144312
  11   H   :    0.000023169    0.000139787    0.000121379
  12   H   :    0.000056622   -0.000031008   -0.000236193
  13   Al  :   -0.000214069   -0.000347772    0.000480060
  14   H   :   -0.000125975   -0.000160364    0.000054032
  15   H   :    0.000016860   -0.000114712    0.000169805
  16   H   :    0.000230630   -0.000075910   -0.000060434
  17   Al  :    0.000444606   -0.000353175   -0.000473888
  18   H   :   -0.000182936    0.000040762   -0.000084399
  19   H   :    0.000032862    0.000237275   -0.000051918
  20   H   :    0.000051306   -0.000159494   -0.000083599

Difference to translation invariance:
           :   -0.0000000000    0.0000000000   -0.0000000000

Difference to rotation invariance:
           :    0.0000000000    0.0000000000    0.0000000000

Norm of the Dispersion gradient    ...    0.0016216062
RMS gradient                       ...    0.0002093485
MAX gradient                       ...    0.0006181946

------------------
CARTESIAN GRADIENT
------------------

   1   Al  :    0.000074642    0.000037669   -0.000179917
   2   H   :   -0.000097369    0.000049655    0.000048321
   3   H   :    0.000034388   -0.000027543   -0.000116676
   4   H   :   -0.000245195   -0.000094552    0.000071244
   5   Al  :   -0.000043032    0.000091713   -0.000012158
   6   H   :    0.000052015   -0.000023813   -0.000008978
   7   H   :    0.000005580    0.000033496   -0.000002443
   8   H   :    0.000065242   -0.000016357   -0.000073473
   9   Al  :    0.000051039    0.000112922   -0.000093629
  10   H   :   -0.000099884   -0.000093843   -0.000080808
  11   H   :   -0.000053734   -0.000035247   -0.000133460
  12   H   :   -0.000191751    0.000035839    0.000206657
  13   Al  :    0.000086947    0.000083162   -0.000006935
  14   H   :    0.000120798    0.000127659   -0.000045467
  15   H   :    0.000036114   -0.000043969    0.000102477
  16   H   :    0.000085208   -0.000006591    0.000056845
  17   Al  :    0.000049347   -0.000105527   -0.000010395
  18   H   :    0.000077260   -0.000054621    0.000109575
  19   H   :    0.000051819   -0.000159917    0.000212033
  20   H   :   -0.000059433    0.000089863   -0.000042815

Difference to translation invariance:
           :   -0.0000000000    0.0000000000   -0.0000000001

Difference to rotation invariance:
           :    0.0000082673    0.0000542265   -0.0000325217

Norm of the Cartesian gradient     ...    0.0007164954
RMS gradient                       ...    0.0000924992
MAX gradient                       ...    0.0002451953

-------
TIMINGS
-------

Total SCF gradient time     ....        4.326 sec

Densities                   ....       0.012 sec  (  0.3%)
One electron gradient       ....       0.144 sec  (  3.3%)
RI-J Coulomb gradient       ....       2.425 sec  ( 56.1%)
XC gradient                 ....       1.687 sec  ( 39.0%)

Maximum memory used throughout the entire SCFGRAD-calculation: 89.5 MB
------------------------------------------------------------------------------
                         ORCA GEOMETRY RELAXATION STEP
------------------------------------------------------------------------------

Reading the OPT-File                    .... done
Getting information on internals        .... done
Copying old internal coords+grads       .... done
Making the new internal coordinates     .... (2022 redundants) done
Validating the new internal coordinates .... (2022 redundants) done
Calculating the B-matrix                .... done
Calculating the G,G- and P matrices     .... done
Transforming gradient to internals      .... done
Projecting the internal gradient        .... done
Number of atoms                         ....  20
Number of internal coordinates          .... 253
Current Energy                          .... -1220.496377805 Eh
Current gradient norm                   ....     0.000716495 Eh/bohr
Maximum allowed component of the step   ....  0.300
Current trust radius                    ....  0.300
Evaluating the initial hessian          ....  (Almloef) done
Projecting the Hessian                  .... done
Forming the augmented Hessian           .... done
Diagonalizing the augmented Hessian     .... done
Last element of RFO vector              ....  0.999991668
Lowest eigenvalues of augmented Hessian:
 -0.000001648  0.021000787  0.029740888  0.033717279  0.035727740
Length of the computed step             ....  0.004082208
The final length of the internal step   ....  0.004082208
Converting the step to Cartesian space:
 Initial RMS(Int)=    0.0002566462
Transforming coordinates:
 Iter   0:  RMS(Cart)=    0.0005846857 RMS(Int)=    0.0002566316
done
Storing new coordinates                 .... done

                                .--------------------.
          ----------------------|Geometry convergence|-------------------------
          Item                value                   Tolerance       Converged
          ---------------------------------------------------------------------
          RMS gradient        0.0000360678            0.0000300000      NO
          MAX gradient        0.0002472388            0.0001000000      NO
          RMS step            0.0002566462            0.0006000000      YES
          MAX step            0.0007392719            0.0010000000      YES
          -------------------------------------------------------------------------
          ........................................................
          Max(Bonds)      0.0004      Max(Angles)    0.02
          Max(Dihed)        0.04      Max(Improp)    0.00
          ---------------------------------------------------------------------

The optimization has not yet converged - more geometry cycles are needed


    ---------------------------------------------------------------------------
                         Redundant Internal Coordinates
                            (Angstroem and degrees)

        Definition                    Value    dE/dq     Step     New-Value
    ----------------------------------------------------------------------------
     1. B(H   1,Al  0)                1.5839  0.000107 -0.0001    1.5837   
     2. B(Al  4,Al  0)                2.6256  0.000024 -0.0000    2.6255   
     3. B(H   5,Al  4)                1.5850  0.000055 -0.0001    1.5849   
     4. B(H   6,Al  4)                1.5865  0.000033 -0.0000    1.5865   
     5. B(H   7,Al  0)                1.8089 -0.000015  0.0000    1.8089   
     6. B(Al  8,Al  0)                3.1610 -0.000043  0.0001    3.1611   
     7. B(H   9,Al  8)                1.5839  0.000153 -0.0002    1.5837   
     8. B(H  10,Al  4)                1.7189 -0.000004  0.0000    1.7189   
     9. B(H  10,Al  0)                1.7920 -0.000092  0.0002    1.7922   
    10. B(H  11,Al  8)                1.7637 -0.000138  0.0003    1.7640   
    11. B(Al 12,Al  8)                2.7932  0.000061 -0.0002    2.7930   
    12. B(Al 12,H   7)                1.6754 -0.000032  0.0001    1.6754   
    13. B(Al 12,H   3)                1.6386 -0.000247  0.0004    1.6390   
    14. B(Al 12,Al  0)                2.7866  0.000021  0.0000    2.7866   
    15. B(H  13,Al  8)                1.8075 -0.000055  0.0001    1.8076   
    16. B(H  13,Al 12)                1.6757 -0.000017  0.0000    1.6757   
    17. B(H  14,Al 12)                1.5768  0.000115 -0.0001    1.5766   
    18. B(Al 16,H  15)                1.5851  0.000097 -0.0001    1.5850   
    19. B(Al 16,H  11)                1.7303  0.000117 -0.0003    1.7301   
    20. B(Al 16,Al  8)                2.6260  0.000048 -0.0001    2.6259   
    21. B(Al 16,H   2)                1.5868  0.000121 -0.0002    1.5867   
    22. B(H  17,Al  8)                1.7254 -0.000060  0.0002    1.7256   
    23. B(H  17,Al  0)                1.7263 -0.000059  0.0002    1.7264   
    24. B(H  18,Al  4)                1.7290 -0.000050  0.0001    1.7291   
    25. B(H  18,Al  0)                1.7637 -0.000087  0.0002    1.7639   
    26. B(H  19,Al 16)                1.7190 -0.000009  0.0000    1.7190   
[...]
     31      -0.015107  -0.007223   0.002582   0.000696  -0.000155   0.005742
     32       0.001337   0.000175  -0.001591   0.000181   0.000432   0.000136
     33      -0.023006  -0.003695  -0.022404   0.009776   0.004838   0.005346
     34       0.004689   0.003283   0.007345  -0.000071   0.000910  -0.002169
     35       0.006883   0.000441   0.003812   0.001506   0.000999  -0.001751
     36       0.000700  -0.000144  -0.000217   0.000012   0.000584  -0.008277
     37      -0.000110  -0.000314   0.001860  -0.000041   0.000077   0.020082
     38       0.000226  -0.000879   0.001023  -0.000012  -0.000052  -0.030454
     39      -0.002426  -0.004440  -0.016670   0.001072  -0.001491   0.002191
     40      -0.001975  -0.002012  -0.010609  -0.000862  -0.001000   0.005124
     41      -0.007206  -0.021054  -0.059059   0.002257   0.001469  -0.009717
     42      -0.002747   0.017499   0.006082  -0.000299  -0.004191   0.238212
     43       0.006637  -0.035019  -0.012431   0.000362   0.004957  -0.531184
     44      -0.010181   0.053757   0.018503  -0.001117  -0.007818   0.808538
     45       0.221899  -0.115034  -0.175225  -0.409262  -0.408952   0.011347
     46       0.083425  -0.040947  -0.062612  -0.146235  -0.148976   0.002836
     47       0.203455  -0.100384  -0.153072  -0.358512  -0.360499   0.008732
     48      -0.009091   0.004723   0.007244   0.013298   0.013664  -0.000746
     49       0.004080   0.000576   0.001978   0.010981   0.010573   0.000127
     50       0.010194   0.001407   0.004943   0.027248   0.026245   0.000313
     51      -0.002867  -0.009367   0.009856  -0.000463  -0.000957  -0.001469
     52       0.002095   0.046441  -0.125097   0.005863   0.001237   0.004197
     53       0.000551   0.026745  -0.087358   0.004071  -0.000617  -0.006524
     54      -0.027010  -0.015598   0.014103  -0.009287   0.004928   0.004833
     55      -0.013888  -0.007080   0.005602   0.000313  -0.000753   0.003082
     56      -0.005001  -0.007048   0.003706  -0.001276  -0.000106   0.001811
     57      -0.024090  -0.009454  -0.022677   0.010664   0.006610   0.008049
     58       0.000241   0.001087  -0.001850   0.001711   0.000518  -0.001197
     59       0.009855   0.002752   0.004779   0.001328   0.000770  -0.004627


-----------
IR SPECTRUM
-----------

 Mode   freq       eps      Int      T**2         TX        TY        TZ
       cm**-1   L/(mol*cm) km/mol    a.u.
----------------------------------------------------------------------------
  6:     52.10   0.000091    0.46  0.000542  ( 0.011401  0.012420 -0.016068)
  7:     56.69   0.000327    1.65  0.001802  (-0.003393  0.034857  0.023982)
  8:     84.23   0.001392    7.03  0.005157  ( 0.005731 -0.059367 -0.039997)
  9:     96.69   0.000074    0.37  0.000239  (-0.010234  0.004193 -0.010816)
 10:    171.08   0.003147   15.90  0.005740  ( 0.006119 -0.065147 -0.038195)
 11:    172.41   0.001687    8.53  0.003053  ( 0.004104 -0.024314  0.049451)
 12:    217.68   0.001143    5.77  0.001638  (-0.000161 -0.026353  0.030719)
 13:    221.83   0.000486    2.45  0.000683  ( 0.001882 -0.017648 -0.019188)
 14:    276.75   0.000138    0.70  0.000155  (-0.010409 -0.003998  0.005574)
 15:    301.75   0.000735    3.72  0.000761  (-0.001953  0.022827  0.015351)
 16:    313.96   0.000065    0.33  0.000065  (-0.007367 -0.002122  0.002421)
 17:    370.04   0.002234   11.29  0.001884  ( 0.032250  0.018165 -0.022665)
 18:    372.63   0.001111    5.62  0.000931  ( 0.002221 -0.025247 -0.016980)
 19:    398.64   0.000423    2.14  0.000331  (-0.018089 -0.000240 -0.001887)
 20:    427.10   0.000152    0.77  0.000111  ( 0.000755 -0.008559 -0.006104)
 21:    451.07   0.000025    0.13  0.000017  ( 0.000582 -0.003744 -0.001721)
 22:    461.03   0.001264    6.39  0.000856  (-0.010862  0.014574 -0.022923)
 23:    508.03   0.003171   16.02  0.001948  ( 0.000860 -0.037934 -0.022539)
 24:    514.55   0.015170   76.66  0.009200  ( 0.065904  0.039933 -0.057116)
 25:    527.57   0.009399   47.50  0.005559  (-0.007799  0.064617  0.036375)
 26:    530.16   0.003743   18.92  0.002203  (-0.028241  0.008047 -0.036622)
 27:    536.40   0.012871   65.04  0.007488  (-0.006856  0.071839  0.047748)
 28:    629.15   0.041492  209.68  0.020581  (-0.047940 -0.079256  0.109548)
 29:    673.77   0.104623  528.72  0.048458  (-0.016954  0.181059  0.124048)
 30:    697.43   0.089475  452.17  0.040035  (-0.190869 -0.045236  0.039471)
 31:    714.47   0.003806   19.24  0.001663  (-0.027679  0.019265 -0.022919)
 32:    718.20   0.008956   45.26  0.003892  (-0.001348  0.049080  0.038484)
 33:    746.25   0.083566  422.31  0.034945  ( 0.014895 -0.153867 -0.105109)
 34:    763.40   0.043082  217.72  0.017611  (-0.080328  0.054453 -0.090517)
 35:    800.19   0.017982   90.87  0.007013  (-0.018564 -0.047401  0.066493)
 36:    827.40   0.001033    5.22  0.000390  ( 0.019160 -0.004082 -0.002402)
 37:    828.07   0.031115  157.24  0.011726  (-0.107733 -0.010859 -0.001194)
 38:   1034.95   0.014459   73.07  0.004360  (-0.034105  0.029231 -0.048397)
 39:   1124.48   0.008462   42.76  0.002348  ( 0.004433 -0.039788 -0.027305)
 40:   1170.58   0.021592  109.12  0.005756  (-0.074800  0.001555 -0.012597)
 41:   1178.43   0.019971  100.93  0.005289  (-0.003484  0.060566  0.040102)
 42:   1214.90   0.114731  579.80  0.029470  (-0.053469 -0.095287  0.132408)
 43:   1356.19   0.087929  444.36  0.020233  ( 0.011944 -0.116641 -0.080530)
 44:   1387.67   0.128313  648.44  0.028855  ( 0.155662  0.048294 -0.047880)
 45:   1409.01   0.012855   64.97  0.002847  ( 0.002027 -0.043562 -0.030747)
 46:   1434.57   0.021569  109.00  0.004692  (-0.045940  0.026879 -0.043116)
 47:   1529.51   0.044296  223.86  0.009038  (-0.002380  0.079677  0.051804)
 48:   1540.89   0.079383  401.17  0.016077  ( 0.115341  0.033163 -0.040907)
 49:   1599.21   0.009343   47.22  0.001823  ( 0.004445 -0.035243 -0.023694)
 50:   1631.33   0.046911  237.07  0.008974  ( 0.077905 -0.025233  0.047623)
 51:   1734.11   0.128894  651.38  0.023195  ( 0.013236 -0.116776 -0.096869)
 52:   1734.51   0.037601  190.02  0.006765  (-0.009310 -0.066324  0.047743)
 53:   1896.54   0.008185   41.36  0.001347  (-0.007668  0.028358  0.021994)
 54:   1897.45   0.019913  100.63  0.003275  (-0.053307 -0.017025  0.011984)
 55:   1908.44   0.012346   62.39  0.002019  (-0.038041  0.018555 -0.015078)
 56:   1909.28   0.004969   25.11  0.000812  (-0.010987 -0.016724 -0.020292)
 57:   1913.95   0.046044  232.69  0.007507  (-0.005299  0.070941  0.049464)
 58:   1918.88   0.038501  194.57  0.006261  ( 0.057593 -0.027620  0.046707)
 59:   1942.94   0.018731   94.66  0.003009  (-0.005386  0.030541 -0.045241)

* The epsilon (eps) is given for a Dirac delta lineshape.
** The dipole moment derivative (T) already includes vibrational overlap.

The first frequency considered to be a vibration is 6
The total number of vibrations considered is 54


--------------------------
THERMOCHEMISTRY AT 298.15K
--------------------------

Temperature         ...   298.15 K
Pressure            ...     1.00 atm
Total Mass          ...   150.03 AMU
Quasi RRHO          ...     True
Cut-Off Frequency   ...     1.00 cm^-1

Throughout the following assumptions are being made:
  (1) The electronic state is orbitally nondegenerate
  (2) There are no thermally accessible electronically excited states
  (3) Hindered rotations indicated by low frequency modes are not
      treated as such but are treated as vibrations and this may
      cause some error
  (4) All equations used are the standard statistical mechanics
      equations for an ideal gas
  (5) All vibrations are strictly harmonic

freq.      52.10  E(vib)   ...       0.52 
freq.      56.69  E(vib)   ...       0.52 
freq.      84.23  E(vib)   ...       0.48 
freq.      96.69  E(vib)   ...       0.46 
freq.     171.08  E(vib)   ...       0.38 
freq.     172.41  E(vib)   ...       0.38 
freq.     217.68  E(vib)   ...       0.33 
freq.     221.83  E(vib)   ...       0.33 
freq.     276.75  E(vib)   ...       0.28 
freq.     301.75  E(vib)   ...       0.26 
freq.     313.96  E(vib)   ...       0.25 
freq.     370.04  E(vib)   ...       0.21 
freq.     372.63  E(vib)   ...       0.21 
freq.     398.64  E(vib)   ...       0.19 
freq.     427.10  E(vib)   ...       0.18 
freq.     451.07  E(vib)   ...       0.16 
freq.     461.03  E(vib)   ...       0.16 
freq.     508.03  E(vib)   ...       0.14 
freq.     514.55  E(vib)   ...       0.13 
freq.     527.57  E(vib)   ...       0.13 
freq.     530.16  E(vib)   ...       0.13 
freq.     536.40  E(vib)   ...       0.12 
freq.     629.15  E(vib)   ...       0.09 
freq.     673.77  E(vib)   ...       0.08 
freq.     697.43  E(vib)   ...       0.07 
freq.     714.47  E(vib)   ...       0.07 
freq.     718.20  E(vib)   ...       0.07 
freq.     746.25  E(vib)   ...       0.06 
freq.     763.40  E(vib)   ...       0.06 
freq.     800.19  E(vib)   ...       0.05 
freq.     827.40  E(vib)   ...       0.04 
freq.     828.07  E(vib)   ...       0.04 
freq.    1034.95  E(vib)   ...       0.02 
freq.    1124.48  E(vib)   ...       0.01 
freq.    1170.58  E(vib)   ...       0.01 
freq.    1178.43  E(vib)   ...       0.01 
freq.    1214.90  E(vib)   ...       0.01 
freq.    1356.19  E(vib)   ...       0.01 
freq.    1387.67  E(vib)   ...       0.00 
freq.    1409.01  E(vib)   ...       0.00 
freq.    1434.57  E(vib)   ...       0.00 
freq.    1529.51  E(vib)   ...       0.00 
freq.    1540.89  E(vib)   ...       0.00 
freq.    1599.21  E(vib)   ...       0.00 
freq.    1631.33  E(vib)   ...       0.00 
freq.    1734.11  E(vib)   ...       0.00 
freq.    1734.51  E(vib)   ...       0.00 
freq.    1896.54  E(vib)   ...       0.00 
freq.    1897.45  E(vib)   ...       0.00 
freq.    1908.44  E(vib)   ...       0.00 
freq.    1909.28  E(vib)   ...       0.00 
freq.    1913.95  E(vib)   ...       0.00 
freq.    1918.88  E(vib)   ...       0.00 
freq.    1942.94  E(vib)   ...       0.00 

------------
INNER ENERGY
------------

The inner energy is: U= E(el) + E(ZPE) + E(vib) + E(rot) + E(trans)
    E(el)   - is the total energy from the electronic structure calculation
              = E(kin-el) + E(nuc-el) + E(el-el) + E(nuc-nuc)
    E(ZPE)  - the the zero temperature vibrational energy from the frequency calculation
    E(vib)  - the the finite temperature correction to E(ZPE) due to population
              of excited vibrational states
    E(rot)  - is the rotational thermal energy
    E(trans)- is the translational thermal energy

Summary of contributions to the inner energy U:
Electronic energy                ...  -1220.49638437 Eh
Zero point energy                ...      0.11146739 Eh      69.95 kcal/mol
Thermal vibrational correction   ...      0.01069066 Eh       6.71 kcal/mol
Thermal rotational correction    ...      0.00141627 Eh       0.89 kcal/mol
Thermal translational correction ...      0.00141627 Eh       0.89 kcal/mol
-----------------------------------------------------------------------
Total thermal energy                  -1220.37139378 Eh


Summary of corrections to the electronic energy:
(perhaps to be used in another calculation)
Total thermal correction                  0.01352320 Eh       8.49 kcal/mol
Non-thermal (ZPE) correction              0.11146739 Eh      69.95 kcal/mol
-----------------------------------------------------------------------
Total correction                          0.12499059 Eh      78.43 kcal/mol


--------
ENTHALPY
--------

The enthalpy is H = U + kB*T
                kB is Boltzmann's constant
Total thermal energy              ...  -1220.37139378 Eh 
Thermal Enthalpy correction       ...      0.00094421 Eh       0.59 kcal/mol
-----------------------------------------------------------------------
Total Enthalpy                    ...  -1220.37044957 Eh


Note: Only C1 symmetry has been detected, increase convergence thresholds 
      if your molecule has a higher symmetry. Symmetry factor of 1.0 is   
      used for the rotational entropy correction. 
 

Note: Rotational entropy computed according to Herzberg 
Infrared and Raman Spectra, Chapter V,1, Van Nostrand Reinhold, 1945 
Point Group:  C1, Symmetry Number:   1  
Rotational constants in cm-1:     0.044542     0.026499     0.020966 

Vibrational entropy computed according to the QRRHO of S. Grimme
Chem.Eur.J. 2012 18 9955 using a reference frequency of 100.0 cm-1


-------
ENTROPY
-------

The entropy contributions are T*S = T*(S(el)+S(vib)+S(rot)+S(trans))
     S(el)   - electronic entropy
     S(vib)  - vibrational entropy
     S(rot)  - rotational entropy
     S(trans)- translational entropy
The entropies will be listed as multiplied by the temperature to get
units of energy

Electronic entropy                ...      0.00000000 Eh      0.00 kcal/mol
Vibrational entropy               ...      0.01820069 Eh     11.42 kcal/mol
Rotational entropy                ...      0.01451819 Eh      9.11 kcal/mol
Translational entropy             ...      0.01944577 Eh     12.20 kcal/mol
-----------------------------------------------------------------------
Final entropy term                ...      0.05216465 Eh     32.73 kcal/mol

In case the symmetry of your molecule has not been determined correctly
or in case you have a reason to use a different symmetry number we print 
out the resulting rotational entropy values for sn=1,12:

 non-linear molecules -----------------------------------
|  sn= 1 | S(rot)=       0.01451819 Eh      9.11 kcal/mol|
|  sn= 2 | S(rot)=       0.01386373 Eh      8.70 kcal/mol|
|  sn= 3 | S(rot)=       0.01348090 Eh      8.46 kcal/mol|
|  sn= 4 | S(rot)=       0.01320927 Eh      8.29 kcal/mol|
|  sn= 5 | S(rot)=       0.01299859 Eh      8.16 kcal/mol|
|  sn= 6 | S(rot)=       0.01282644 Eh      8.05 kcal/mol|
|  sn= 7 | S(rot)=       0.01268090 Eh      7.96 kcal/mol|
|  sn= 8 | S(rot)=       0.01255482 Eh      7.88 kcal/mol|
|  sn= 9 | S(rot)=       0.01244361 Eh      7.81 kcal/mol|
|  sn=10 | S(rot)=       0.01234413 Eh      7.75 kcal/mol|
|  sn=11 | S(rot)=       0.01225414 Eh      7.69 kcal/mol|
|  sn=12 | S(rot)=       0.01217199 Eh      7.64 kcal/mol|
 linear molecules ---------------------------------------
|  Dinfh | S(rot)=       0.00897492 Eh      5.63 kcal/mol|
|  Cinfv | S(rot)=       0.00962937 Eh      6.04 kcal/mol|
 --------------------------------------------------------


-------------------
GIBBS FREE ENERGY
-------------------

The Gibbs free energy is G = H - T*S

Total enthalpy                    ...  -1220.37044957 Eh 
Total entropy correction          ...     -0.05216465 Eh    -32.73 kcal/mol
-----------------------------------------------------------------------
Final Gibbs free energy         ...  -1220.42261422 Eh

For completeness - the Gibbs free energy minus the electronic energy
G-E(el)                           ...      0.07377015 Eh     46.29 kcal/mol


Maximum memory used throughout the entire PROP-calculation: 127.2 MB

--------------------------------
SUGGESTED CITATIONS FOR THIS RUN
--------------------------------

Below you find a list of papers that are relevant to this ORCA run
We neither can nor want to force you to cite these papers, but we appreciate if you do
You receive ORCA, which is the product of decades of hard work by many enthusiastic individuals, for free
The only thing we kindly ask in return is that you cite our papers,
We deeply appreciate it, if you show your appreciation for ORCA by not just citing the generic ORCA reference.

Please note that relegating all ORCA citations to the supporting information does *not* help us.
SI sections are not indexed - citations you put there will not count into any citation statistics
But we need these citations in order to attract the funding resources that allow us to do what we are doing

Therefore, if you are a happy ORCA user, please consider citing a few of the papers listed below in the main body of your paper

In addition to the list printed below, the program has created the file run.bibtex that contains the list in bibtex format
You can import this file easily into all common literature databanks and citation aid programs


List of essential papers. We consider these as the minimum necessary citations

  1. Neese, F.
     Software update: the ORCA program system, version 6.0
     WIRES Comput. Molec. Sci. 2025 15(1), e70019
     doi.org/10.1002/wcms.7019

List of papers to cite with high priority. The work reported in these papers was absolutely
necessary for this run to complete.
Our perspective: the developers of density functionals and basis sets usually get cited in chemistry papers
Good! But without the algorithms to do something with them, the functionals or basis sets would not do anything.
Hence, in our opinion, the algorithm design and method developments papers are equally worthy of getting cited

  1. Neese, F.
     An improvement of the resolution of the identity approximation for the formation of the Coulomb matrix
     J. Comp. Chem. 2003 24(14), 1740-1747
     doi.org/10.1002/jcc.10318
  2. Grimme, S.; Antony, J.; Ehrlich, S.; Krieg, H.
     A consistent and accurate ab initio parametrization of density functional dispersion correction (DFT-D) for the 94 elements H-Pu
     J. Chem. Phys. 2010 132 , 154104
     doi.org/10.1063/1.3382344
  3. Grimme, S.; Ehrlich, S.; Goerigk, L.
     Effect of the damping function in dispersion corrected density functional theory
     J. Comput. Chem. 2011 32(7), 1456-1465
     doi.org/10.1002/jcc.21759
  4. Bykov, D.; Petrenko, T.; Izsak, R.; Kossmann, S.; Becker, U.; Valeev, E.; Neese, F.
     Efficient implementation of the analytic second derivatives of Hartree-Fock and hybrid DFT energies: a detailed analysis of different approximations
     Molec. Phys. 2015 113 , 1961-1977
     doi.org/10.1080/00268976.2015.1025114
  5. Stoychev, G.L.; Auer, A.A.; Neese, F.
     Automatic Generation of Auxiliary Basis Sets
     J. Theo. Comp. Chem. 2017 13 , 554-562
     doi.org/10.1021/acs.jctc.6b01041
  6. Neese, F.
     The SHARK Integral Generation and Digestion System
     J. Comp. Chem. 2022 44(3), 381
     doi.org/10.1002/jcc.26942

List of suggested additional citations. These are papers that are important in the 'surrounding' of 
of this run, or papers that preceded the highly important papers. If you like your results we are grateful for a citation.

  1. Neese, F.
     The ORCA program system
     WIRES Comput. Molec. Sci. 2012 2(1), 73-78
     doi.org/10.1002/wcms.81
  2. Neese, F.
     Software update: the ORCA program system, version 4.0
     WIRES Comput. Molec. Sci. 2018 8(1), 1-6
     doi.org/10.1002/wcms.1327
  3. Neese, F.; Wennmohs, F.; Becker, U.; Riplinger, C.
     The ORCA quantum chemistry program package
     J. Chem. Phys. 2020 152(22), 224108
     doi.org/10.1063/5.0004608
  4. Neese, F.
     Software update: The ORCA program system—Version 5.0
     WIRES Comput. Molec. Sci. 2022 12(1), e1606
     doi.org/10.1002/wcms.1606

List of optional additional citations

  1. Neese, F.
     Approximate second-order SCF convergence for spin unrestricted wavefunctions
     Chem. Phys. Lett. 2000 325(1-3), 93-98
     doi.org/10.1016/s0009-2614(00)00662-x

Timings for individual modules:

Sum of individual times          ...      401.565 sec (=   6.693 min)
Startup calculation              ...       42.430 sec (=   0.707 min)  10.6 %
SCF iterations                   ...      100.785 sec (=   1.680 min)  25.1 %
Property integrals               ...       93.018 sec (=   1.550 min)  23.2 %
SCF Response                     ...       89.653 sec (=   1.494 min)  22.3 %
Property calculations            ...       42.630 sec (=   0.711 min)  10.6 %
SCF Gradient evaluation          ...       32.900 sec (=   0.548 min)   8.2 %
Geometry relaxation              ...        0.149 sec (=   0.002 min)   0.0 %
                             ****ORCA TERMINATED NORMALLY****
TOTAL RUN TIME: 0 days 0 hours 6 minutes 51 seconds 841 msec
