
     Program PWSCF v.7.3.1 starts on  3Jun2025 at  9: 2: 0 

     This program is part of the open-source Quantum ESPRESSO suite
     for quantum simulation of materials; please cite
         "P. Giannozzi et al., J. Phys.:Condens. Matter 21 395502 (2009);
         "P. Giannozzi et al., J. Phys.:Condens. Matter 29 465901 (2017);
         "P. Giannozzi et al., J. Chem. Phys. 152 154105 (2020);
          URL http://www.quantum-espresso.org", 
     in publications or presentations arising from this work. More details at
     http://www.quantum-espresso.org/quote

     Parallel version (MPI), running on   256 processors

     MPI processes distributed on     1 nodes
     1533455 MiB available memory on the printing compute node when the environment starts

     Waiting for input...
     Reading input from standard input

     Current dimensions of program PWSCF are:
     Max number of different atomic species (ntypx) = 10
     Max number of k-points (npk) =  40000
     Max angular momentum in pseudopotentials (lmaxx) =  4
     file H.pbe-kjpaw_psl.1.0.0.UPF: wavefunction(s)  1S renormalized
     file Zr.pbe-spn-kjpaw_psl.1.0.0.UPF: wavefunction(s)  4S 4P renormalized
     file C.pbe-n-kjpaw_psl.1.0.0.UPF: wavefunction(s)  2S 2P renormalized
     file O.pbe-n-kjpaw_psl.1.0.0.UPF: wavefunction(s)  2S 2P renormalized

     IMPORTANT: XC functional enforced from input :
     Exchange-correlation= PBE
                           (   1   4   3   4   0   0   0)
     Any further DFT definition will be discarded
     Please, verify this is what you really want


     gamma-point specific algorithms are used
     Message from routine setup:
     using ibrav=0 with symmetry is DISCOURAGED, use correct ibrav instead

     R & G space division:  proc/nbgrp/npool/nimage =     256
     WARNING: too many processors for an effective parallelization!
     wavefunctions fft division:  task group distribution
                                  #TG    x Z-proc =       8     32
     Subspace diagonalization in iterative solution of the eigenvalue problem:
     one sub-group per band group will be used
     custom distributed-memory algorithm (size of sub-group:  2*  2 procs)


     Parallelization info
     --------------------
     sticks:   dense  smooth     PW     G-vecs:    dense   smooth      PW
     Min          98      66     16                10592     5766     714
     Max         100      68     18                10624     5782     734
     Sum       25439   16987   4247              2715887  1478683  184701

     Using Pencil Decomposition


     Title: 
     UiO-66-dehydrox GeomOpt                                                    


     bravais-lattice index     =            0
     lattice parameter (alat)  =      27.5901  a.u.
     unit-cell volume          =   15295.2814 (a.u.)^3
     number of atoms/cell      =          108
     number of atomic types    =            4
     number of electrons       =       468.00
     number of Kohn-Sham states=          234
     kinetic-energy cutoff     =      80.0000  Ry
     charge density cutoff     =     480.0000  Ry
     scf convergence threshold =      1.0E-08
     mixing beta               =       0.7000
     number of iterations used =            8  plain     mixing
     energy convergence thresh.=      3.6E-06
     force convergence thresh. =      1.0E-05
     press convergence thresh. =      5.0E-01
     Exchange-correlation= PBE
                           (   1   4   3   4   0   0   0)
     nstep                     =           50


     celldm(1)=  27.590096  celldm(2)=   0.000000  celldm(3)=   0.000000
     celldm(4)=   0.000000  celldm(5)=   0.000000  celldm(6)=   0.000000

     crystal axes: (cart. coord. in units of alat)
               a(1) = (   0.997473  -0.000036  -0.000026 )  
               a(2) = (   0.473142   0.878117  -0.000025 )  
               a(3) = (   0.473143   0.282506   0.831433 )  

     reciprocal axes: (cart. coord. in units 2 pi/alat)
               b(1) = (  1.002504 -0.540175 -0.386952 )  
               b(2) = (  0.000032  1.138772 -0.386952 )  
               b(3) = (  0.000031  0.000018  1.202719 )  


     PseudoPot. # 1 for H  read from file:
     /home/mehlhorn/pseudos/UiO-66_pbe-spn-kjpaw/H.pbe-kjpaw_psl.1.0.0.UPF
     MD5 check sum: d81a744832360e4a8af0b0b5b123bc2a
     Pseudo is Projector augmented-wave, Zval =  1.0
     Generated using &quot;atomic&quot; code by A. Dal Corso  v.6.3MaX
     Shape of augmentation charge: PSQ
     Using radial grid of  929 points,  2 beta functions with: 
                l(1) =   0
                l(2) =   0
     Q(r) pseudized with 0 coefficients 


     PseudoPot. # 2 for Zr read from file:
     /home/mehlhorn/pseudos/UiO-66_pbe-spn-kjpaw/Zr.pbe-spn-kjpaw_psl.1.0.0.UPF
     MD5 check sum: 02112c41713a0468aff2bb39ef194e36
     Pseudo is Projector augmented-wave + core cor, Zval = 12.0
     Generated using &quot;atomic&quot; code by A. Dal Corso  v.6.2.2
     Shape of augmentation charge: PSQ
     Using radial grid of 1225 points,  6 beta functions with: 
                l(1) =   0
                l(2) =   0
                l(3) =   1
                l(4) =   1
                l(5) =   2
                l(6) =   2
     Q(r) pseudized with 0 coefficients 


     PseudoPot. # 3 for C  read from file:
     /home/mehlhorn/pseudos/UiO-66_pbe-spn-kjpaw/C.pbe-n-kjpaw_psl.1.0.0.UPF
     MD5 check sum: 5f16ad9a65e90284d1d834d4ab3b0f7d
     Pseudo is Projector augmented-wave + core cor, Zval =  4.0
     Generated using &quot;atomic&quot; code by A. Dal Corso  v.6.3
     Shape of augmentation charge: PSQ
     Using radial grid of 1073 points,  4 beta functions with: 
                l(1) =   0
                l(2) =   0
                l(3) =   1
                l(4) =   1
     Q(r) pseudized with 0 coefficients 


     PseudoPot. # 4 for O  read from file:
     /home/mehlhorn/pseudos/UiO-66_pbe-spn-kjpaw/O.pbe-n-kjpaw_psl.1.0.0.UPF
     MD5 check sum: e99d9cef9b487d1ca56f5b95ecd0fd7a
     Pseudo is Projector augmented-wave + core cor, Zval =  6.0
     Generated using &quot;atomic&quot; code by A. Dal Corso  v.6.3
     Shape of augmentation charge: PSQ
     Using radial grid of 1095 points,  4 beta functions with: 
                l(1) =   0
                l(2) =   0
                l(3) =   1
                l(4) =   1
     Q(r) pseudized with 0 coefficients 


     atomic species   valence    mass     pseudopotential
     H                 1.00     1.00750     H ( 1.00)
     Zr               12.00    91.22400     Zr( 1.00)
     C                 4.00    12.01060     C ( 1.00)
     O                 6.00    15.99900     O ( 1.00)

      2 Sym. Ops., with inversion, found



   Cartesian axes

     site n.     atom                  positions (alat units)
         1        Zr     tau(   1) = (   0.9849210   0.1388727   0.1016999  )
         2        Zr     tau(   2) = (   0.9588362   1.0217129   0.7296822  )
         3        Zr     tau(   3) = (   0.5913219   0.8001756   0.0987675  )
         4        Zr     tau(   4) = (   1.3524353   0.3604106   0.7326138  )
         5        Zr     tau(   5) = (   0.5894727   0.3540654   0.7258500  )
         6        Zr     tau(   6) = (   1.3542839   0.8065211   0.1055321  )
         7        O      tau(   7) = (   1.0809447   0.2536807   0.0706164  )
         8        O      tau(   8) = (   0.8628129   0.9069058   0.7607657  )
         9        O      tau(   9) = (   0.6434825   0.8811457   0.2174724  )
        10        O      tau(  10) = (   1.3002751   0.2794408   0.6139097  )
        11        O      tau(  11) = (   0.7360924   0.3343100   0.7643216  )
        12        O      tau(  12) = (   1.2076652   0.8262765   0.0670605  )
        13        O      tau(  13) = (   1.2127067   0.3062859   0.7631083  )
        14        O      tau(  14) = (   0.7310509   0.8543006   0.0682738  )
        15        O      tau(  15) = (   1.2980878   0.6780787   0.0444751  )
        16        O      tau(  16) = (   0.6456698   0.4825078   0.7869070  )
        17        O      tau(  17) = (   0.8449063   1.0192697   0.6277145  )
        18        O      tau(  18) = (   1.0988513   0.1413168   0.2036676  )
        19        O      tau(  19) = (   1.0491033   1.0175226   0.6098831  )
        20        O      tau(  20) = (   0.8946543   0.1430639   0.2214990  )
        21        O      tau(  21) = (   1.2942144   0.4943220   0.7671913  )
        22        O      tau(  22) = (   0.6495432   0.6662645   0.0641908  )
        23        O      tau(  23) = (   1.3934154   0.7192987   0.2211976  )
        24        O      tau(  24) = (   0.5503422   0.4412878   0.6101845  )
        25        O      tau(  25) = (   0.5501013   0.7112874   0.2152148  )
        26        O      tau(  26) = (   1.3936563   0.4492991   0.6161673  )
        27        O      tau(  27) = (   0.6418027   0.2790432   0.6042222  )
        28        O      tau(  28) = (   1.3019549   0.8815433   0.2271600  )
        29        O      tau(  29) = (   0.8871166   0.2510192   0.0698000  )
        30        O      tau(  30) = (   1.0566410   0.9095673   0.7615821  )
        31        O      tau(  31) = (   0.8777632   0.0525565   0.0397321  )
        32        O      tau(  32) = (   1.0659944   1.1080300   0.7916500  )
        33        O      tau(  33) = (   0.4643899   0.7468495   0.0369791  )
        34        O      tau(  34) = (   1.4793677   0.4137370   0.7944030  )
        35        O      tau(  35) = (   0.4626541   0.2782156   0.6952395  )
        36        O      tau(  36) = (   1.4811035   0.8823709   0.1361426  )
        37        C      tau(  37) = (   1.3134051   0.9625836   0.2572095  )
        38        C      tau(  38) = (   0.6303525   0.1980029   0.5741726  )
        39        C      tau(  39) = (   1.1100731   0.8937816   0.8286448  )
        40        C      tau(  40) = (   0.8336845   0.2668049   0.0027373  )
        41        C      tau(  41) = (   1.4704281   0.4686243   0.5796445  )
        42        C      tau(  42) = (   0.4733295   0.6919623   0.2517376  )
        43        C      tau(  43) = (   0.8007495   0.8975864   0.8213197  )
        44        C      tau(  44) = (   1.1430081   0.2630001   0.0100624  )
        45        C      tau(  45) = (   1.3186669   0.1990285   0.5856030  )
        46        C      tau(  46) = (   0.6250907   0.9615580   0.2457791  )
        47        C      tau(  47) = (   1.1700200   0.8674545   0.0000310  )
        48        C      tau(  48) = (   0.7737376   0.2931320   0.8313511  )
        49        C      tau(  49) = (   1.1897263   0.3540421   0.0042811  )
        50        C      tau(  50) = (   0.7540313   0.8065444   0.8271010  )
        51        C      tau(  51) = (   0.6682214   0.9913843   0.3338401  )
        52        C      tau(  52) = (   1.2755363   0.1692022   0.4975420  )
        53        C      tau(  53) = (   0.8760460   0.2869955   0.8312592  )
        54        C      tau(  54) = (   1.0677116   0.8735910   0.0001229  )
        55        C      tau(  55) = (   0.6842287   0.1688561   0.4920683  )
        56        C      tau(  56) = (   1.2595289   0.9917305   0.3393138  )
        57        C      tau(  57) = (   0.7825516   0.3555598   0.0015581  )
        58        C      tau(  58) = (   1.1612060   0.8050267   0.8298240  )
        59        C      tau(  59) = (   0.4732284   0.6339319   0.3361530  )
        60        C      tau(  60) = (   1.4705293   0.5266546   0.4952291  )
        61        C      tau(  61) = (   1.1605118   0.4267234   0.0599600  )
        62        C      tau(  62) = (   0.7832458   0.7338631   0.7714221  )
        63        C      tau(  63) = (   0.7213569   0.9295680   0.3847422  )
        64        C      tau(  64) = (   1.2224007   0.2310185   0.4466399  )
        65        C      tau(  65) = (   0.9261708   0.3203450   0.7563501  )
        66        C      tau(  66) = (   1.0175868   0.8402415   0.0750320  )
        67        C      tau(  67) = (   1.0212952   0.3157999   0.7564446  )
        68        C      tau(  68) = (   0.9224624   0.8447866   0.0749375  )
        69        C      tau(  69) = (   1.2044284   0.5111150   0.0556261  )
        70        C      tau(  70) = (   0.7393292   0.6494715   0.7757560  )
        71        C      tau(  71) = (   0.7624812   0.9572921   0.4660411  )
        72        C      tau(  72) = (   1.1812764   0.2032944   0.3653410  )
        73        C      tau(  73) = (   1.1485919   0.9576146   0.4577787  )
        74        C      tau(  74) = (   0.7951657   0.2029719   0.3736034  )
        75        C      tau(  75) = (   1.1976596   0.6593650   0.7594068  )
        76        C      tau(  76) = (   0.7460980   0.5012215   0.0719753  )
        77        C      tau(  77) = (   1.3878709   0.6126052   0.3799697  )
        78        C      tau(  78) = (   0.5558867   0.5479813   0.4514124  )
        79        C      tau(  79) = (   0.5559764   0.6012230   0.3724235  )
        80        C      tau(  80) = (   1.3877812   0.5593635   0.4589586  )
        81        C      tau(  81) = (   0.7444507   0.2304043   0.4494286  )
        82        C      tau(  82) = (   1.1993069   0.9301822   0.3819535  )
        83        C      tau(  83) = (   0.7930108   0.4183311   0.0735509  )
        84        C      tau(  84) = (   1.1507469   0.7422554   0.7578312  )
        85        H      tau(  85) = (   1.1902252   0.6100682   0.7039138  )
        86        H      tau(  86) = (   0.7535324   0.5505184   0.1274683  )
        87        H      tau(  87) = (   1.3241267   0.6385093   0.3511484  )
        88        H      tau(  88) = (   0.6196309   0.5220772   0.4802337  )
        89        H      tau(  89) = (   1.1016674   0.9104897   0.4915783  )
        90        H      tau(  90) = (   0.8420902   0.2500968   0.3398038  )
        91        H      tau(  91) = (   0.8383020   0.4009892   0.1302430  )
        92        H      tau(  92) = (   1.1054556   0.7595973   0.7011391  )
        93        H      tau(  93) = (   0.6198031   0.6182780   0.3377629  )
        94        H      tau(  94) = (   1.3239545   0.5423085   0.4936192  )
        95        H      tau(  95) = (   0.7506686   0.2995559   0.4767285  )
        96        H      tau(  96) = (   1.1930890   0.8610306   0.3546536  )
        97        H      tau(  97) = (   0.7295806   0.8598626   0.3594600  )
        98        H      tau(  98) = (   1.2141770   0.3007239   0.4719222  )
        99        H      tau(  99) = (   0.8892552   0.3495782   0.6984867  )
       100        H      tau( 100) = (   1.0545024   0.8110083   0.1328954  )
       101        H      tau( 101) = (   1.1030510   0.4157528   0.1062559  )
       102        H      tau( 102) = (   0.8407066   0.7448337   0.7251262  )
       103        H      tau( 103) = (   0.8034272   0.9098074   0.5064672  )
       104        H      tau( 104) = (   1.1403304   0.2507791   0.3249149  )
       105        H      tau( 105) = (   1.0609652   0.3409363   0.6984763  )
       106        H      tau( 106) = (   0.8827924   0.8196502   0.1329058  )
       107        H      tau( 107) = (   1.1820489   0.5682369   0.0980775  )
       108        H      tau( 108) = (   0.7617088   0.5923496   0.7333046  )

     number of k points=     1
                       cart. coord. in units 2pi/alat
        k(    1) = (   0.0000000   0.0000000   0.0000000), wk =   2.0000000

     Dense  grid:  1357944 G-vectors     FFT dimensions: ( 192, 192, 192)

     Smooth grid:   739342 G-vectors     FFT dimensions: ( 160, 160, 160)

     Estimated max dynamical RAM per process >      51.63 MB

     Estimated total dynamical RAM >      12.91 GB

     Check: negative core charge=   -0.000001

     Initial potential from superposition of free atoms

     starting charge     467.9848, renormalised to     468.0000

     negative rho (up, down):  4.362E-05 0.000E+00
     Starting wfcs are  414 randomized atomic wfcs
     Checking if some PAW data can be deallocated... 

     total cpu time spent up to now is        4.8 secs

     Self-consistent Calculation

     iteration #  1     ecut=    80.00 Ry     beta= 0.70
     Davidson diagonalization with overlap
     ethr =  1.00E-02,  avg # of iterations =  2.0

     negative rho (up, down):  8.377E-06 0.000E+00

     total cpu time spent up to now is        9.1 secs

     total energy              =   -4001.12988603 Ry
     estimated scf accuracy    <      17.31771868 Ry

     iteration #  2     ecut=    80.00 Ry     beta= 0.70
     Davidson diagonalization with overlap
     ethr =  3.70E-03,  avg # of iterations = 12.0

     negative rho (up, down):  2.183E-05 0.000E+00

     total cpu time spent up to now is       15.7 secs

     total energy              =   -4005.45886577 Ry
     estimated scf accuracy    <      14.91456912 Ry

     iteration #  3     ecut=    80.00 Ry     beta= 0.70
     Davidson diagonalization with overlap
     ethr =  3.19E-03,  avg # of iterations =  9.0

     negative rho (up, down):  5.608E-05 0.000E+00

     total cpu time spent up to now is       20.4 secs

     total energy              =   -4008.28808108 Ry
     estimated scf accuracy    <       2.53283550 Ry

     iteration #  4     ecut=    80.00 Ry     beta= 0.70
     Davidson diagonalization with overlap
     ethr =  5.41E-04,  avg # of iterations =  7.0

     negative rho (up, down):  3.143E-04 0.000E+00

     total cpu time spent up to now is       25.4 secs

     total energy              =   -4008.98627327 Ry
     estimated scf accuracy    <       0.16085096 Ry

     iteration #  5     ecut=    80.00 Ry     beta= 0.70
     Davidson diagonalization with overlap
     ethr =  3.44E-05,  avg # of iterations = 11.0

     negative rho (up, down):  3.739E-04 0.000E+00

     total cpu time spent up to now is       33.7 secs

     total energy              =   -4009.15293588 Ry
     estimated scf accuracy    <       0.23678492 Ry

     iteration #  6     ecut=    80.00 Ry     beta= 0.70
     Davidson diagonalization with overlap
     ethr =  3.44E-05,  avg # of iterations =  2.0

     negative rho (up, down):  4.521E-04 0.000E+00

     total cpu time spent up to now is       37.1 secs

     total energy              =   -4009.11660023 Ry
     estimated scf accuracy    <       0.08458471 Ry

     iteration #  7     ecut=    80.00 Ry     beta= 0.70
     Davidson diagonalization with overlap
     ethr =  1.81E-05,  avg # of iterations = 10.0

     negative rho (up, down):  4.574E-04 0.000E+00

     total cpu time spent up to now is       43.9 secs

     total energy              =   -4009.17611844 Ry
     estimated scf accuracy    <       0.04960297 Ry

     iteration #  8     ecut=    80.00 Ry     beta= 0.70
     Davidson diagonalization with overlap
     ethr =  1.06E-05,  avg # of iterations =  2.0

     negative rho (up, down):  4.813E-04 0.000E+00

     total cpu time spent up to now is       47.0 secs

     total energy              =   -4009.15792646 Ry
     estimated scf accuracy    <       0.03139579 Ry

     iteration #  9     ecut=    80.00 Ry     beta= 0.70
     Davidson diagonalization with overlap
     ethr =  6.71E-06,  avg # of iterations = 10.0

     negative rho (up, down):  4.862E-04 0.000E+00

     total cpu time spent up to now is       52.4 secs

     total energy              =   -4009.17052067 Ry
     estimated scf accuracy    <       0.00470104 Ry

     iteration # 10     ecut=    80.00 Ry     beta= 0.70
     Davidson diagonalization with overlap
     ethr =  1.00E-06,  avg # of iterations =  6.0

     negative rho (up, down):  4.910E-04 0.000E+00

     total cpu time spent up to now is       57.4 secs

     total energy              =   -4009.17143913 Ry
     estimated scf accuracy    <       0.00161420 Ry

     iteration # 11     ecut=    80.00 Ry     beta= 0.70
     Davidson diagonalization with overlap
     ethr =  3.45E-07,  avg # of iterations =  8.0

     negative rho (up, down):  4.986E-04 0.000E+00

     total cpu time spent up to now is       62.2 secs

     total energy              =   -4009.17183487 Ry
     estimated scf accuracy    <       0.00014678 Ry

     iteration # 12     ecut=    80.00 Ry     beta= 0.70
     Davidson diagonalization with overlap
     ethr =  3.14E-08,  avg # of iterations =  9.0

     negative rho (up, down):  4.992E-04 0.000E+00

     total cpu time spent up to now is       71.3 secs

     total energy              =   -4009.17211199 Ry
     estimated scf accuracy    <       0.00042445 Ry

     iteration # 13     ecut=    80.00 Ry     beta= 0.70
     Davidson diagonalization with overlap
     ethr =  3.14E-08,  avg # of iterations =  2.0

     negative rho (up, down):  5.010E-04 0.000E+00

     total cpu time spent up to now is       74.6 secs

     total energy              =   -4009.17196104 Ry
     estimated scf accuracy    <       0.00048137 Ry

     iteration # 14     ecut=    80.00 Ry     beta= 0.70
     Davidson diagonalization with overlap
     ethr =  3.14E-08,  avg # of iterations =  7.0

     negative rho (up, down):  5.009E-04 0.000E+00

     total cpu time spent up to now is       79.5 secs

     total energy              =   -4009.17195165 Ry
     estimated scf accuracy    <       0.00020095 Ry

     iteration # 15     ecut=    80.00 Ry     beta= 0.70
     Davidson diagonalization with overlap
     ethr =  3.14E-08,  avg # of iterations =  7.0

     negative rho (up, down):  5.008E-04 0.000E+00

     total cpu time spent up to now is       83.6 secs

     total energy              =   -4009.17196439 Ry
     estimated scf accuracy    <       0.00007014 Ry

     iteration # 16     ecut=    80.00 Ry     beta= 0.70
     Davidson diagonalization with overlap
     ethr =  1.50E-08,  avg # of iterations =  7.0

     negative rho (up, down):  5.008E-04 0.000E+00

     total cpu time spent up to now is       87.5 secs

     total energy              =   -4009.17196836 Ry
     estimated scf accuracy    <       0.00003858 Ry

     iteration # 17     ecut=    80.00 Ry     beta= 0.70
     Davidson diagonalization with overlap
     ethr =  8.24E-09,  avg # of iterations =  6.0

     negative rho (up, down):  5.008E-04 0.000E+00

     total cpu time spent up to now is       91.4 secs

     total energy              =   -4009.17196449 Ry
     estimated scf accuracy    <       0.00002158 Ry

     iteration # 18     ecut=    80.00 Ry     beta= 0.70
     Davidson diagonalization with overlap
     ethr =  4.61E-09,  avg # of iterations = 10.0

     negative rho (up, down):  5.009E-04 0.000E+00

     total cpu time spent up to now is       97.6 secs

     total energy              =   -4009.17197596 Ry
     estimated scf accuracy    <       0.00000376 Ry

     iteration # 19     ecut=    80.00 Ry     beta= 0.70
     Davidson diagonalization with overlap
     ethr =  8.04E-10,  avg # of iterations =  7.0

     negative rho (up, down):  5.011E-04 0.000E+00

     total cpu time spent up to now is      102.7 secs

     total energy              =   -4009.17197623 Ry
     estimated scf accuracy    <       0.00000492 Ry

     iteration # 20     ecut=    80.00 Ry     beta= 0.70
     Davidson diagonalization with overlap
     ethr =  8.04E-10,  avg # of iterations =  2.0

     negative rho (up, down):  5.013E-04 0.000E+00

     total cpu time spent up to now is      105.8 secs

     total energy              =   -4009.17197508 Ry
     estimated scf accuracy    <       0.00000319 Ry

     iteration # 21     ecut=    80.00 Ry     beta= 0.70
     Davidson diagonalization with overlap
     ethr =  6.82E-10,  avg # of iterations =  8.0

     negative rho (up, down):  5.013E-04 0.000E+00

     total cpu time spent up to now is      112.3 secs

     total energy              =   -4009.17197687 Ry
     estimated scf accuracy    <       0.00000561 Ry

     iteration # 22     ecut=    80.00 Ry     beta= 0.70
     Davidson diagonalization with overlap
     ethr =  6.82E-10,  avg # of iterations =  1.0

     negative rho (up, down):  5.014E-04 0.000E+00

     total cpu time spent up to now is      115.2 secs

     total energy              =   -4009.17197536 Ry
     estimated scf accuracy    <       0.00000424 Ry

     iteration # 23     ecut=    80.00 Ry     beta= 0.70
     Davidson diagonalization with overlap
     ethr =  6.82E-10,  avg # of iterations =  6.0

     negative rho (up, down):  5.013E-04 0.000E+00

     total cpu time spent up to now is      118.9 secs

     total energy              =   -4009.17197508 Ry
     estimated scf accuracy    <       0.00000122 Ry

     iteration # 24     ecut=    80.00 Ry     beta= 0.70
     Davidson diagonalization with overlap
     ethr =  2.60E-10,  avg # of iterations = 12.0

     negative rho (up, down):  5.013E-04 0.000E+00

     total cpu time spent up to now is      127.6 secs

     total energy              =   -4009.17197651 Ry
     estimated scf accuracy    <       0.00000168 Ry

     iteration # 25     ecut=    80.00 Ry     beta= 0.70
     Davidson diagonalization with overlap
     ethr =  2.60E-10,  avg # of iterations =  2.0

     negative rho (up, down):  5.013E-04 0.000E+00

     total cpu time spent up to now is      130.7 secs

     total energy              =   -4009.17197612 Ry
     estimated scf accuracy    <       0.00000149 Ry

     iteration # 26     ecut=    80.00 Ry     beta= 0.70
     Davidson diagonalization with overlap
     ethr =  2.60E-10,  avg # of iterations =  2.0

     negative rho (up, down):  5.014E-04 0.000E+00

     total cpu time spent up to now is      133.8 secs

     total energy              =   -4009.17197595 Ry
     estimated scf accuracy    <       0.00000073 Ry

     iteration # 27     ecut=    80.00 Ry     beta= 0.70
     Davidson diagonalization with overlap
     ethr =  1.57E-10,  avg # of iterations =  8.0

     negative rho (up, down):  5.014E-04 0.000E+00

     total cpu time spent up to now is      138.3 secs

     total energy              =   -4009.17197612 Ry
     estimated scf accuracy    <       0.00000008 Ry

     iteration # 28     ecut=    80.00 Ry     beta= 0.70
     Davidson diagonalization with overlap
     ethr =  1.74E-11,  avg # of iterations = 10.0

     negative rho (up, down):  5.014E-04 0.000E+00

     total cpu time spent up to now is      144.8 secs

     total energy              =   -4009.17197616 Ry
     estimated scf accuracy    <       0.00000003 Ry

     iteration # 29     ecut=    80.00 Ry     beta= 0.70
     Davidson diagonalization with overlap
     ethr =  6.24E-12,  avg # of iterations =  2.0

     negative rho (up, down):  5.014E-04 0.000E+00

     total cpu time spent up to now is      148.2 secs

     total energy              =   -4009.17197616 Ry
     estimated scf accuracy    <       0.00000002 Ry

     iteration # 30     ecut=    80.00 Ry     beta= 0.70
     Davidson diagonalization with overlap
     ethr =  4.00E-12,  avg # of iterations = 15.0

     negative rho (up, down):  5.014E-04 0.000E+00

     total cpu time spent up to now is      155.7 secs

     total energy              =   -4009.17197618 Ry
     estimated scf accuracy    <       0.00000006 Ry

     iteration # 31     ecut=    80.00 Ry     beta= 0.70
     Davidson diagonalization with overlap
     ethr =  4.00E-12,  avg # of iterations =  2.0

     negative rho (up, down):  5.014E-04 0.000E+00

     total cpu time spent up to now is      158.8 secs

     total energy              =   -4009.17197616 Ry
     estimated scf accuracy    <       0.00000004 Ry

     iteration # 32     ecut=    80.00 Ry     beta= 0.70
     Davidson diagonalization with overlap
     ethr =  4.00E-12,  avg # of iterations = 10.0

     negative rho (up, down):  5.014E-04 0.000E+00

     total cpu time spent up to now is      165.1 secs

     End of self-consistent calculation

          k = 0.0000 0.0000 0.0000 ( 92351 PWs)   bands (ev):

   -49.6133 -49.5970 -49.5969 -49.5848 -49.5828 -49.5827 -28.1035 -28.0005
   -28.0005 -27.9069 -27.9069 -27.8987 -27.7715 -27.7265 -27.7264 -27.7199
   -27.7198 -27.6934 -27.6208 -27.6208 -27.5851 -27.5715 -27.5715 -27.5710
   -22.8371 -22.7899 -22.7898 -22.7842 -22.7841 -22.7586 -22.5838 -22.5769
   -22.5194 -22.5194 -22.5170 -22.5170 -20.5502 -20.5342 -20.5341 -20.5047
   -20.5046 -20.4689 -20.3466 -20.3466 -20.3232 -20.3232 -20.2397 -20.2356
   -17.9940 -17.7617 -17.7616 -17.5678 -17.5677 -17.5256 -17.3889 -17.3879
   -17.3879 -17.2143 -17.2143 -17.2121 -15.0472 -15.0471 -15.0377 -14.8622
   -14.8413 -14.8413 -14.4853 -14.4831 -14.4831 -14.3145 -14.3145 -14.3124
   -12.2885 -12.2524 -12.2523 -12.0954 -12.0365 -12.0365 -10.9605 -10.9605
   -10.9492 -10.7864 -10.7864 -10.7696 -10.2289 -10.2288 -10.1496 -10.0260
    -9.8535  -9.8535  -9.6121  -9.5533  -9.5533  -9.4463  -9.3768  -9.3768
    -8.7815  -8.6113  -8.5348  -8.5347  -8.3946  -8.3946  -8.3521  -8.1965
    -8.1965  -8.1475  -8.1475  -7.8682  -7.8660  -7.8660  -7.7601  -7.7601
    -7.6616  -7.6461  -7.6461  -7.6385  -7.5365  -7.3853  -7.3853  -7.2528
    -7.1513  -6.9153  -6.9152  -6.8551  -6.8337  -6.8337  -6.8319  -6.7326
    -6.7325  -6.6970  -6.6867  -6.6866  -6.6630  -6.6630  -6.6588  -6.5695
    -6.5340  -6.5339  -6.5098  -6.4518  -6.4244  -6.4243  -6.3472  -6.3472
    -6.2116  -6.1861  -6.1860  -6.0318  -6.0317  -6.0144  -5.7266  -5.6327
    -5.6326  -5.4562  -5.2473  -5.2473  -5.1314  -4.9980  -4.9554  -4.9554
    -4.8892  -4.8891  -4.8888  -4.8888  -4.8654  -4.7827  -4.7672  -4.7672
    -4.7308  -4.2495  -4.2494  -4.1968  -4.1483  -4.1477  -4.1477  -4.1424
    -4.1424  -3.9847  -3.9847  -3.9772  -3.9772  -3.9593  -3.8041  -3.6409
    -3.6408  -3.6096  -3.5174  -3.3992  -3.3705  -3.3704  -3.2961  -3.2423
    -3.2422  -3.2067  -3.1686  -3.1686  -3.0821  -3.0399  -3.0399  -2.9772
    -2.9772  -2.9207  -2.9206  -2.8157  -2.7498  -2.6819  -2.6819  -2.6803
    -2.6344  -2.6344  -2.5798  -2.5798  -2.5329  -2.5294  -2.5294  -2.4842
    -2.4247  -2.4246  -2.3896  -2.3794  -2.3781  -2.3712  -2.3712  -2.3426
    -2.3426  -2.2854  -2.2393  -2.2392  -2.1744  -2.1743  -2.1581  -1.6323
    -1.6322  -1.4970

     highest occupied level (ev):    -1.4970

!    total energy              =   -4009.17197617 Ry
     total all-electron energy =    -51389.589083 Ry
     estimated scf accuracy    <          4.9E-09 Ry

     The total energy is the sum of the following terms:
     one-electron contribution =   -6098.05685106 Ry
     hartree contribution      =    3180.52975019 Ry
     xc contribution           =    -570.38604724 Ry
     ewald contribution        =    1322.45872027 Ry
     one-center paw contrib.   =   -1843.71754831 Ry

     convergence has been achieved in  32 iterations

     negative rho (up, down):  5.014E-04 0.000E+00

     Forces acting on atoms (cartesian axes, Ry/au):

     atom    1 type  2   force =     0.00007324    0.00000024   -0.00002292
     atom    2 type  2   force =    -0.00007324   -0.00000024    0.00002292
     atom    3 type  2   force =     0.00002128    0.00007930    0.00000354
     atom    4 type  2   force =    -0.00002128   -0.00007930   -0.00000354
     atom    5 type  2   force =     0.00004212    0.00001258    0.00006842
     atom    6 type  2   force =    -0.00004212   -0.00001258   -0.00006842
     atom    7 type  4   force =    -0.00005637   -0.00002155   -0.00008325
     atom    8 type  4   force =     0.00005637    0.00002155    0.00008325
     atom    9 type  4   force =    -0.00010941    0.00000868    0.00000828
     atom   10 type  4   force =     0.00010941   -0.00000868   -0.00000828
     atom   11 type  4   force =    -0.00003642   -0.00010715    0.00001223
     atom   12 type  4   force =     0.00003642    0.00010715   -0.00001223
     atom   13 type  4   force =     0.00006942    0.00005232    0.00006807
     atom   14 type  4   force =    -0.00006942   -0.00005232   -0.00006807
     atom   15 type  4   force =     0.00011446   -0.00000333    0.00000378
     atom   16 type  4   force =    -0.00011446    0.00000333   -0.00000378
     atom   17 type  4   force =     0.00005999    0.00009446   -0.00000432
     atom   18 type  4   force =    -0.00005999   -0.00009446    0.00000432
     atom   19 type  4   force =    -0.00000876   -0.00002043   -0.00005176
     atom   20 type  4   force =     0.00000876    0.00002043    0.00005176
     atom   21 type  4   force =    -0.00005647    0.00001468   -0.00001297
     atom   22 type  4   force =     0.00005647   -0.00001468    0.00001297
     atom   23 type  4   force =    -0.00002053   -0.00004679    0.00001952
     atom   24 type  4   force =     0.00002053    0.00004679   -0.00001952
     atom   25 type  4   force =    -0.00002190    0.00006967   -0.00002541
     atom   26 type  4   force =     0.00002190   -0.00006967    0.00002541
     atom   27 type  4   force =    -0.00001728   -0.00006729    0.00005312
     atom   28 type  4   force =     0.00001728    0.00006729   -0.00005312
     atom   29 type  4   force =     0.00002213   -0.00003145   -0.00007682
     atom   30 type  4   force =    -0.00002213    0.00003145    0.00007682
     atom   31 type  4   force =    -0.00006407   -0.00001040    0.00002045
     atom   32 type  4   force =     0.00006407    0.00001040   -0.00002045
     atom   33 type  4   force =    -0.00001135   -0.00006842   -0.00002194
     atom   34 type  4   force =     0.00001135    0.00006842    0.00002194
     atom   35 type  4   force =    -0.00004580    0.00000622   -0.00005275
     atom   36 type  4   force =     0.00004580   -0.00000622    0.00005275
     atom   37 type  3   force =     0.00000595    0.00002947   -0.00002517
     atom   38 type  3   force =    -0.00000595   -0.00002947    0.00002517
     atom   39 type  3   force =    -0.00000691   -0.00000321    0.00002729
     atom   40 type  3   force =     0.00000691    0.00000321   -0.00002729
     atom   41 type  3   force =     0.00007957   -0.00000793   -0.00003289
     atom   42 type  3   force =    -0.00007957    0.00000793    0.00003289
     atom   43 type  3   force =     0.00000805    0.00000788    0.00003014
     atom   44 type  3   force =    -0.00000805   -0.00000788   -0.00003014
     atom   45 type  3   force =     0.00001318    0.00003674    0.00000178
     atom   46 type  3   force =    -0.00001318   -0.00003674   -0.00000178
     atom   47 type  3   force =     0.00000427   -0.00000543    0.00005217
     atom   48 type  3   force =    -0.00000427    0.00000543   -0.00005217
     atom   49 type  3   force =    -0.00000545    0.00001264    0.00000198
     atom   50 type  3   force =     0.00000545   -0.00001264   -0.00000198
     atom   51 type  3   force =    -0.00004033    0.00010878    0.00000589
     atom   52 type  3   force =     0.00004033   -0.00010878   -0.00000589
     atom   53 type  3   force =     0.00000619   -0.00001461    0.00001811
     atom   54 type  3   force =    -0.00000619    0.00001461   -0.00001811
     atom   55 type  3   force =     0.00006644    0.00006120   -0.00000482
     atom   56 type  3   force =    -0.00006644   -0.00006120    0.00000482
     atom   57 type  3   force =     0.00002048    0.00001840   -0.00000803
     atom   58 type  3   force =    -0.00002048   -0.00001840    0.00000803
     atom   59 type  3   force =     0.00002180    0.00001783    0.00001910
     atom   60 type  3   force =    -0.00002180   -0.00001783   -0.00001910
     atom   61 type  3   force =    -0.00002406    0.00002007   -0.00001021
     atom   62 type  3   force =     0.00002406   -0.00002007    0.00001021
     atom   63 type  3   force =     0.00002083   -0.00010709    0.00003423
     atom   64 type  3   force =    -0.00002083    0.00010709   -0.00003423
     atom   65 type  3   force =    -0.00000454   -0.00000758   -0.00005478
     atom   66 type  3   force =     0.00000454    0.00000758    0.00005478
     atom   67 type  3   force =     0.00003922    0.00005154   -0.00004756
     atom   68 type  3   force =    -0.00003922   -0.00005154    0.00004756
     atom   69 type  3   force =    -0.00002686    0.00004238    0.00007708
     atom   70 type  3   force =     0.00002686   -0.00004238   -0.00007708
     atom   71 type  3   force =     0.00003565    0.00003501    0.00002122
     atom   72 type  3   force =    -0.00003565   -0.00003501   -0.00002122
     atom   73 type  3   force =     0.00003431   -0.00004181    0.00001521
     atom   74 type  3   force =    -0.00003431    0.00004181   -0.00001521
     atom   75 type  3   force =     0.00003558    0.00005251    0.00000449
     atom   76 type  3   force =    -0.00003558   -0.00005251   -0.00000449
     atom   77 type  3   force =     0.00001963    0.00003896    0.00002479
     atom   78 type  3   force =    -0.00001963   -0.00003896   -0.00002479
     atom   79 type  3   force =     0.00000601    0.00000855    0.00001037
     atom   80 type  3   force =    -0.00000601   -0.00000855   -0.00001037
     atom   81 type  3   force =    -0.00001267   -0.00006002    0.00000663
     atom   82 type  3   force =     0.00001267    0.00006002   -0.00000663
     atom   83 type  3   force =    -0.00000201    0.00003443   -0.00000026
     atom   84 type  3   force =     0.00000201   -0.00003443    0.00000026
     atom   85 type  1   force =    -0.00001372    0.00007495   -0.00004093
     atom   86 type  1   force =     0.00001372   -0.00007495    0.00004093
     atom   87 type  1   force =    -0.00001056   -0.00000870    0.00008808
     atom   88 type  1   force =     0.00001056    0.00000870   -0.00008808
     atom   89 type  1   force =     0.00006935   -0.00004208   -0.00003797
     atom   90 type  1   force =    -0.00006935    0.00004208    0.00003797
     atom   91 type  1   force =    -0.00000126   -0.00002852   -0.00001298
     atom   92 type  1   force =     0.00000126    0.00002852    0.00001298
     atom   93 type  1   force =    -0.00002357    0.00000727   -0.00001934
     atom   94 type  1   force =     0.00002357   -0.00000727    0.00001934
     atom   95 type  1   force =    -0.00002218    0.00000738    0.00001967
     atom   96 type  1   force =     0.00002218   -0.00000738   -0.00001967
     atom   97 type  1   force =     0.00001706    0.00001782    0.00002431
     atom   98 type  1   force =    -0.00001706   -0.00001782   -0.00002431
     atom   99 type  1   force =     0.00002743    0.00000825   -0.00000451
     atom  100 type  1   force =    -0.00002743   -0.00000825    0.00000451
     atom  101 type  1   force =     0.00000219    0.00002416    0.00001695
     atom  102 type  1   force =    -0.00000219   -0.00002416   -0.00001695
     atom  103 type  1   force =     0.00006220   -0.00004245    0.00006141
     atom  104 type  1   force =    -0.00006220    0.00004245   -0.00006141
     atom  105 type  1   force =     0.00005764    0.00002464   -0.00003970
     atom  106 type  1   force =    -0.00005764   -0.00002464    0.00003970
     atom  107 type  1   force =     0.00000305    0.00006454    0.00003478
     atom  108 type  1   force =    -0.00000305   -0.00006454   -0.00003478

     Total force =     0.000745     Total SCF correction =     0.000201
     SCF correction compared to forces is large: reduce conv_thr to get better values


     Computing stress (Cartesian axis) and pressure


     negative rho (up, down):  5.014E-04 0.000E+00
          total   stress  (Ry/bohr**3)                   (kbar)     P=       -0.01
   0.00000001   0.00000007   0.00000004            0.00        0.01        0.01
   0.00000007  -0.00000009   0.00000002            0.01       -0.01        0.00
   0.00000004   0.00000002  -0.00000009            0.01        0.00       -0.01


     BFGS Geometry Optimization
     Energy error            =      0.0E+00 Ry
     Gradient error          =      1.1E-04 Ry/Bohr
     Cell gradient error     =      1.3E-02 kbar

     number of scf cycles    =   1
     number of bfgs steps    =   0

     enthalpy           new  =   -4009.1719761669 Ry

     new trust radius        =       0.0001161603 bohr
     new conv_thr            =       0.0000000100 Ry

     new unit-cell volume =  15295.21703 a.u.^3 (  2266.51732 Ang^3 )
     density =      1.19274 g/cm^3

CELL_PARAMETERS (alat= 27.59009591)
   0.997473220  -0.000034596  -0.000024455
   0.473143812   0.878115831  -0.000024439
   0.473144095   0.282506565   0.831431796

ATOMIC_POSITIONS (crystal)
Zr               0.8730215350        0.1188228495        0.1223482353
Zr               0.1269784650        0.8811761505        0.8776517647
Zr               0.1223486757        0.8730214176        0.1188224486
Zr               0.8776513243        0.1269785824        0.8811765514
Zr               0.1188227520        0.1223487183        0.8730211083
Zr               0.8811762480        0.8776512817        0.1269788917
O                0.9192936668        0.2615938065        0.0849660115
O                0.0807063332        0.7384061935        0.9150339885
O                0.0849654221        0.9192934185        0.2615943532
O                0.9150345779        0.0807065815        0.7384056468
O                0.2615945073        0.0849656956        0.9192933646
O                0.7384054927        0.9150343044        0.0807066354
O                0.7550095032        0.0535429266        0.9178507677
O                0.2449904968        0.9464570734        0.0821492323
O                0.9178514297        0.7550083111        0.0535435473
O                0.0821485703        0.2449916889        0.9464564527
O                0.0535430555        0.9178512011        0.7550085492
O                0.9464569445        0.0821487989        0.2449914508
O                0.2660954042        0.9227639386        0.7335665569
O                0.7339045958        0.0772360614        0.2664334431
O                0.7335663742        0.2660954444        0.9227638130
O                0.2664336258        0.7339045556        0.0772361870
O                0.9227643348        0.7335663509        0.2660954437
O                0.0772356652        0.2664336491        0.7339045563
O                0.0839796184        0.7267371159        0.2588716983
O                0.9160203816        0.2732628841        0.7411283017
O                0.2588725991        0.0839782426        0.7267366093
O                0.7411274009        0.9160217574        0.2732633907
O                0.7267367779        0.2588722661        0.0839783422
O                0.2732632221        0.7411277339        0.9160216578
O                0.8361944618        0.0445024646        0.0478154371
O                0.1638055382        0.9554975354        0.9521845629
O                0.0478154987        0.8361945223        0.0445023931
O                0.9521845013        0.1638054777        0.9554976069
O                0.0445021067        0.0478153780        0.8361947137
O                0.9554978933        0.9521846220        0.1638052863
C                0.6972025628        0.9966788173        0.3094075792
C                0.3027974372        0.0033211827        0.6905924208
C                0.3094079782        0.6972022971        0.9966784984
C                0.6905920218        0.3027977029        0.0033215016
C                0.9966797424        0.3094081791        0.6972017924
C                0.0033202576        0.6905918209        0.3027982076
C                0.0000893711        0.7043602003        0.9878590473
C                0.9999106289        0.2956397997        0.0121409527
C                0.9878580180        0.0000908629        0.7043601351
C                0.0121419820        0.9999091371        0.2956398649
C                0.7043600572        0.9878571767        0.0000913954
C                0.2956399428        0.0121428233        0.9999086046
C                0.9998035582        0.4015548210        0.0051921360
C                0.0001964418        0.5984451790        0.9948078640
C                0.0051899330        0.9998062860        0.4015546992
C                0.9948100670        0.0001937140        0.5984453008
C                0.4015546670        0.0051917519        0.9998042034
C                0.5984453330        0.9948082481        0.0001957966
C                0.4043246537        0.0019058553        0.5918438665
C                0.5956753463        0.9980941447        0.4081561335
C                0.5918441639        0.4043244103        0.0019041420
C                0.4081558361        0.5956755897        0.9980958580
C                0.0019043457        0.5918442854        0.4043245526
C                0.9980956543        0.4081557146        0.5956754474
C                0.9097095881        0.4627767752        0.0721580519
C                0.0902904119        0.5372232248        0.9278419481
C                0.0721595274        0.9097072573        0.4627773955
C                0.9278404726        0.0902927427        0.5372226045
C                0.4627771338        0.0721583262        0.9097086121
C                0.5372228662        0.9278416738        0.0902913879
C                0.5605586488        0.0669512734        0.9098253776
C                0.4394413512        0.9330487266        0.0901746224
C                0.9098251655        0.5605577044        0.0669522975
C                0.0901748345        0.4394422956        0.9330477025
C                0.0669500798        0.9098273545        0.5605582681
C                0.9330499202        0.0901726455        0.4394417319
C                0.4570520664        0.9134008557        0.5506325274
C                0.5429479336        0.0865991443        0.4493674726
C                0.5506322266        0.4570524034        0.9134020613
C                0.4493677734        0.5429475966        0.0865979387
C                0.9134016774        0.5506327539        0.4570517933
C                0.0865983226        0.4493672461        0.5429482067
C                0.0884928761        0.5405637813        0.4479492908
C                0.9115071239        0.4594362187        0.5520507092
C                0.4479495234        0.0884915714        0.5405636658
C                0.5520504766        0.9115084286        0.4594363342
C                0.5405630032        0.4479497231        0.0884930505
C                0.4594369968        0.5520502769        0.9115069495
H                0.5912796813        0.4223889603        0.8466564220
H                0.4087203187        0.5776110397        0.1533435780
H                0.8466565120        0.5912793082        0.4223890972
H                0.1533434880        0.4087206918        0.5776109028
H                0.4223889421        0.8466567601        0.5912793727
H                0.5776110579        0.1533432399        0.4087206273
H                0.5733996186        0.4062630858        0.1566782528
H                0.4266003814        0.5937369142        0.8433217472
H                0.1566780578        0.5733999226        0.4062633451
H                0.8433219422        0.4266000774        0.5937366549
H                0.4062633526        0.1566785075        0.5733998489
H                0.5937366474        0.8433214925        0.4266001511
H                0.1278374480        0.8401173389        0.4323684533
H                0.8721625520        0.1598826611        0.5676315467
H                0.4323685305        0.1278374803        0.8401168122
H                0.5676314695        0.8721625197        0.1598831878
H                0.8401171495        0.4323673973        0.1278382615
H                0.1598828505        0.5676326027        0.8721617385
H                0.1180076416        0.8401075769        0.6091816680
H                0.8819923584        0.1598924231        0.3908183320
H                0.6091819290        0.1180068694        0.8401078956
H                0.3908180710        0.8819931306        0.1598921044
H                0.8401083587        0.6091807127        0.1180078770
H                0.1598916413        0.3908192873        0.8819921230



     Writing config-only to output data dir ./pwscf.save/ :
     XML data file
     NEW-OLD atomic charge density approx. for the potential

     Check: negative core charge=   -0.000001

     negative rho (up, down):  5.013E-04 0.000E+00

     total cpu time spent up to now is      170.2 secs

     Self-consistent Calculation

     iteration #  1     ecut=    80.00 Ry     beta= 0.70
     Davidson diagonalization with overlap
     ethr =  1.00E-06,  avg # of iterations =  2.0

     Threshold (ethr) on eigenvalues was too large:
     Diagonalizing with lowered threshold

     Davidson diagonalization with overlap
     ethr =  2.94E-11,  avg # of iterations =  9.0

     negative rho (up, down):  5.014E-04 0.000E+00

     total cpu time spent up to now is      183.3 secs

     total energy              =   -4009.17197648 Ry
     estimated scf accuracy    <       0.00000013 Ry

     iteration #  2     ecut=    80.00 Ry     beta= 0.70
     Davidson diagonalization with overlap
     ethr =  2.81E-11,  avg # of iterations =  9.0

     negative rho (up, down):  5.014E-04 0.000E+00

     total cpu time spent up to now is      189.6 secs

     total energy              =   -4009.17197650 Ry
     estimated scf accuracy    <       0.00000016 Ry

     iteration #  3     ecut=    80.00 Ry     beta= 0.70
     Davidson diagonalization with overlap
     ethr =  2.81E-11,  avg # of iterations =  9.0

     negative rho (up, down):  5.014E-04 0.000E+00

     total cpu time spent up to now is      194.4 secs

     total energy              =   -4009.17197653 Ry
     estimated scf accuracy    <       0.00000002 Ry

     iteration #  4     ecut=    80.00 Ry     beta= 0.70
     Davidson diagonalization with overlap
     ethr =  3.55E-12,  avg # of iterations =  7.0

     negative rho (up, down):  5.014E-04 0.000E+00

     total cpu time spent up to now is      199.5 secs

     End of self-consistent calculation

          k = 0.0000 0.0000 0.0000 ( 92351 PWs)   bands (ev):

   -49.6132 -49.5969 -49.5968 -49.5847 -49.5826 -49.5826 -28.1034 -28.0004
   -28.0004 -27.9068 -27.9068 -27.8986 -27.7714 -27.7264 -27.7263 -27.7197
   -27.7197 -27.6933 -27.6207 -27.6207 -27.5850 -27.5714 -27.5714 -27.5709
   -22.8370 -22.7898 -22.7897 -22.7841 -22.7840 -22.7585 -22.5842 -22.5773
   -22.5198 -22.5198 -22.5174 -22.5174 -20.5501 -20.5340 -20.5340 -20.5045
   -20.5044 -20.4688 -20.3468 -20.3468 -20.3234 -20.3234 -20.2399 -20.2358
   -17.9940 -17.7616 -17.7616 -17.5678 -17.5678 -17.5256 -17.3889 -17.3879
   -17.3879 -17.2142 -17.2141 -17.2120 -15.0470 -15.0470 -15.0376 -14.8621
   -14.8413 -14.8413 -14.4853 -14.4831 -14.4831 -14.3146 -14.3145 -14.3124
   -12.2884 -12.2523 -12.2522 -12.0954 -12.0366 -12.0365 -10.9604 -10.9603
   -10.9490 -10.7865 -10.7865 -10.7697 -10.2287 -10.2286 -10.1496 -10.0258
    -9.8536  -9.8536  -9.6121  -9.5532  -9.5532  -9.4463  -9.3769  -9.3769
    -8.7813  -8.6115  -8.5346  -8.5346  -8.3948  -8.3948  -8.3519  -8.1966
    -8.1966  -8.1474  -8.1474  -7.8683  -7.8659  -7.8659  -7.7600  -7.7600
    -7.6614  -7.6463  -7.6463  -7.6387  -7.5364  -7.3855  -7.3854  -7.2531
    -7.1513  -6.9152  -6.9151  -6.8551  -6.8336  -6.8336  -6.8322  -6.7324
    -6.7324  -6.6968  -6.6867  -6.6867  -6.6630  -6.6630  -6.6587  -6.5698
    -6.5342  -6.5341  -6.5097  -6.4519  -6.4245  -6.4245  -6.3474  -6.3474
    -6.2116  -6.1860  -6.1860  -6.0320  -6.0319  -6.0146  -5.7266  -5.6326
    -5.6326  -5.4562  -5.2474  -5.2474  -5.1313  -4.9979  -4.9554  -4.9554
    -4.8891  -4.8891  -4.8887  -4.8887  -4.8654  -4.7827  -4.7672  -4.7672
    -4.7308  -4.2495  -4.2494  -4.1968  -4.1481  -4.1476  -4.1475  -4.1425
    -4.1424  -3.9846  -3.9846  -3.9775  -3.9775  -3.9595  -3.8039  -3.6409
    -3.6409  -3.6094  -3.5174  -3.3993  -3.3703  -3.3703  -3.2960  -3.2423
    -3.2423  -3.2067  -3.1686  -3.1685  -3.0820  -3.0398  -3.0398  -2.9771
    -2.9771  -2.9207  -2.9206  -2.8155  -2.7499  -2.6817  -2.6817  -2.6802
    -2.6344  -2.6344  -2.5798  -2.5798  -2.5330  -2.5295  -2.5294  -2.4843
    -2.4246  -2.4245  -2.3896  -2.3795  -2.3780  -2.3712  -2.3712  -2.3425
    -2.3425  -2.2855  -2.2394  -2.2392  -2.1745  -2.1744  -2.1582  -1.6323
    -1.6323  -1.4970

     highest occupied level (ev):    -1.4970

!    total energy              =   -4009.17197654 Ry
     total all-electron energy =    -51389.589083 Ry
     estimated scf accuracy    <          2.6E-09 Ry

     The total energy is the sum of the following terms:
     one-electron contribution =   -6098.09235314 Ry
     hartree contribution      =    3180.54856612 Ry
     xc contribution           =    -570.38661723 Ry
     ewald contribution        =    1322.47597280 Ry
     one-center paw contrib.   =   -1843.71754509 Ry

     convergence has been achieved in   4 iterations

     negative rho (up, down):  5.014E-04 0.000E+00

     Forces acting on atoms (cartesian axes, Ry/au):

     atom    1 type  2   force =     0.00003828   -0.00000614   -0.00000518
     atom    2 type  2   force =    -0.00003828    0.00000614    0.00000518
     atom    3 type  2   force =     0.00000936    0.00003726    0.00000055
     atom    4 type  2   force =    -0.00000936   -0.00003726   -0.00000055
     atom    5 type  2   force =     0.00000764   -0.00000670    0.00003960
     atom    6 type  2   force =    -0.00000764    0.00000670   -0.00003960
     atom    7 type  4   force =    -0.00005725   -0.00000606   -0.00005038
     atom    8 type  4   force =     0.00005725    0.00000606    0.00005038
     atom    9 type  4   force =    -0.00005991   -0.00004933    0.00000989
     atom   10 type  4   force =     0.00005991    0.00004933   -0.00000989
     atom   11 type  4   force =    -0.00004614   -0.00004282   -0.00005836
     atom   12 type  4   force =     0.00004614    0.00004282    0.00005836
     atom   13 type  4   force =     0.00003807    0.00003666    0.00005979
     atom   14 type  4   force =    -0.00003807   -0.00003666   -0.00005979
     atom   15 type  4   force =     0.00006166    0.00003237    0.00004524
     atom   16 type  4   force =    -0.00006166   -0.00003237   -0.00004524
     atom   17 type  4   force =     0.00007483    0.00004062    0.00001787
     atom   18 type  4   force =    -0.00007483   -0.00004062   -0.00001787
     atom   19 type  4   force =    -0.00003614   -0.00005278   -0.00003296
     atom   20 type  4   force =     0.00003614    0.00005278    0.00003296
     atom   21 type  4   force =    -0.00005596   -0.00000439   -0.00002924
     atom   22 type  4   force =     0.00005596    0.00000439    0.00002924
     atom   23 type  4   force =    -0.00007559   -0.00002864   -0.00000117
     atom   24 type  4   force =     0.00007559    0.00002864    0.00000117
     atom   25 type  4   force =    -0.00007626    0.00004967    0.00000833
     atom   26 type  4   force =     0.00007626   -0.00004967   -0.00000833
     atom   27 type  4   force =    -0.00001048   -0.00001055    0.00007578
     atom   28 type  4   force =     0.00001048    0.00001055   -0.00007578
     atom   29 type  4   force =     0.00004374   -0.00003234   -0.00004197
     atom   30 type  4   force =    -0.00004374    0.00003234    0.00004197
     atom   31 type  4   force =    -0.00003946   -0.00001242    0.00002445
     atom   32 type  4   force =     0.00003946    0.00001242   -0.00002445
     atom   33 type  4   force =    -0.00000937   -0.00004119   -0.00001216
     atom   34 type  4   force =     0.00000937    0.00004119    0.00001216
     atom   35 type  4   force =    -0.00002066    0.00000812   -0.00003449
     atom   36 type  4   force =     0.00002066   -0.00000812    0.00003449
     atom   37 type  3   force =    -0.00001728    0.00003237    0.00000789
     atom   38 type  3   force =     0.00001728   -0.00003237   -0.00000789
     atom   39 type  3   force =     0.00000674   -0.00000590    0.00004273
     atom   40 type  3   force =    -0.00000674    0.00000590   -0.00004273
     atom   41 type  3   force =    -0.00004575   -0.00002197    0.00000406
     atom   42 type  3   force =     0.00004575    0.00002197   -0.00000406
     atom   43 type  3   force =     0.00003714   -0.00003353    0.00000206
     atom   44 type  3   force =    -0.00003714    0.00003353   -0.00000206
     atom   45 type  3   force =     0.00003090   -0.00002394   -0.00003571
     atom   46 type  3   force =    -0.00003090    0.00002394    0.00003571
     atom   47 type  3   force =    -0.00000638    0.00006130   -0.00003507
     atom   48 type  3   force =     0.00000638   -0.00006130    0.00003507
     atom   49 type  3   force =     0.00002487    0.00000078   -0.00003822
     atom   50 type  3   force =    -0.00002487   -0.00000078    0.00003822
     atom   51 type  3   force =     0.00004467   -0.00012539    0.00002260
     atom   52 type  3   force =    -0.00004467    0.00012539   -0.00002260
     atom   53 type  3   force =     0.00001124   -0.00000675   -0.00001245
     atom   54 type  3   force =    -0.00001124    0.00000675    0.00001245
     atom   55 type  3   force =    -0.00002064   -0.00008942    0.00003125
     atom   56 type  3   force =     0.00002064    0.00008942   -0.00003125
     atom   57 type  3   force =     0.00002729    0.00002422    0.00000053
     atom   58 type  3   force =    -0.00002729   -0.00002422   -0.00000053
     atom   59 type  3   force =    -0.00000185    0.00002347    0.00001971
     atom   60 type  3   force =     0.00000185   -0.00002347   -0.00001971
     atom   61 type  3   force =    -0.00001573    0.00003311    0.00000358
     atom   62 type  3   force =     0.00001573   -0.00003311   -0.00000358
     atom   63 type  3   force =    -0.00004656    0.00010244    0.00001738
     atom   64 type  3   force =     0.00004656   -0.00010244   -0.00001738
     atom   65 type  3   force =     0.00003765   -0.00002618    0.00000915
     atom   66 type  3   force =    -0.00003765    0.00002618   -0.00000915
     atom   67 type  3   force =     0.00000016    0.00003039   -0.00002459
     atom   68 type  3   force =    -0.00000016   -0.00003039    0.00002459
     atom   69 type  3   force =     0.00001651    0.00001250    0.00001296
     atom   70 type  3   force =    -0.00001651   -0.00001250   -0.00001296
     atom   71 type  3   force =     0.00006446   -0.00012890   -0.00000045
     atom   72 type  3   force =    -0.00006446    0.00012890    0.00000045
     atom   73 type  3   force =     0.00005253    0.00005519    0.00002885
     atom   74 type  3   force =    -0.00005253   -0.00005519   -0.00002885
     atom   75 type  3   force =     0.00003992   -0.00000891   -0.00002644
     atom   76 type  3   force =    -0.00003992    0.00000891    0.00002644
     atom   77 type  3   force =     0.00001654    0.00002495    0.00003103
     atom   78 type  3   force =    -0.00001654   -0.00002495   -0.00003103
     atom   79 type  3   force =     0.00000096    0.00000668    0.00000213
     atom   80 type  3   force =    -0.00000096   -0.00000668   -0.00000213
     atom   81 type  3   force =     0.00003404    0.00007180    0.00000533
     atom   82 type  3   force =    -0.00003404   -0.00007180   -0.00000533
     atom   83 type  3   force =     0.00002167   -0.00003430   -0.00000984
     atom   84 type  3   force =    -0.00002167    0.00003430    0.00000984
     atom   85 type  1   force =    -0.00000495    0.00007827   -0.00002766
     atom   86 type  1   force =     0.00000495   -0.00007827    0.00002766
     atom   87 type  1   force =    -0.00001491    0.00000127    0.00007702
     atom   88 type  1   force =     0.00001491   -0.00000127   -0.00007702
     atom   89 type  1   force =     0.00005038   -0.00005712   -0.00001956
     atom   90 type  1   force =    -0.00005038    0.00005712    0.00001956
     atom   91 type  1   force =    -0.00000273   -0.00002178   -0.00001145
     atom   92 type  1   force =     0.00000273    0.00002178    0.00001145
     atom   93 type  1   force =    -0.00001350    0.00000822   -0.00002055
     atom   94 type  1   force =     0.00001350   -0.00000822    0.00002055
     atom   95 type  1   force =    -0.00002479   -0.00002921    0.00000599
     atom   96 type  1   force =     0.00002479    0.00002921   -0.00000599
     atom   97 type  1   force =     0.00002413   -0.00005515    0.00000062
     atom   98 type  1   force =    -0.00002413    0.00005515   -0.00000062
     atom   99 type  1   force =     0.00000673    0.00001890   -0.00003104
     atom  100 type  1   force =    -0.00000673   -0.00001890    0.00003104
     atom  101 type  1   force =    -0.00000407    0.00001879    0.00001688
     atom  102 type  1   force =     0.00000407   -0.00001879   -0.00001688
     atom  103 type  1   force =     0.00003611   -0.00000557    0.00003551
     atom  104 type  1   force =    -0.00003611    0.00000557   -0.00003551
     atom  105 type  1   force =     0.00005947    0.00002841   -0.00004357
     atom  106 type  1   force =    -0.00005947   -0.00002841    0.00004357
     atom  107 type  1   force =    -0.00000309    0.00007132    0.00004520
     atom  108 type  1   force =     0.00000309   -0.00007132   -0.00004520

     Total force =     0.000687     Total SCF correction =     0.000122
     SCF correction compared to forces is large: reduce conv_thr to get better values


     Computing stress (Cartesian axis) and pressure


     negative rho (up, down):  5.014E-04 0.000E+00
          total   stress  (Ry/bohr**3)                   (kbar)     P=        0.01
   0.00000009   0.00000006   0.00000006            0.01        0.01        0.01
   0.00000006   0.00000005   0.00000004            0.01        0.01        0.01
   0.00000006   0.00000004   0.00000000            0.01        0.01        0.00

     Energy error            =      3.7E-07 Ry
     Gradient error          =      1.3E-04 Ry/Bohr
     Cell gradient error     =      1.4E-02 kbar

     number of scf cycles    =   2
     number of bfgs steps    =   1

     enthalpy           old  =   -4009.1719761669 Ry
     enthalpy           new  =   -4009.1719765375 Ry

     CASE: enthalpy          _new < enthalpy          _old

     new trust radius        =       0.0002555519 bohr
     new conv_thr            =            1.0E-10 Ry

     new unit-cell volume =  15295.19967 a.u.^3 (  2266.51475 Ang^3 )
     density =      1.19274 g/cm^3

CELL_PARAMETERS (alat= 27.59009591)
   0.997476488  -0.000030159  -0.000021057
   0.473149269   0.878116730  -0.000021110
   0.473149734   0.282509909   0.831431434

ATOMIC_POSITIONS (crystal)
Zr               0.8730276778        0.1188230833        0.1223465597
Zr               0.1269723222        0.8811759167        0.8776534403
Zr               0.1223470208        0.8730278350        0.1188226939
Zr               0.8776529792        0.1269721650        0.8811763061
Zr               0.1188230191        0.1223470558        0.8730274382
Zr               0.8811759809        0.8776529442        0.1269725618
O                0.9192914451        0.2615947693        0.0849581895
O                0.0807085549        0.7384052307        0.9150418105
O                0.0849577867        0.9192910125        0.2615953997
O                0.9150422133        0.0807089875        0.7384046003
O                0.2615953219        0.0849581028        0.9192908984
O                0.7384046781        0.9150418972        0.0807091016
O                0.7550100419        0.0535454548        0.9178581860
O                0.2449899581        0.9464545452        0.0821418140
O                0.9178584627        0.7550089306        0.0535462644
O                0.0821415373        0.2449910694        0.9464537356
O                0.0535457094        0.9178585120        0.7550092698
O                0.9464542906        0.0821414880        0.2449907302
O                0.2660967586        0.9227616107        0.7335616040
O                0.7339032414        0.0772383893        0.2664383960
O                0.7335614319        0.2660968295        0.9227614185
O                0.2664385681        0.7339031705        0.0772385815
O                0.9227614550        0.7335618108        0.2660965635
O                0.0772385450        0.2664381892        0.7339034365
O                0.0839722398        0.7267440533        0.2588706139
O                0.9160277602        0.2732559467        0.7411293861
O                0.2588709616        0.0839714492        0.7267439989
O                0.7411290384        0.9160285508        0.2732560011
O                0.7267437998        0.2588710181        0.0839713729
O                0.2732562002        0.7411289819        0.9160286271
O                0.8361891710        0.0445003885        0.0478180218
O                0.1638108290        0.9554996115        0.9521819782
O                0.0478180207        0.8361890898        0.0445003930
O                0.9521819793        0.1638109102        0.9554996070
O                0.0445001136        0.0478177981        0.8361896157
O                0.9554998864        0.9521822019        0.1638103843
C                0.6972008215        0.9966825475        0.3094064853
C                0.3027991785        0.0033174525        0.6905935147
C                0.3094068823        0.6972005169        0.9966825037
C                0.6905931177        0.3027994831        0.0033174963
C                0.9966830002        0.3094071504        0.6972000196
C                0.0033169998        0.6905928496        0.3027999804
C                0.0000914682        0.7043582826        0.9878609896
C                0.9999085318        0.2956417174        0.0121390104
C                0.9878602871        0.0000923253        0.7043582798
C                0.0121397129        0.9999076747        0.2956417202
C                0.7043582171        0.9878596573        0.0000926336
C                0.2956417829        0.0121403427        0.9999073664
C                0.9998046955        0.4015562253        0.0051901553
C                0.0001953045        0.5984437747        0.9948098447
C                0.0051895559        0.9998054953        0.4015562990
C                0.9948104441        0.0001945047        0.5984437010
C                0.4015559266        0.0051904273        0.9998046181
C                0.5984440734        0.9948095727        0.0001953819
C                0.4043271498        0.0019042595        0.5918452919
C                0.5956728502        0.9980957405        0.4081547081
C                0.5918454987        0.4043268758        0.0019036835
C                0.4081545013        0.5956731242        0.9980963165
C                0.0019035768        0.5918458097        0.4043267955
C                0.9980964232        0.4081541903        0.5956732045
C                0.9097064215        0.4627797874        0.0721576292
C                0.0902935785        0.5372202126        0.9278423708
C                0.0721578613        0.9097054596        0.4627804285
C                0.9278421387        0.0902945404        0.5372195715
C                0.4627803897        0.0721574360        0.9097057906
C                0.5372196103        0.9278425640        0.0902942094
C                0.5605598487        0.0669571805        0.9098211397
C                0.4394401513        0.9330428195        0.0901788603
C                0.9098213649        0.5605590560        0.0669576884
C                0.0901786351        0.4394409440        0.9330423116
C                0.0669566583        0.9098222506        0.5605595317
C                0.9330433417        0.0901777494        0.4394404683
C                0.4570551786        0.9134005191        0.5506350366
C                0.5429448214        0.0865994809        0.4493649634
C                0.5506350244        0.4570553368        0.9134008801
C                0.4493649756        0.5429446632        0.0865991199
C                0.9134007177        0.5506352583        0.4570550038
C                0.0865992823        0.4493647417        0.5429449962
C                0.0884925859        0.5405643799        0.4479500377
C                0.9115074141        0.4594356201        0.5520499623
C                0.4479500820        0.0884916359        0.5405643611
C                0.5520499180        0.9115083641        0.4594356389
C                0.5405639816        0.4479500956        0.0884924938
C                0.4594360184        0.5520499044        0.9115075062
H                0.5912760730        0.4223986296        0.8466524173
H                0.4087239270        0.5776013704        0.1533475827
H                0.8466524184        0.5912757923        0.4223986770
H                0.1533475816        0.4087242077        0.5776013230
H                0.4223984036        0.8466524564        0.5912759930
H                0.5776015964        0.1533475436        0.4087240070
H                0.5734012010        0.4062607693        0.1566768350
H                0.4265987990        0.5937392307        0.8433231650
H                0.1566765870        0.5734015089        0.4062610417
H                0.8433234130        0.4265984911        0.5937389583
H                0.4062611247        0.1566769215        0.5734013716
H                0.5937388753        0.8433230785        0.4265986284
H                0.1278398073        0.8401150067        0.4323699627
H                0.8721601927        0.1598849933        0.5676300373
H                0.4323701724        0.1278395747        0.8401148322
H                0.5676298276        0.8721604253        0.1598851678
H                0.8401153218        0.4323691340        0.1278402179
H                0.1598846782        0.5676308660        0.8721597821
H                0.1180119102        0.8401030208        0.6091873474
H                0.8819880898        0.1598969792        0.3908126526
H                0.6091877426        0.1180113102        0.8401030912
H                0.3908122574        0.8819886898        0.1598969088
H                0.8401033728        0.6091866551        0.1180124727
H                0.1598966272        0.3908133449        0.8819875273



     Writing config-only to output data dir ./pwscf.save/ :
     XML data file
     NEW-OLD atomic charge density approx. for the potential

     Check: negative core charge=   -0.000001

     negative rho (up, down):  5.013E-04 0.000E+00

     total cpu time spent up to now is      203.9 secs

     Self-consistent Calculation

     iteration #  1     ecut=    80.00 Ry     beta= 0.70
     Davidson diagonalization with overlap
     ethr =  1.00E-06,  avg # of iterations =  2.0

     Threshold (ethr) on eigenvalues was too large:
     Diagonalizing with lowered threshold

     Davidson diagonalization with overlap
     ethr =  6.59E-11,  avg # of iterations =  9.0

     negative rho (up, down):  5.014E-04 0.000E+00

     total cpu time spent up to now is      217.0 secs

     total energy              =   -4009.17197704 Ry
     estimated scf accuracy    <       0.00000028 Ry

     iteration #  2     ecut=    80.00 Ry     beta= 0.70
     Davidson diagonalization with overlap
     ethr =  5.96E-11,  avg # of iterations =  7.0

     negative rho (up, down):  5.014E-04 0.000E+00

     total cpu time spent up to now is      221.8 secs

     total energy              =   -4009.17197710 Ry
     estimated scf accuracy    <       0.00000006 Ry

     iteration #  3     ecut=    80.00 Ry     beta= 0.70
     Davidson diagonalization with overlap
     ethr =  1.21E-11,  avg # of iterations = 11.0

     negative rho (up, down):  5.014E-04 0.000E+00

     total cpu time spent up to now is      227.4 secs

     total energy              =   -4009.17197712 Ry
     estimated scf accuracy    <       0.00000001 Ry

     iteration #  4     ecut=    80.00 Ry     beta= 0.70
     Davidson diagonalization with overlap
     ethr =  2.96E-12,  avg # of iterations = 11.0

     negative rho (up, down):  5.014E-04 0.000E+00

     total cpu time spent up to now is      233.3 secs

     total energy              =   -4009.17197713 Ry
     estimated scf accuracy    <          2.4E-09 Ry

     iteration #  5     ecut=    80.00 Ry     beta= 0.70
     Davidson diagonalization with overlap
     ethr =  5.08E-13,  avg # of iterations =  8.0

     negative rho (up, down):  5.014E-04 0.000E+00

     total cpu time spent up to now is      239.2 secs

     total energy              =   -4009.17197713 Ry
     estimated scf accuracy    <          9.4E-10 Ry

     iteration #  6     ecut=    80.00 Ry     beta= 0.70
     Davidson diagonalization with overlap
     ethr =  2.00E-13,  avg # of iterations =  7.0

     negative rho (up, down):  5.014E-04 0.000E+00

     total cpu time spent up to now is      244.1 secs

     End of self-consistent calculation

          k = 0.0000 0.0000 0.0000 ( 92351 PWs)   bands (ev):

   -49.6130 -49.5966 -49.5966 -49.5845 -49.5824 -49.5824 -28.1031 -28.0002
   -28.0002 -27.9066 -27.9066 -27.8984 -27.7712 -27.7261 -27.7261 -27.7195
   -27.7195 -27.6931 -27.6206 -27.6206 -27.5848 -27.5713 -27.5713 -27.5708
   -22.8366 -22.7892 -22.7892 -22.7836 -22.7835 -22.7580 -22.5846 -22.5776
   -22.5203 -22.5202 -22.5178 -22.5178 -20.5495 -20.5335 -20.5334 -20.5040
   -20.5039 -20.4682 -20.3469 -20.3469 -20.3235 -20.3234 -20.2401 -20.2360
   -17.9937 -17.7613 -17.7613 -17.5676 -17.5676 -17.5255 -17.3888 -17.3878
   -17.3878 -17.2143 -17.2143 -17.2121 -15.0468 -15.0468 -15.0374 -14.8623
   -14.8415 -14.8415 -14.4852 -14.4830 -14.4830 -14.3149 -14.3149 -14.3128
   -12.2881 -12.2520 -12.2519 -12.0956 -12.0369 -12.0368 -10.9601 -10.9601
   -10.9488 -10.7868 -10.7867 -10.7700 -10.2283 -10.2282 -10.1498 -10.0254
    -9.8539  -9.8538  -9.6119  -9.5531  -9.5531  -9.4465  -9.3772  -9.3771
    -8.7810  -8.6117  -8.5342  -8.5342  -8.3950  -8.3950  -8.3514  -8.1966
    -8.1966  -8.1472  -8.1472  -7.8685  -7.8655  -7.8655  -7.7596  -7.7596
    -7.6609  -7.6466  -7.6466  -7.6390  -7.5362  -7.3858  -7.3858  -7.2536
    -7.1511  -6.9148  -6.9147  -6.8551  -6.8333  -6.8333  -6.8325  -6.7322
    -6.7322  -6.6966  -6.6868  -6.6868  -6.6628  -6.6628  -6.6586  -6.5700
    -6.5344  -6.5344  -6.5093  -6.4522  -6.4249  -6.4248  -6.3476  -6.3475
    -6.2114  -6.1859  -6.1858  -6.0324  -6.0324  -6.0151  -5.7265  -5.6324
    -5.6324  -5.4561  -5.2476  -5.2475  -5.1308  -4.9978  -4.9552  -4.9552
    -4.8891  -4.8891  -4.8886  -4.8885  -4.8652  -4.7829  -4.7673  -4.7673
    -4.7306  -4.2494  -4.2494  -4.1968  -4.1480  -4.1475  -4.1474  -4.1425
    -4.1424  -3.9844  -3.9844  -3.9779  -3.9779  -3.9600  -3.8034  -3.6408
    -3.6408  -3.6090  -3.5173  -3.3994  -3.3699  -3.3699  -3.2957  -3.2424
    -3.2424  -3.2067  -3.1684  -3.1684  -3.0817  -3.0395  -3.0395  -2.9768
    -2.9768  -2.9206  -2.9206  -2.8150  -2.7500  -2.6813  -2.6813  -2.6798
    -2.6343  -2.6342  -2.5797  -2.5797  -2.5329  -2.5295  -2.5295  -2.4843
    -2.4244  -2.4244  -2.3894  -2.3796  -2.3778  -2.3711  -2.3711  -2.3424
    -2.3423  -2.2857  -2.2396  -2.2395  -2.1748  -2.1747  -2.1585  -1.6322
    -1.6322  -1.4969

     highest occupied level (ev):    -1.4969

!    total energy              =   -4009.17197713 Ry
     total all-electron energy =    -51389.589084 Ry
     estimated scf accuracy    <          6.2E-11 Ry

     The total energy is the sum of the following terms:
     one-electron contribution =   -6098.15408276 Ry
     hartree contribution      =    3180.58042952 Ry
     xc contribution           =    -570.38642994 Ry
     ewald contribution        =    1322.50563504 Ry
     one-center paw contrib.   =   -1843.71752899 Ry

     convergence has been achieved in   6 iterations

     negative rho (up, down):  5.014E-04 0.000E+00

     Forces acting on atoms (cartesian axes, Ry/au):

     atom    1 type  2   force =    -0.00005078   -0.00000991    0.00001073
     atom    2 type  2   force =     0.00005078    0.00000991   -0.00001073
     atom    3 type  2   force =    -0.00002134   -0.00005033   -0.00000931
     atom    4 type  2   force =     0.00002134    0.00005033    0.00000931
     atom    5 type  2   force =    -0.00003736   -0.00000942   -0.00004091
     atom    6 type  2   force =     0.00003736    0.00000942    0.00004091
     atom    7 type  4   force =    -0.00003402    0.00004304    0.00000351
     atom    8 type  4   force =     0.00003402   -0.00004304   -0.00000351
     atom    9 type  4   force =     0.00000489   -0.00005389    0.00003590
     atom   10 type  4   force =    -0.00000489    0.00005389   -0.00003590
     atom   11 type  4   force =     0.00001491   -0.00000186   -0.00006479
     atom   12 type  4   force =    -0.00001491    0.00000186    0.00006479
     atom   13 type  4   force =    -0.00001368    0.00003026   -0.00000468
     atom   14 type  4   force =     0.00001368   -0.00003026    0.00000468
     atom   15 type  4   force =    -0.00001064    0.00000751    0.00005015
     atom   16 type  4   force =     0.00001064   -0.00000751   -0.00005015
     atom   17 type  4   force =     0.00003450   -0.00002452   -0.00001116
     atom   18 type  4   force =    -0.00003450    0.00002452    0.00001116
     atom   19 type  4   force =    -0.00004124   -0.00004991   -0.00001417
     atom   20 type  4   force =     0.00004124    0.00004991    0.00001417
     atom   21 type  4   force =    -0.00004413   -0.00001780   -0.00003566
     atom   22 type  4   force =     0.00004413    0.00001780    0.00003566
     atom   23 type  4   force =    -0.00005555   -0.00002284   -0.00000123
     atom   24 type  4   force =     0.00005555    0.00002284    0.00000123
     atom   25 type  4   force =    -0.00005904    0.00003828    0.00001565
     atom   26 type  4   force =     0.00005904   -0.00003828   -0.00001565
     atom   27 type  4   force =    -0.00000076   -0.00002686    0.00004771
     atom   28 type  4   force =     0.00000076    0.00002686   -0.00004771
     atom   29 type  4   force =     0.00002956   -0.00001627   -0.00004187
     atom   30 type  4   force =    -0.00002956    0.00001627    0.00004187
     atom   31 type  4   force =     0.00002299    0.00000078    0.00000665
     atom   32 type  4   force =    -0.00002299   -0.00000078   -0.00000665
     atom   33 type  4   force =     0.00001299    0.00001908    0.00000323
     atom   34 type  4   force =    -0.00001299   -0.00001908   -0.00000323
     atom   35 type  4   force =     0.00001607    0.00000968    0.00001652
     atom   36 type  4   force =    -0.00001607   -0.00000968   -0.00001652
     atom   37 type  3   force =     0.00000092    0.00001554   -0.00002041
     atom   38 type  3   force =    -0.00000092   -0.00001554    0.00002041
     atom   39 type  3   force =    -0.00001447    0.00002037    0.00002932
     atom   40 type  3   force =     0.00001447   -0.00002037   -0.00002932
     atom   41 type  3   force =    -0.00001116   -0.00004381    0.00003452
     atom   42 type  3   force =     0.00001116    0.00004381   -0.00003452
     atom   43 type  3   force =     0.00005603   -0.00001953    0.00002712
     atom   44 type  3   force =    -0.00005603    0.00001953   -0.00002712
     atom   45 type  3   force =     0.00005649    0.00000855   -0.00003022
     atom   46 type  3   force =    -0.00005649   -0.00000855    0.00003022
     atom   47 type  3   force =     0.00002017    0.00006839    0.00000525
     atom   48 type  3   force =    -0.00002017   -0.00006839   -0.00000525
     atom   49 type  3   force =    -0.00000674    0.00001200   -0.00002265
     atom   50 type  3   force =     0.00000674   -0.00001200    0.00002265
     atom   51 type  3   force =     0.00000136   -0.00005703    0.00001840
     atom   52 type  3   force =    -0.00000136    0.00005703   -0.00001840
     atom   53 type  3   force =     0.00001522   -0.00002263   -0.00001052
     atom   54 type  3   force =    -0.00001522    0.00002263    0.00001052
     atom   55 type  3   force =    -0.00001903   -0.00005731    0.00005397
     atom   56 type  3   force =     0.00001903    0.00005731   -0.00005397
     atom   57 type  3   force =     0.00002933   -0.00000735   -0.00003489
     atom   58 type  3   force =    -0.00002933    0.00000735    0.00003489
     atom   59 type  3   force =    -0.00001649    0.00003841    0.00001002
     atom   60 type  3   force =     0.00001649   -0.00003841   -0.00001002
[...]
     atom    3 type  2   force =     0.00002526    0.00004043   -0.00001209
     atom    4 type  2   force =    -0.00002526   -0.00004043    0.00001209
     atom    5 type  2   force =     0.00001430    0.00002553    0.00003830
     atom    6 type  2   force =    -0.00001430   -0.00002553   -0.00003830
     atom    7 type  4   force =     0.00001107   -0.00001861    0.00003298
     atom    8 type  4   force =    -0.00001107    0.00001861   -0.00003298
     atom    9 type  4   force =     0.00002799   -0.00000547   -0.00002556
     atom   10 type  4   force =    -0.00002799    0.00000547    0.00002556
     atom   11 type  4   force =    -0.00001495    0.00003874    0.00000448
     atom   12 type  4   force =     0.00001495   -0.00003874   -0.00000448
     atom   13 type  4   force =     0.00001282    0.00000331    0.00000613
     atom   14 type  4   force =    -0.00001282   -0.00000331   -0.00000613
     atom   15 type  4   force =     0.00000973    0.00000353   -0.00000293
     atom   16 type  4   force =    -0.00000973   -0.00000353    0.00000293
     atom   17 type  4   force =     0.00000631    0.00000958    0.00000428
     atom   18 type  4   force =    -0.00000631   -0.00000958   -0.00000428
     atom   19 type  4   force =    -0.00004802   -0.00003973    0.00000831
     atom   20 type  4   force =     0.00004802    0.00003973   -0.00000831
     atom   21 type  4   force =    -0.00002691   -0.00003428   -0.00003558
     atom   22 type  4   force =     0.00002691    0.00003428    0.00003558
     atom   23 type  4   force =    -0.00005098   -0.00000120   -0.00002251
     atom   24 type  4   force =     0.00005098    0.00000120    0.00002251
     atom   25 type  4   force =     0.00002994    0.00001673    0.00003567
     atom   26 type  4   force =    -0.00002994   -0.00001673   -0.00003567
     atom   27 type  4   force =     0.00005058   -0.00000394   -0.00000346
     atom   28 type  4   force =    -0.00005058    0.00000394    0.00000346
     atom   29 type  4   force =     0.00002524    0.00004267    0.00000273
     atom   30 type  4   force =    -0.00002524   -0.00004267   -0.00000273
     atom   31 type  4   force =    -0.00003349   -0.00003225   -0.00002258
     atom   32 type  4   force =     0.00003349    0.00003225    0.00002258
     atom   33 type  4   force =    -0.00004271   -0.00001376   -0.00002458
     atom   34 type  4   force =     0.00004271    0.00001376    0.00002458
     atom   35 type  4   force =    -0.00005008   -0.00002335   -0.00000508
     atom   36 type  4   force =     0.00005008    0.00002335    0.00000508
     atom   37 type  3   force =     0.00005833   -0.00000994   -0.00003278
     atom   38 type  3   force =    -0.00005833    0.00000994    0.00003278
     atom   39 type  3   force =     0.00000286    0.00006726    0.00000713
     atom   40 type  3   force =    -0.00000286   -0.00006726   -0.00000713
     atom   41 type  3   force =     0.00003264   -0.00001027    0.00006106
     atom   42 type  3   force =    -0.00003264    0.00001027   -0.00006106
     atom   43 type  3   force =     0.00001873    0.00000963   -0.00000040
     atom   44 type  3   force =    -0.00001873   -0.00000963    0.00000040
     atom   45 type  3   force =     0.00001193    0.00000743    0.00001167
     atom   46 type  3   force =    -0.00001193   -0.00000743   -0.00001167
     atom   47 type  3   force =     0.00000741    0.00000159    0.00000914
     atom   48 type  3   force =    -0.00000741   -0.00000159   -0.00000914
     atom   49 type  3   force =     0.00000085    0.00000098    0.00002609
     atom   50 type  3   force =    -0.00000085   -0.00000098   -0.00002609
     atom   51 type  3   force =     0.00003718   -0.00005228   -0.00000686
     atom   52 type  3   force =    -0.00003718    0.00005228    0.00000686
     atom   53 type  3   force =    -0.00000778    0.00002442   -0.00000298
     atom   54 type  3   force =     0.00000778   -0.00002442    0.00000298
     atom   55 type  3   force =    -0.00001471    0.00003080    0.00004350
     atom   56 type  3   force =     0.00001471   -0.00003080   -0.00004350
     atom   57 type  3   force =     0.00003332   -0.00003944    0.00000363
     atom   58 type  3   force =    -0.00003332    0.00003944   -0.00000363
     atom   59 type  3   force =     0.00003158    0.00002213   -0.00002389
     atom   60 type  3   force =    -0.00003158   -0.00002213    0.00002389
     atom   61 type  3   force =     0.00000023   -0.00001252   -0.00001317
     atom   62 type  3   force =    -0.00000023    0.00001252    0.00001317
     atom   63 type  3   force =    -0.00002386    0.00004020   -0.00000263
     atom   64 type  3   force =     0.00002386   -0.00004020    0.00000263
     atom   65 type  3   force =     0.00000739   -0.00001023    0.00000368
     atom   66 type  3   force =    -0.00000739    0.00001023   -0.00000368
     atom   67 type  3   force =    -0.00001736    0.00002869    0.00001263
     atom   68 type  3   force =     0.00001736   -0.00002869   -0.00001263
     atom   69 type  3   force =     0.00001247   -0.00001115    0.00002473
     atom   70 type  3   force =    -0.00001247    0.00001115   -0.00002473
     atom   71 type  3   force =     0.00003083   -0.00002967   -0.00002609
     atom   72 type  3   force =    -0.00003083    0.00002967    0.00002609
     atom   73 type  3   force =    -0.00000997   -0.00000248    0.00000818
     atom   74 type  3   force =     0.00000997    0.00000248   -0.00000818
     atom   75 type  3   force =     0.00000015   -0.00000141    0.00000126
     atom   76 type  3   force =    -0.00000015    0.00000141   -0.00000126
     atom   77 type  3   force =    -0.00000565    0.00000723   -0.00001224
     atom   78 type  3   force =     0.00000565   -0.00000723    0.00001224
     atom   79 type  3   force =    -0.00003039    0.00000024    0.00000053
     atom   80 type  3   force =     0.00003039   -0.00000024   -0.00000053
     atom   81 type  3   force =     0.00000131   -0.00000614   -0.00000961
     atom   82 type  3   force =    -0.00000131    0.00000614    0.00000961
     atom   83 type  3   force =    -0.00000903    0.00001212    0.00000105
     atom   84 type  3   force =     0.00000903   -0.00001212   -0.00000105
     atom   85 type  1   force =     0.00001615   -0.00001463   -0.00001136
     atom   86 type  1   force =    -0.00001615    0.00001463    0.00001136
     atom   87 type  1   force =    -0.00000583    0.00002025   -0.00000801
     atom   88 type  1   force =     0.00000583   -0.00002025    0.00000801
     atom   89 type  1   force =    -0.00000222   -0.00000297    0.00002163
     atom   90 type  1   force =     0.00000222    0.00000297   -0.00002163
     atom   91 type  1   force =    -0.00000181    0.00000807    0.00002781
     atom   92 type  1   force =     0.00000181   -0.00000807   -0.00002781
     atom   93 type  1   force =     0.00003079   -0.00001406   -0.00000416
     atom   94 type  1   force =    -0.00003079    0.00001406    0.00000416
     atom   95 type  1   force =     0.00000609    0.00002381   -0.00001315
     atom   96 type  1   force =    -0.00000609   -0.00002381    0.00001315
     atom   97 type  1   force =     0.00001641   -0.00004934    0.00000992
     atom   98 type  1   force =    -0.00001641    0.00004934   -0.00000992
     atom   99 type  1   force =     0.00000645    0.00001194   -0.00004076
     atom  100 type  1   force =    -0.00000645   -0.00001194    0.00004076
     atom  101 type  1   force =    -0.00002562    0.00002402    0.00002353
     atom  102 type  1   force =     0.00002562   -0.00002402   -0.00002353
     atom  103 type  1   force =     0.00001318    0.00001398    0.00000624
     atom  104 type  1   force =    -0.00001318   -0.00001398   -0.00000624
     atom  105 type  1   force =     0.00002180    0.00001037    0.00000463
     atom  106 type  1   force =    -0.00002180   -0.00001037   -0.00000463
     atom  107 type  1   force =     0.00001803    0.00001156    0.00000611
     atom  108 type  1   force =    -0.00001803   -0.00001156   -0.00000611

     Total force =     0.000420     Total SCF correction =     0.000012


     Computing stress (Cartesian axis) and pressure


     negative rho (up, down):  5.013E-04 0.000E+00
          total   stress  (Ry/bohr**3)                   (kbar)     P=       -0.01
  -0.00000008  -0.00000002  -0.00000002           -0.01       -0.00       -0.00
  -0.00000002  -0.00000005  -0.00000001           -0.00       -0.01       -0.00
  -0.00000002  -0.00000001  -0.00000004           -0.00       -0.00       -0.01

     Energy error            =      2.8E-07 Ry
     Gradient error          =      6.7E-05 Ry/Bohr
     Cell gradient error     =      1.1E-02 kbar

     number of scf cycles    =  50
     number of bfgs steps    =  49

     enthalpy           old  =   -4009.1719913199 Ry
     enthalpy           new  =   -4009.1719915953 Ry

     CASE: enthalpy          _new < enthalpy          _old

     new trust radius        =       0.0021818722 bohr

     The maximum number of steps has been reached.

     End of BFGS Geometry Optimization
     new unit-cell volume =  15298.80393 a.u.^3 (  2267.04885 Ang^3 )
     density =      1.19246 g/cm^3

CELL_PARAMETERS (alat= 27.59009591)
   0.997656168   0.000095702   0.000068504
   0.473345301   0.878216046   0.000068594
   0.473345269   0.282627066   0.831497764

ATOMIC_POSITIONS (crystal)
Zr               0.8729958110        0.1189841504        0.1221780609
Zr               0.1270041890        0.8810148496        0.8778219391
Zr               0.1221787041        0.8729958200        0.1189839702
Zr               0.8778212959        0.1270041800        0.8810150298
Zr               0.1189839803        0.1221784413        0.8729949029
Zr               0.8810150197        0.8778215587        0.1270050971
O                0.9195846172        0.2615159559        0.0847026851
O                0.0804153828        0.7384840441        0.9152973149
O                0.0847029501        0.9195836515        0.2615166069
O                0.9152970499        0.0804163485        0.7384833931
O                0.2615178016        0.0847026524        0.9195811640
O                0.7384821984        0.9152973476        0.0804188360
O                0.7547421967        0.0540721708        0.9177387880
O                0.2452578033        0.9459278292        0.0822612120
O                0.9177381806        0.7547406622        0.0540752699
O                0.0822618194        0.2452593378        0.9459247301
O                0.0540741369        0.9177387061        0.7547409054
O                0.9459258631        0.0822612939        0.2452590946
O                0.2664020399        0.9222894929        0.7338159897
O                0.7335979601        0.0777105071        0.2661840103
O                0.7338158974        0.2664007410        0.9222904277
O                0.2661841026        0.7335992590        0.0777095723
O                0.9222917792        0.7338154976        0.2664014996
O                0.0777082208        0.2661845024        0.7335985004
O                0.0835564005        0.7269464893        0.2590437891
O                0.9164435995        0.2730535107        0.7409562109
O                0.2590427038        0.0835550916        0.7269459588
O                0.7409572962        0.9164449084        0.2730540412
O                0.7269467072        0.2590437267        0.0835544184
O                0.2730532928        0.7409562733        0.9164455816
O                0.8362017709        0.0446575631        0.0476600202
O                0.1637982291        0.9553424369        0.9523399798
O                0.0476602925        0.8362015390        0.0446579369
O                0.9523397075        0.1637984610        0.9553420631
O                0.0446578725        0.0476602482        0.8362014528
O                0.9553421275        0.9523397518        0.1637985472
C                0.6969801251        0.9971102978        0.3091880519
C                0.3030198749        0.0028897022        0.6908119481
C                0.3091877256        0.6969801100        0.9971093563
C                0.6908122744        0.3030198900        0.0028906437
C                0.9971097822        0.3091876915        0.6969797941
C                0.0028902178        0.6908123085        0.3030202059
C               -0.0000831825        0.7042734335        0.9882160503
C                1.0000831825        0.2957265665        0.0117839497
C                0.9882158471       -0.0000822208        0.7042728461
C                0.0117841529        1.0000822208        0.2957271539
C                0.7042727496        0.9882161900       -0.0000824253
C                0.2957272504        0.0117838100        1.0000824253
C                0.9998790803        0.4016109038        0.0049955349
C                0.0001209197        0.5983890962        0.9950044651
C                0.0049951900        0.9998786694        0.4016113230
C                0.9950048100        0.0001213306        0.5983886770
C                0.4016109661        0.0049952187        0.9998785906
C                0.5983890339        0.9950047813        0.0001214094
C                0.4044678321        0.0016294830        0.5919881128
C                0.5955321679        0.9983705170        0.4080118872
C                0.5919884022        0.4044677143        0.0016298799
C                0.4080115978        0.5955322857        0.9983701201
C                0.0016302393        0.5919881853        0.4044679682
C                0.9983697607        0.4080118147        0.5955320318
C                0.9098292231        0.4626150745        0.0721976028
C                0.0901707769        0.5373849255        0.9278023972
C                0.0721967401        0.9098281289        0.4626165065
C                0.9278032599        0.0901718711        0.5373834935
C                0.4626170697        0.0721963023        0.9098279133
C                0.5373829303        0.9278036977        0.0901720867
C                0.5603328770        0.0671903999        0.9098677968
C                0.4396671230        0.9328096001        0.0901322032
C                0.9098682121        0.5603319228        0.0671920193
C                0.0901317879        0.4396680772        0.9328079807
C                0.0671910965        0.9098680234        0.5603324065
C                0.9328089035        0.0901319766        0.4396675935
C                0.4577244378        0.9128619774        0.5510986638
C                0.5422755622        0.0871380226        0.4489013362
C                0.5510992969        0.4577246862        0.9128617805
C                0.4489007031        0.5422753138        0.0871382195
C                0.9128630680        0.5510997405        0.4577234250
C                0.0871369320        0.4489002595        0.5422765750
C                0.0887500241        0.5402488859        0.4474188996
C                0.9112499759        0.4597511141        0.5525811004
C                0.4474176467        0.0887486997        0.5402501467
C                0.5525823533        0.9112513003        0.4597498533
C                0.5402493524        0.4474178435        0.0887490465
C                0.4597506476        0.5525821565        0.9112509535
H                0.5920924965        0.4236069846        0.8456879686
H                0.4079075035        0.5763930154        0.1543120314
H                0.8456891659        0.5920934619        0.4236046318
H                0.1543108341        0.4079065381        0.5763953682
H                0.4236065385        0.8456884555        0.5920909244
H                0.5763934615        0.1543115445        0.4079090756
H                0.5728612531        0.4052904369        0.1571244493
H                0.4271387469        0.5947095631        0.8428755507
H                0.1571253332        0.5728602736        0.4052926123
H                0.8428746668        0.4271397264        0.5947073877
H                0.4052906482        0.1571240299        0.5728617738
H                0.5947093518        0.8428759701        0.4271382262
H                0.1279176611        0.8403255486        0.4320843780
H                0.8720823389        0.1596744514        0.5679156220
H                0.4320845887        0.1279173274        0.8403255258
H                0.5679154113        0.8720826726        0.1596744742
H                0.8403277263        0.4320815733        0.1279197276
H                0.1596722737        0.5679184267        0.8720802724
H                0.1184420016        0.8401783689        0.6087737040
H                0.8815579984        0.1598216311        0.3912262960
H                0.6087746783        0.1184405998        0.8401773421
H                0.3912253217        0.8815594002        0.1598226579
H                0.8401784096        0.6087721488        0.1184432398
H                0.1598215904        0.3912278512        0.8815567602



     Writing config-only to output data dir ./pwscf.save/ :
     XML data file
     NEW-OLD atomic charge density approx. for the potential

     Check: negative core charge=   -0.000001

     negative rho (up, down):  5.014E-04 0.000E+00

     Writing all to output data dir ./pwscf.save/ :
     XML data file, charge density, pseudopotentials, collected wavefunctions

     init_run     :      3.45s CPU      4.03s WALL (       1 calls)
     electrons    :   2977.93s CPU   3046.59s WALL (      50 calls)
     update_pot   :      5.43s CPU      5.91s WALL (      50 calls)
     forces       :     65.92s CPU     67.98s WALL (      50 calls)
     stress       :    115.82s CPU    116.58s WALL (      50 calls)

     Called by init_run:
     wfcinit      :      1.96s CPU      2.05s WALL (       1 calls)
     potinit      :      0.21s CPU      0.26s WALL (       1 calls)
     hinit0       :      0.46s CPU      0.62s WALL (       1 calls)

     Called by electrons:
     c_bands      :   2654.61s CPU   2707.20s WALL (     559 calls)
     sum_band     :    220.55s CPU    227.50s WALL (     559 calls)
     v_of_rho     :     13.67s CPU     15.34s WALL (     561 calls)
     newd         :     57.10s CPU     59.08s WALL (     561 calls)
     PAW_pot      :     33.00s CPU     35.49s WALL (     611 calls)
     mix_rho      :      4.52s CPU      4.55s WALL (     559 calls)

     Called by c_bands:
     init_us_2    :      5.08s CPU      6.33s WALL (    1169 calls)
     regterg      :   2649.07s CPU   2700.05s WALL (     559 calls)

     Called by *egterg:
     rdiaghg      :    408.61s CPU    412.92s WALL (    4484 calls)
     h_psi        :   1176.90s CPU   1204.48s WALL (    4583 calls)
     s_psi        :    412.14s CPU    412.62s WALL (    4583 calls)
     g_psi        :      0.52s CPU      0.53s WALL (    4023 calls)

     Called by h_psi:
     h_psi:calbec :    445.62s CPU    462.27s WALL (    4583 calls)
     vloc_psi     :    315.10s CPU    325.44s WALL (    4583 calls)
     vloc_psi:tg_ :      1.14s CPU      1.16s WALL (    4583 calls)
     add_vuspsi   :    414.51s CPU    415.12s WALL (    4583 calls)

     General routines
     calbec       :    639.58s CPU    662.56s WALL (    5442 calls)
     fft          :     17.15s CPU     18.18s WALL (    7170 calls)
     ffts         :      1.79s CPU      1.82s WALL (    1120 calls)
     fftw         :    344.95s CPU    356.43s WALL (  518843 calls)
     interpolate  :      2.30s CPU      2.32s WALL (     561 calls)

     Parallel routines
     fft_scatt_xy :     14.66s CPU     15.03s WALL (  527133 calls)
     fft_scatt_yz :    300.48s CPU    311.59s WALL (  527133 calls)
     fft_scatt_tg :      1.30s CPU      1.34s WALL (  518843 calls)

     PWSCF        :  53m16.42s CPU  54m31.35s WALL


   This run was terminated on:   9:56:31   3Jun2025            

=------------------------------------------------------------------------------=
   JOB DONE.
=------------------------------------------------------------------------------=
