
                                 *****************
                                 * O   R   C   A *
                                 *****************

                                            #,                                       
                                            ###                                      
                                            ####                                     
                                            #####                                    
                                            ######                                   
                                           ########,                                 
                                     ,,################,,,,,                         
                               ,,#################################,,                 
                          ,,##########################################,,             
                       ,#########################################, ''#####,          
                    ,#############################################,,   '####,        
                  ,##################################################,,,,####,       
                ,###########''''           ''''###############################       
              ,#####''   ,,,,##########,,,,          '''####'''          '####       
            ,##' ,,,,###########################,,,                        '##       
           ' ,,###''''                  '''############,,,                           
         ,,##''                                '''############,,,,        ,,,,,,###''
      ,#''                                            '''#######################'''  
     '                                                          ''''####''''         
             ,#######,   #######,   ,#######,      ##                                
            ,#'     '#,  ##    ##  ,#'     '#,    #''#        ,####,    ,#,          
            ##       ##  ##   ,#'  ##            #'  '#       #'       ,# #          
            ##       ##  #######   ##           ,######,      #####,      #          
            '#,     ,#'  ##    ##  '#,     ,#' ,#      #,     #,   #      #          
             '#######'   ##     ##  '#######'  #'      '#     '####' #    #          



                #########################################################
                #                        -***-                          #
                #          Department of theory and spectroscopy        #
                #                                                       #
                #                      Frank Neese                      #
                #                                                       #
                #     Directorship, Architecture, Infrastructure        #
                #                    SHARK, DRIVERS                     #
                #        Core code/Algorithms in most modules           #
                #                                                       #
                #        Max Planck Institute fuer Kohlenforschung      #
                #                Kaiser Wilhelm Platz 1                 #
                #                 D-45470 Muelheim/Ruhr                 #
                #                      Germany                          #
                #                                                       #
                #                  All rights reserved                  #
                #                        -***-                          #
                #########################################################


                         Program Version 6.1.0  -  RELEASE   -
                                (GIT: $679e74b$)
                          ($2025-06-10 18:02:51 +0200$)


 With contributions from (in alphabetic order):
[Max-Planck-Institut fuer Kohlenforschung]                               
  Daniel Aravena         : Magnetic Suceptibility                        
  Michael Atanasov       : Ab Initio Ligand Field Theory (pilot matlab implementation)
  Alexander A. Auer      : GIAO ZORA, VPT2 properties, NMR spectrum      
  Ute Becker             : All parallelization in ORCA, NUMFREQ, NUMCALC 
  Giovanni Bistoni       : ED, misc. LED, open-shell LED, HFLD           
  Dmytro Bykov           : pre 5.0 version of the SCF Hessian            
  Marcos Casanova-Páez   : Triplet and SCS-CIS(D). UHF-(DLPNO)-IP/EA/STEOM-CCSD. UHF-CVS-IP/STEOM-CCSD   
  Vijay G. Chilkuri      : MRCI spin determinant printing, contributions to CSF-ICE 
  Pauline Colinet        : FMM embedding                                 
  Dipayan Datta          : RHF DLPNO-CCSD density                        
  Achintya Kumar Dutta   : EOM-CC, STEOM-CC                              
  Nicolas Foglia         : Exact transition moments, OPA infrastructure, MCD improvements    
  Dmitry Ganyushin       : Spin-Orbit,Spin-Spin,Magnetic field MRCI      
  Miquel Garcia-Rates    : C-PCM and meta-GGA Hessian, CCSD/C-PCM, Gaussian charge scheme 
  Tiago L. C. Gouveia    : GS-ROHF, GS-ROCIS                             
  Yang Guo               : DLPNO-NEVPT2, F12-NEVPT2, CIM, IAO-localization        
  Andreas Hansen         : Spin unrestricted coupled pair/coupled cluster methods 
  Ingolf Harden          : AUTO-CI MPn and infrastructure                
  Benjamin Helmich-Paris : MC-RPA, TRAH-(SCF,CASSCF), AVAS, COSX integrals, SCF dyn. polar., MC-PDFT, srDFT 
  Lee Huntington         : MR-EOM, pCC                                   
  Robert Izsak           : Overlap fitted RIJCOSX, COSX-SCS-MP3, EOM     
  Riya Kayal             : Wick's Theorem for AUTO-CI, AUTO-CI UHF-CCSDT 
  Emily Kempfer          : AUTO-CI RHF CISDT and CCSDT, approximate NEVPT4
  Christian Kollmar      : KDIIS, OOCD, Brueckner-CCSD(T), CCSD density, CASPT2, CASPT2-K, improved NEVPT2 
  Axel Koslowski         : Symmetry handling                             
  Simone Kossmann        : meta-GGA functionals, TD-DFT gradient, OOMP2, (MP2 Hessian; deprecated post 5.0) 
  Lucas Lang             : DCDCAS, Hyperfine gauge corrections, ICE-SOC+SSC
  Marvin Lechner         : AUTO-CI (C++ implementation), FIC-MRCC        
  Spencer Leger          : CASSCF response                               
  Dagmar Lenk            : GEPOL surface, SMD, ORCA-2-JSON               
  Dimitrios Liakos       : Extrapolation schemes; Compound Job, Property file
  Dimitrios Manganas     : Further ROCIS development; embedding schemes. LFT, Crystal Embedding 
  Dimitrios Pantazis     : SARC Basis sets                               
  Anastasios Papadopoulos: AUTO-CI, single reference methods and gradients 
  Taras Petrenko         : pre 6.0 DFT Hessian and TD-DFT gradient,  ECA, NRVS 
  Petra Pikulova         : Analytic Raman intensities                    
  Peter Pinski           : DLPNO-MP2, DLPNO-MP2 Gradient                 
  Shashank Vittal Rao    : ES-AILFT, MagRelax                            
  Christoph Reimann      : Effective Core Potentials                     
  Marius Retegan         : Local ZFS, SOC                                
  Christoph Riplinger    : Optimizer, TS searches, QM/MM, DLPNO-CCSD(T), (RO)-DLPNO pert. Triples 
  Michael Roemelt        : Original ROCIS implementation, recursive CI coupling coefficients
  Masaaki Saitow         : Open-shell DLPNO-CCSD energy and density      
  Barbara Sandhoefer     : DKH picture change effects                    
  Yorick L. A. Schmerwitz: GMF and freeze-and-release deltaSCF, NEB S-IDPP initial path                    
  Kantharuban Sivalingam : CASSCF convergence/infrastructure, NEVPT2, NEVPT3, NEVPT4(SD), FIC-MRCI and CEPA variants
  Bernardo de Souza      : ESD, SOC TD-DFT                               
  Georgi L. Stoychev     : AutoAux, RI-MP2 NMR, DLPNO-MP2 response, X2C  
  Van Anh Tran           : RI-MP2 g-tensors                              
  Willem Van den Heuvel  : Paramagnetic NMR                              
  Zikuan Wang            : NOTCH, Electric field optimization            
  Frank Wennmohs         : Technical directorship and infrastructure     
  Hang Xu                : AUTO-CI-Response properties                   
                                                                         
[FACCTs GmbH]                                                            
  Markus Bursch, Nicolas Foglia, Miquel Garcia-Rates, Ingolf Harden, Hagen Neugebauer, Anastasios Papadopoulos, 
  Christoph Riplinger, Bernardo de Souza, Georgi L. Stoychev                                                    
                                                                 
  APM, various basis sets, CI-OPT, improved COSX, DLPNO-Multilevel,           
  DOCKER, DRACO, updates on ESD, Fragmentator, GOAT, IRC, LR-CPCM, L-BFGS, MBIS, meta-GGA TD-DFT gradient, ML-optimized integration grids, 
  MM, NACMEs, nearIR, NEB, NEB-TS, NL-DFT gradient (VV10), 2- and 3-layer-ONIOM, interface openCOSMO-RS, QMMM,   
  Crystal-QMMM, RESP, rigid body optimization, SF, symmetry and pop. for TD-DFT, various functionals, SOLVATOR                                   
                                                                         
[Other institutions]                                                     
  V. Asgeirsson          : NEB                                           
  Christoph Bannwarth    : sTDA-DFT, sTD-DFT, PBEh-3c, B97-3c, D3        
  Giovanni Bistoni       : ETS/NOCV, ADLD/ADEX, COVALED                  
  Martin Brehm           : Molecular dynamics                            
  Ronald Cardenas        : ETS/NOCV                                      
  Martina Colucci        : COVALED                                       
  Sebastian Ehlert       : rSCAN, r2SCAN, r2SCAN-3c, D4, dhf basis sets  
  Marvin Friede          : D4 for Fr, Ra, Ac-Lr                          
  Lars Goerigk           : TD-DFT with DH, B97 family of functionals     
  Stefan Grimme          : VdW corrections, initial TS optimization, DFT functionals, gCP, sTDA/sTD-DF 
  Waldemar Hujo          : DFT-NL                                        
  H. Jonsson             : NEB                                           
  Holger Kruse           : gCP                                           
  Marcel Mueller         : wB97X-3c, vDZP basis set                      
  Hagen Neugebauer       : wr2SCAN, Native XTB                           
  Gianluca Regni         : ADLD/ADEX                                     
  Tobias Risthaus        : pre 6.0 range-separated hybrid DFT and stability analysis
  Lukas Wittmann         : regularized MP2, r2SCAN double-hybrids, wr2SCAN        
                                                                         
We gratefully acknowledge several colleagues who have allowed us to      
interface, adapt or use parts of their codes:                            
  Ed Valeev, F. Pavosevic, A. Kumar             : LibInt (2-el integral package), F12 methods 
  Garnet Chan, S. Sharma, J. Yang, R. Olivares  : DMRG                   
  Ulf Ekstrom                                   : XCFun DFT Library      
  Mihaly Kallay                                 : mrcc  (arbitrary order and MRCC methods)
  Frank Weinhold                                : gennbo (NPA and NBO analysis)           
  Simon Mueller                                 : openCOSMO-RS                            
  Christopher J. Cramer and Donald G. Truhlar   : smd solvation model                     
  S Lehtola, MJT Oliveira, MAL Marques          : LibXC Library                           
  Liviu Ungur et al                             : ANISO software                          


 Your calculation uses the libint2 library for the computation of 2-el integrals
 For citations please refer to: http://libint.valeyev.net

 Your ORCA version has been built with support for libXC version: 7.0.0
 For citations please refer to: https://libxc.gitlab.io

 This ORCA versions uses:
   CBLAS   interface :  Fast vector & matrix operations
   LAPACKE interface :  Fast linear algebra routines
   SCALAPACK package :  Parallel linear algebra routines
   Shared memory     :  Shared parallel matrices
   BLAS/LAPACK       :  OpenBLAS 0.3.29  USE64BITINT DYNAMIC_ARCH NO_AFFINITY Bulldozer SINGLE_THREADED
        Core in use  :  Bulldozer
   Copyright (c) 2011-2014, The OpenBLAS Project


  ***********************************
  * Starting time: Wed Aug 13 01:43:34 2025
  * Host name:     chromium05
  * Process ID:    221601
  * Working dir.:  /local/scratch/mehlhorn/61846
  ***********************************



***************************************
The coordinates will be read from file: start.xyz
***************************************


Your calculation utilizes the geometrical counterpoise correction gCP
Please cite in your paper:
H.Kruse, S. Grimme J.Chem.Phys., 136, (2012), 154101 
   

Your calculation utilizes the atom-pairwise dispersion correction
with the Becke-Johnson damping scheme (D3BJ)


Warning: RI is on but no J-basis has been assigned. Assigning Def2/J (nothing to worry about!)
================================================================================

cite the ECPs for Zr [Def2-ECP] as follows:
Ce-Yb(ecp-28): M. Dolg, H. Stoll, H.Preuss, J. Chem. Phys., 1989, 90, 1730-1734.
Y-Cd(ecp-28), Hf-Hg(ecp-46): D. Andrae,U. Haeussermann, M. Dolg, H. Stoll, H. Preuss, Theor. Chim. Acta, 1990, 77, 123-141.
In-Sb(ecp-28), Tl-Bi(ecp-46): B. Metz, H. Stoll, M. Dolg, J. Chem. Phys., 2000, 113, 2563-2569.
Te-Xe(ecp-28), Po-Rn(ecp-46): K. A. Peterson, D. Figgen, E. Goll, H. Stoll, M. Dolg, J. Chem. Phys., 2003, 119, 11113-11123.
Rb(ecp-28), Cs(ecp-46): T. Leininger, A. Nicklass, W. Kuechle, H. Stoll, M. Dolg, A. Bergner, Chem. Phys. Lett., 1996, 255, 274-280.
Sr(ecp-28), Ba(ecp-46): M. Kaupp, P. V. Schleyer, H. Stoll and H. Preuss, J. Chem. Phys., 1991, 94, 1360-1366.
La(ecp-46): M. Dolg, H. Stoll, A. Savin, H. Preuss, Theor. Chim. Acta, 1989, 75, 173-194.
Lu(ecp-28): X. Cao, M. Dolg, J. Chem. Phys., 2001, 115, 7348-7355.

ECP parameters for Zr [Def2-ECP] have been obtained from:
TURBOMOLE (7.0.2)

----- Orbital basis set information -----
Your calculation utilizes the basis: def2-SV(P)
   F. Weigend and R. Ahlrichs, Phys. Chem. Chem. Phys. 7, 3297 (2005).

----- AuxJ basis set information -----
Your calculation utilizes the auxiliary basis: def2/J
   H-Rn: F. Weigend, Phys. Chem. Chem. Phys. 8, 1057 (2006).
   Fr-Lr: K. Eichkorn, F. Weigend, O. Treutler, R. Ahlrichs; Theor. Chem. Acc. 97, 119 (1997).

================================================================================
                                        WARNINGS
                       Please study these warnings very carefully!
================================================================================


WARNING: Gradients are needed
  ===> : At least TightSCF should be used for SCF convergence

WARNING: Geometry Optimization
  ===> : Switching off AutoStart
         For restart on a previous wavefunction, please use MOREAD

================================================================================
                                       INPUT FILE
================================================================================
NAME = run.inp
|  1> # Geometry optimization for (AlH3)n cluster
|  2> 
|  3> %pal nprocs 24  end
|  4> 
|  5> %geom MaxIter 500 end
|  6> 
|  7> 
|  8> ! PBE def2-SV(P)
|  9> ! RKS	# closed shell for AlH3
| 10> ! D3    #  dispersion correction
| 11> ! gCP(DFT/SV(P))
| 12> ! Freq 	# Frequency analysis to check the stabiltity of the structures
| 13> 
| 14> ! NoPop # population analysis not necessary	
| 15> 
| 16> ! DEFGRID2
| 17> ! NormalSCF
| 18> ! SloppyOpt
| 19> 
| 20> ! SmallPrint
| 21> 
| 22> 
| 23> * xyzFile 0 1 start.xyz # only maingroup elements H and Al so there should be no net spin
| 24> 
| 25>                          ****END OF INPUT****
================================================================================

                       *****************************
                       * Geometry Optimization Run *
                       *****************************

Geometry optimization settings:
Update method            Update   .... BFGS
Choice of coordinates    CoordSys .... (2022) Redundant Internals
Initial Hessian          InHess   .... Almloef's Model
Max. no of cycles        MaxIter  .... 500

Convergence Tolerances:
Energy Change            TolE     ....  8.0000e-05 Eh
Max. Gradient            TolMAXG  ....  5.0000e-03 Eh/bohr
RMS Gradient             TolRMSG  ....  1.0000e-03 Eh/bohr
Max. Displacement        TolMAXD  ....  3.0000e-02 bohr
RMS Displacement         TolRMSD  ....  2.0000e-02 bohr
Strict Convergence                .... False

------------------------------------------------------------------------------
                        ORCA OPTIMIZATION COORDINATE SETUP
------------------------------------------------------------------------------

The optimization will be done in redundant internal coordinates (2022)
Making redundant internal coordinates   ...  (2022 redundants) done
Evaluating the initial hessian          ...  (Almloef) done
Evaluating the coordinates              ...  done
Calculating the B-matrix                .... done
Calculating the G-matrix                .... done
The number of degrees of freedom        ....  962

    -----------------------------------------------------------------
                    Redundant Internal Coordinates


    -----------------------------------------------------------------
         Definition                    Initial Value    Approx d2E/dq
    -----------------------------------------------------------------
      1. B(Zr  2,Zr  1)                  3.4182         0.037159   
      2. B(Zr  3,Zr  0)                  3.3442         0.048775   
      3. B(Zr  4,Zr  3)                  3.4264         0.036060   
      4. B(Zr  4,Zr  1)                  3.3520         0.047388   
      5. B(Zr  5,Zr  2)                  3.4254         0.036189   
      6. B(Zr  5,Zr  0)                  3.4256         0.036164   
      7. B(O   6,Zr  0)                  2.1328         0.369795   
      8. B(O   6,Zr  5)                  2.1158         0.393538   
      9. B(O   6,Zr  3)                  2.0819         0.445835   
     10. B(O   7,Zr  4)                  2.0815         0.446491   
     11. B(O   7,Zr  1)                  2.1345         0.367436   
     12. B(O   7,Zr  2)                  2.1201         0.387439   
     13. B(O   8,Zr  2)                  2.0937         0.426901   
     14. B(O   8,Zr  1)                  2.1474         0.350477   
     15. B(O   8,Zr  5)                  2.1099         0.402261   
     16. B(O   9,Zr  0)                  2.1955         0.293636   
     17. B(O   9,Zr  4)                  2.1616         0.332647   
     18. B(O   9,Zr  3)                  2.1034         0.411949   
     19. B(O  10,Zr  4)                  2.1129         0.397816   
     20. B(O  10,Zr  3)                  2.1638         0.329991   
     21. B(O  10,Zr  1)                  2.1952         0.293960   
     22. B(O  11,Zr  5)                  2.1005         0.416324   
     23. B(O  11,Zr  0)                  2.1517         0.344972   
     24. B(O  11,Zr  2)                  2.1192         0.388674   
     25. B(O  12,Zr  0)                  1.9836         0.639764   
     26. B(O  13,Zr  0)                  1.9745         0.661515   
     27. B(O  14,Zr  0)                  2.0672         0.470491   
     28. B(O  15,Zr  0)                  2.0451         0.510258   
     29. B(O  16,Zr  1)                  2.0741         0.458814   
     30. B(O  17,Zr  1)                  2.0333         0.532856   
     31. B(O  18,Zr  1)                  1.9851         0.636154   
     32. B(O  19,Zr  1)                  1.9724         0.666561   
     33. B(O  20,Zr  2)                  1.9902         0.624324   
     34. B(O  21,Zr  2)                  2.0388         0.522182   
     35. B(O  22,Zr  2)                  1.9915         0.621316   
     36. B(O  23,Zr  2)                  2.0501         0.500972   
     37. B(O  24,Zr  3)                  2.0715         0.463100   
     38. B(O  25,Zr  3)                  1.9826         0.642006   
     39. B(O  26,Zr  3)                  1.9877         0.630183   
     40. B(O  27,Zr  3)                  1.9832         0.640645   
     41. B(O  28,Zr  4)                  1.9846         0.637291   
     42. B(O  29,Zr  4)                  1.9949         0.613649   
     43. B(O  30,Zr  4)                  1.9808         0.646273   
     44. B(O  31,Zr  4)                  2.0715         0.463166   
     45. B(O  32,Zr  5)                  2.0518         0.497840   
     46. B(O  33,Zr  5)                  1.9867         0.632504   
     47. B(O  34,Zr  5)                  2.0467         0.507324   
     48. B(O  35,Zr  5)                  1.9909         0.622807   
     49. B(C  36,O  33)                  1.3003         0.778045   
     50. B(C  36,O  12)                  1.3014         0.775005   
     51. B(C  37,O  25)                  1.2986         0.782976   
     52. B(C  37,O  13)                  1.2991         0.781590   
     53. B(C  38,O  21)                  1.3021         0.773014   
     54. B(C  38,O  14)                  1.2998         0.779382   
     55. B(C  39,O  29)                  1.2943         0.795488   
     56. B(C  39,O  15)                  1.2953         0.792378   
     57. B(C  40,O  34)                  1.3023         0.772371   
     58. B(C  40,O  16)                  1.3000         0.778810   
     59. B(C  41,O  17)                  1.2952         0.792653   
     60. B(C  41,O  26)                  1.2943         0.795469   
     61. B(C  42,O  22)                  1.3009         0.776412   
     62. B(C  42,O  18)                  1.3018         0.773751   
     63. B(C  43,O  19)                  1.2990         0.781711   
     64. B(C  43,O  30)                  1.2990         0.781768   
     65. B(C  44,O  35)                  1.3014         0.774976   
     66. B(C  44,O  20)                  1.3013         0.775217   
     67. B(C  45,O  31)                  1.2964         0.789272   
     68. B(C  45,O  23)                  1.2968         0.788070   
     69. B(C  46,O  32)                  1.2973         0.786575   
     70. B(C  46,O  24)                  1.2965         0.788958   
     71. B(C  47,O  28)                  1.3015         0.774586   
     72. B(C  47,O  27)                  1.3020         0.773166   
     73. B(H  48,C  41)                  1.0855         0.366066   
     74. B(H  49,C  42)                  1.0919         0.357634   
     75. B(H  50,C  38)                  1.0881         0.362675   
     76. B(H  51,C  37)                  1.0902         0.359892   
     77. B(H  52,C  43)                  1.0903         0.359641   
     78. B(H  53,C  47)                  1.0919         0.357600   
     79. B(H  54,C  39)                  1.0855         0.366169   
     80. B(H  55,C  45)                  1.0848         0.367111   
     81. B(H  56,C  40)                  1.0879         0.362825   
     82. B(H  57,C  46)                  1.0849         0.366901   
     83. B(H  58,C  36)                  1.0915         0.358072   
     84. B(H  59,C  44)                  1.0913         0.358419   
     85. B(Al 61,Al 60)                  2.7070         0.243059   
     86. B(H  62,Al 61)                  1.6798         0.289072   
     87. B(H  63,Al 61)                  1.6102         0.373358   
     88. B(H  64,Al 61)                  1.6768         0.292295   
     89. B(H  64,Al 60)                  1.6665         0.303525   
     90. B(H  64,H  48)                  3.0020         0.010000   
     91. B(H  65,Al 60)                  1.6046         0.381009   
     92. B(H  66,Al 60)                  1.6725         0.296949   
     93. B(H  66,H  48)                  3.0214         0.010000   
     94. B(H  67,O  24)                  2.5923         0.010000   
     95. B(H  67,O  26)                  2.9413         0.010000   
     96. B(H  67,Al 61)                  1.6134         0.368891   
     97. B(Al 68,H  62)                  1.6680         0.301857   
     98. B(Al 68,Al 61)                  2.6878         0.260775   
     99. B(H  69,O  27)                  2.5900         0.010000   
    100. B(H  69,Al 68)                  1.6772         0.291906   
    101. B(H  69,H  53)                  3.0910         0.010000   
    102. B(H  70,Al 68)                  1.6030         0.383314   
    103. B(H  71,H  48)                  2.5224         0.010000   
    104. B(H  71,Al 60)                  1.6025         0.383982   
    105. B(Al 72,H  69)                  1.6907         0.277776   
    106. B(Al 72,Al 68)                  3.3471         0.023142   
    107. B(Al 72,H  66)                  1.6931         0.275307   
    108. B(Al 72,Al 60)                  3.3595         0.022116   
    109. B(H  73,Al 72)                  1.6876         0.280869   
    110. B(H  74,O  30)                  2.9469         0.010000   
    111. B(H  74,O  27)                  2.7538         0.010000   
    112. B(H  74,O  26)                  2.7295         0.010000   
    113. B(H  74,O  17)                  2.6969         0.010000   
    114. B(H  74,O  19)                  2.6765         0.010000   
    115. B(H  74,C  43)                  2.6391         0.010000   
    116. B(H  74,C  41)                  2.6161         0.010000   
    117. B(H  74,O  10)                  2.4216         0.010000   
    118. B(H  74,Al 72)                  1.6101         0.373421   
    119. B(H  74,H  52)                  3.0805         0.010000   
    120. B(H  75,H  53)                  2.7374         0.010000   
    121. B(H  75,O  27)                  2.5619         0.010000   
    122. B(H  75,Al 68)                  1.6039         0.381975   
    123. B(H  75,C  47)                  3.0444         0.010000   
    124. B(Al 76,H  73)                  1.6734         0.295959   
    125. B(Al 76,Al 72)                  2.6397         0.311211   
    126. B(H  77,H  52)                  2.5552         0.010000   
    127. B(H  77,Al 76)                  1.6018         0.385059   
    128. B(H  78,C  47)                  2.7774         0.010000   
    129. B(H  78,H  53)                  2.5536         0.010000   
    130. B(H  78,Al 76)                  1.6701         0.299526   
    131. B(H  78,Al 72)                  1.6927         0.275675   
    132. B(H  78,O  27)                  2.9726         0.010000   
    133. B(H  79,Al 76)                  1.6022         0.384415   
    134. A(Zr  3,Zr  0,O   6)           36.9612         0.343828   
    135. A(Zr  3,Zr  0,Zr  5)           73.0340         0.257558   
    136. A(O   6,Zr  0,O  12)           84.5355         0.496586   
    137. A(O   9,Zr  0,O  13)           79.6861         0.478797   
    138. A(Zr  5,Zr  0,O   6)           36.0971         0.327145   
    139. A(Zr  5,Zr  0,O  14)           97.1027         0.340486   
    140. A(O   9,Zr  0,O  12)          140.0737         0.475858   
    141. A(O  12,Zr  0,O  15)          141.4803         0.527398   
    142. A(Zr  3,Zr  0,O  11)           97.4375         0.339851   
    143. A(O   9,Zr  0,O  11)          100.7653         0.425388   
    144. A(Zr  5,Zr  0,O   9)           95.9216         0.315034   
    145. A(O  14,Zr  0,O  15)           73.2949         0.497940   
    146. A(O  12,Zr  0,O  13)           82.5639         0.553930   
    147. A(Zr  5,Zr  0,O  12)           69.9495         0.358602   
    148. A(O   6,Zr  0,O  15)          133.5894         0.476246   
    149. A(Zr  3,Zr  0,O  15)          107.1759         0.363091   
    150. A(Zr  3,Zr  0,O   9)           37.9482         0.330868   
    151. A(O  13,Zr  0,O  14)          120.1019         0.522689   
    152. A(Zr  5,Zr  0,O  11)           35.8262         0.323429   
    153. A(O   6,Zr  0,O  14)          132.4858         0.469199   
    154. A(O   9,Zr  0,O  14)          135.6485         0.449863   
    155. A(O  11,Zr  0,O  15)          110.2367         0.470203   
    156. A(O   6,Zr  0,O  11)           65.0433         0.443412   
    157. A(Zr  3,Zr  0,O  13)           74.6422         0.379680   
    158. A(O   9,Zr  0,O  15)           70.6051         0.456552   
    159. A(Zr  5,Zr  0,O  13)          130.9550         0.360650   
    160. A(Zr  3,Zr  0,O  12)          102.7366         0.377488   
    161. A(O   6,Zr  0,O  13)          103.7944         0.499683   
    162. A(Zr  3,Zr  0,O  14)          164.7832         0.358103   
    163. A(O  11,Zr  0,O  13)          166.7340         0.493274   
    164. A(O  13,Zr  0,O  15)           82.5376         0.530728   
    165. A(O  11,Zr  0,O  14)           68.7919         0.463266   
    166. A(O  12,Zr  0,O  14)           84.0321         0.519420   
    167. A(O   6,Zr  0,O   9)           65.6876         0.430720   
    168. A(Zr  5,Zr  0,O  15)          142.2591         0.345147   
    169. A(O  11,Zr  0,O  12)           88.9949         0.490227   
    170. A(O  10,Zr  1,O  19)           79.1972         0.479565   
    171. A(Zr  2,Zr  1,Zr  4)           73.1627         0.257493   
    172. A(Zr  2,Zr  1,O  10)           96.2426         0.316483   
    173. A(Zr  4,Zr  1,O   8)           97.0148         0.339114   
    174. A(O  10,Zr  1,O  17)           71.3049         0.460267   
    175. A(O   8,Zr  1,O  16)           68.5986         0.462479   
    176. A(Zr  4,Zr  1,O  19)           74.9441         0.378286   
    177. A(O  16,Zr  1,O  18)           83.6134         0.516431   
    178. A(Zr  4,Zr  1,O  17)          108.3930         0.363992   
    179. A(O   8,Zr  1,O  18)           90.0673         0.491151   
    180. A(O   7,Zr  1,O  19)          104.2558         0.499794   
    181. A(O   8,Zr  1,O  19)          167.6692         0.495424   
    182. A(O   7,Zr  1,O   8)           64.9392         0.444169   
    183. A(O   8,Zr  1,O  10)          100.3725         0.426679   
    184. A(O   7,Zr  1,O  18)           83.9707         0.495476   
    185. A(O   7,Zr  1,O  16)          131.7022         0.466495   
    186. A(O  16,Zr  1,O  17)           73.1384         0.499628   
    187. A(O  16,Zr  1,O  19)          120.0365         0.520972   
    188. A(O  17,Zr  1,O  19)           84.0862         0.535850   
    189. A(Zr  2,Zr  1,O  19)          131.9050         0.362794   
    190. A(Zr  4,Zr  1,O  18)          101.7229         0.375245   
    191. A(O   8,Zr  1,O  17)          107.5628         0.475342   
    192. A(Zr  2,Zr  1,O   8)           35.7647         0.325720   
    193. A(O  10,Zr  1,O  16)          137.0846         0.447906   
    194. A(Zr  4,Zr  1,O  16)          164.8443         0.354836   
    195. A(O  17,Zr  1,O  18)          142.4629         0.531152   
    196. A(Zr  2,Zr  1,O  17)          140.1511         0.349266   
    197. A(O  10,Zr  1,O  18)          139.0468         0.475460   
    198. A(O   7,Zr  1,O  10)           65.7455         0.430310   
    199. A(O   7,Zr  1,O  17)          133.4142         0.479497   
    200. A(Zr  4,Zr  1,O  10)           38.0393         0.329355   
    201. A(O  18,Zr  1,O  19)           82.6053         0.554135   
    202. A(Zr  2,Zr  1,O  18)           69.9158         0.359916   
    203. A(Zr  4,Zr  1,O   7)           36.7905         0.341804   
    204. A(Zr  2,Zr  1,O  16)           95.8523         0.340600   
    205. A(Zr  2,Zr  1,O   7)           36.3980         0.328266   
    206. A(O   7,Zr  2,O  23)           71.2912         0.478729   
    207. A(Zr  1,Zr  2,O   8)           36.8303         0.336528   
    208. A(O  20,Zr  2,O  22)           82.4218         0.544852   
    209. A(Zr  5,Zr  2,O   7)           83.5385         0.329708   
    210. A(O  20,Zr  2,O  23)          132.8387         0.523172   
    211. A(O  20,Zr  2,O  21)           83.7516         0.527266   
    212. A(O  22,Zr  2,O  23)           80.1434         0.522697   
    213. A(O  11,Zr  2,O  22)          142.3926         0.498485   
    214. A(O   8,Zr  2,O  21)          140.8206         0.491136   
    215. A(O  11,Zr  2,O  20)           77.6360         0.498933   
    216. A(Zr  5,Zr  2,O  11)           35.5486         0.329882   
    217. A(O   8,Zr  2,O  23)          128.7815         0.487380   
    218. A(O   8,Zr  2,O  20)           90.2196         0.507730   
    219. A(Zr  5,Zr  2,O  22)          107.8353         0.356864   
    220. A(Zr  1,Zr  2,Zr  5)           68.2164         0.247519   
    221. A(O  11,Zr  2,O  23)          135.9257         0.479010   
    222. A(Zr  1,Zr  2,O  22)           73.6850         0.358473   
    223. A(Zr  5,Zr  2,O  23)          154.6382         0.344125   
    224. A(O  21,Zr  2,O  22)          136.5452         0.526787   
    225. A(Zr  5,Zr  2,O   8)           35.5803         0.335051   
    226. A(O   8,Zr  2,O  22)           80.2128         0.507273   
    227. A(O   7,Zr  2,O  22)           99.5777         0.498190   
    228. A(Zr  1,Zr  2,O  23)           92.1505         0.345656   
    229. A(O   7,Zr  2,O   8)           66.1193         0.464868   
    230. A(O   8,Zr  2,O  11)           68.4178         0.465139   
    231. A(O   7,Zr  2,O  11)           86.5587         0.456971   
    232. A(O  21,Zr  2,O  23)           79.7164         0.505966   
    233. A(O   7,Zr  2,O  21)          109.6606         0.482404   
    234. A(Zr  5,Zr  2,O  21)          106.8062         0.346530   
    235. A(Zr  1,Zr  2,O  21)          144.9577         0.348077   
    236. A(Zr  1,Zr  2,O  11)           91.5984         0.331328   
    237. A(Zr  1,Zr  2,O   7)           36.6860         0.331153   
    238. A(O   7,Zr  2,O  20)          155.2738         0.498638   
    239. A(Zr  5,Zr  2,O  20)           72.5205         0.357157   
    240. A(Zr  1,Zr  2,O  20)          123.9978         0.358767   
    241. A(O  11,Zr  2,O  21)           72.4785         0.482688   
    242. A(O  10,Zr  3,O  25)          142.6666         0.486530   
    243. A(O   9,Zr  3,O  26)          143.6690         0.505244   
    244. A(O  24,Zr  3,O  26)           76.0413         0.516418   
    245. A(O   9,Zr  3,O  10)           69.6746         0.448547   
    246. A(Zr  4,Zr  3,O   9)           37.1291         0.332877   
    247. A(O   6,Zr  3,O   9)           68.2520         0.473885   
    248. A(O   6,Zr  3,O  26)          101.6791         0.512758   
    249. A(O  26,Zr  3,O  27)           87.4863         0.548995   
    250. A(Zr  0,Zr  3,O  10)           93.8744         0.337343   
    251. A(Zr  0,Zr  3,O  25)           75.6322         0.377717   
    252. A(Zr  4,Zr  3,O  25)          107.4388         0.358640   
    253. A(O  24,Zr  3,O  27)          132.6792         0.518014   
    254. A(Zr  4,Zr  3,O  27)           71.5149         0.358511   
    255. A(O   9,Zr  3,O  25)           80.4195         0.506999   
    256. A(O  25,Zr  3,O  26)          134.9830         0.549216   
    257. A(Zr  4,Zr  3,O  10)           36.2500         0.320934   
    258. A(O  10,Zr  3,O  26)           74.6460         0.484861   
    259. A(Zr  4,Zr  3,O   6)           85.1193         0.337279   
    260. A(Zr  4,Zr  3,O  26)          109.8351         0.357508   
    261. A(Zr  0,Zr  3,O  26)          139.6440         0.376505   
    262. A(O   6,Zr  3,O  10)           83.7803         0.455037   
    263. A(O  24,Zr  3,O  25)           80.2813         0.518220   
    264. A(O   6,Zr  3,O  25)          105.7929         0.514545   
    265. A(O  10,Zr  3,O  27)           77.9299         0.486339   
    266. A(O   9,Zr  3,O  27)           91.5784         0.506798   
    267. A(O  10,Zr  3,O  24)          135.8305         0.458199   
    268. A(O   9,Zr  3,O  24)          127.1922         0.477209   
    269. A(Zr  0,Zr  3,O   9)           39.9331         0.350131   
    270. A(O   6,Zr  3,O  24)           70.6866         0.484217   
    271. A(Zr  0,Zr  3,O   6)           38.0228         0.354845   
    272. A(Zr  0,Zr  3,O  24)           87.6267         0.357141   
    273. A(O   6,Zr  3,O  27)          156.6174         0.514340   
    274. A(O  25,Zr  3,O  27)           81.1737         0.550935   
    275. A(Zr  0,Zr  3,Zr  4)           72.7610         0.257449   
    276. A(Zr  0,Zr  3,O  27)          128.5570         0.377578   
    277. A(Zr  4,Zr  3,O  24)          155.8050         0.339424   
    278. A(O  10,Zr  4,O  31)          127.6106         0.474166   
    279. A(Zr  3,Zr  4,O  10)           37.2684         0.330957   
    280. A(O   7,Zr  4,O  30)          104.8535         0.515325   
    281. A(O  10,Zr  4,O  29)          143.4886         0.499490   
    282. A(O   7,Zr  4,O  31)           70.6207         0.484362   
    283. A(O  28,Zr  4,O  31)          132.5089         0.517518   
    284. A(O   9,Zr  4,O  31)          134.6904         0.458881   
    285. A(Zr  1,Zr  4,Zr  3)           72.5437         0.256353   
    286. A(Zr  3,Zr  4,O  30)          108.0538         0.359045   
    287. A(O  28,Zr  4,O  29)           85.1785         0.545693   
    288. A(O  29,Zr  4,O  31)           76.5286         0.513868   
    289. A(Zr  1,Zr  4,O  10)           39.8083         0.346390   
    290. A(O   7,Zr  4,O  29)          103.1552         0.510356   
    291. A(O   7,Zr  4,O   9)           83.2045         0.455824   
    292. A(O   9,Zr  4,O  28)           78.3166         0.486587   
    293. A(Zr  3,Zr  4,O  28)           72.1197         0.358191   
    294. A(Zr  1,Zr  4,O  28)          129.2237         0.375360   
    295. A(Zr  3,Zr  4,O   9)           35.9699         0.321355   
    296. A(O  28,Zr  4,O  30)           82.6180         0.551078   
    297. A(O   7,Zr  4,O  10)           68.1661         0.470983   
    298. A(O  30,Zr  4,O  31)           80.5202         0.518878   
    299. A(O  10,Zr  4,O  30)           80.2248         0.504331   
    300. A(Zr  1,Zr  4,O   7)           37.8904         0.353203   
    301. A(Zr  3,Zr  4,O  31)          155.3337         0.339432   
    302. A(Zr  1,Zr  4,O  31)           88.1180         0.355405   
    303. A(Zr  1,Zr  4,O   9)           93.2673         0.336176   
    304. A(O  29,Zr  4,O  30)          135.0505         0.547142   
    305. A(O  10,Zr  4,O  28)           92.1934         0.503018   
    306. A(O   9,Zr  4,O  30)          143.2693         0.487849   
    307. A(Zr  3,Zr  4,O  29)          108.8907         0.355897   
    308. A(Zr  1,Zr  4,O  29)          140.9344         0.372921   
    309. A(Zr  3,Zr  4,O   7)           84.7525         0.337362   
    310. A(O   9,Zr  4,O  29)           74.2834         0.483200   
    311. A(O   9,Zr  4,O  10)           69.5438         0.446365   
    312. A(Zr  1,Zr  4,O  30)           75.0583         0.376269   
    313. A(O   7,Zr  4,O  28)          156.8692         0.513977   
    314. A(O   8,Zr  5,O  34)           72.2366         0.483177   
    315. A(O  33,Zr  5,O  35)           82.6275         0.546445   
    316. A(O   6,Zr  5,O  34)          110.6330         0.481226   
    317. A(O  33,Zr  5,O  34)          136.0640         0.525696   
    318. A(O   8,Zr  5,O  35)           78.2884         0.501906   
    319. A(O  32,Zr  5,O  35)          133.5314         0.522317   
    320. A(O   6,Zr  5,O  35)          154.5755         0.499862   
    321. A(Zr  2,Zr  5,O  35)           72.2981         0.357010   
    322. A(Zr  0,Zr  5,O  35)          123.4382         0.356967   
    323. A(O  32,Zr  5,O  34)           79.7875         0.502663   
    324. A(O  11,Zr  5,O  34)          140.6994         0.486255   
    325. A(Zr  2,Zr  5,O  34)          105.9632         0.344853   
    326. A(Zr  0,Zr  5,O  34)          145.4560         0.344813   
    327. A(O  32,Zr  5,O  33)           80.4799         0.523835   
    328. A(O  11,Zr  5,O  33)           80.3990         0.506588   
    329. A(Zr  2,Zr  5,O   6)           83.1984         0.330561   
    330. A(O  11,Zr  5,O  32)          129.2929         0.484562   
    331. A(O   8,Zr  5,O  32)          134.4584         0.481498   
    332. A(Zr  2,Zr  5,O  32)          154.1229         0.343763   
    333. A(Zr  0,Zr  5,O  32)           92.6557         0.343723   
    334. A(O  11,Zr  5,O  35)           89.4026         0.505130   
    335. A(Zr  0,Zr  5,Zr  2)           68.0708         0.246548   
    336. A(Zr  0,Zr  5,O   6)           36.4323         0.330523   
    337. A(O   6,Zr  5,O  32)           71.3191         0.479555   
    338. A(Zr  0,Zr  5,O  33)           74.1169         0.357906   
    339. A(O   8,Zr  5,O  33)          143.3278         0.503353   
    340. A(O   6,Zr  5,O  33)           99.4321         0.501302   
    341. A(O  34,Zr  5,O  35)           83.2331         0.524172   
    342. A(Zr  2,Zr  5,O  33)          108.8376         0.357948   
    343. A(O   8,Zr  5,O  11)           68.4672         0.465929   
    344. A(O   6,Zr  5,O  11)           66.2282         0.464064   
    345. A(Zr  2,Zr  5,O  11)           35.9140         0.333658   
    346. A(Zr  0,Zr  5,O  11)           36.8405         0.333619   
    347. A(O   6,Zr  5,O   8)           85.6850         0.461158   
    348. A(Zr  2,Zr  5,O   8)           35.2665         0.331762   
    349. A(Zr  0,Zr  5,O   8)           90.7881         0.331724   
    350. A(Zr  0,O   6,Zr  5)          107.4706         0.454136   
    351. A(Zr  0,O   6,Zr  3)          105.0160         0.464595   
    352. A(Zr  3,O   6,Zr  5)          147.4012         0.469923   
    353. A(Zr  2,O   7,Zr  4)          147.6448         0.468705   
    354. A(Zr  1,O   7,Zr  4)          105.3191         0.464176   
    355. A(Zr  1,O   7,Zr  2)          106.9161         0.452321   
    356. A(Zr  1,O   8,Zr  2)          107.4049         0.456435   
    357. A(Zr  2,O   8,Zr  5)          109.1531         0.468076   
    358. A(Zr  1,O   8,Zr  5)          128.6944         0.451524   
    359. A(Zr  3,O   9,Zr  4)          106.9010         0.449200   
    360. A(Zr  0,O   9,Zr  4)          134.3863         0.422629   
    361. A(Zr  0,O   9,Zr  3)          102.1188         0.439172   
    362. A(Zr  1,O  10,Zr  3)          133.8783         0.422107   
    363. A(Zr  4,O  10,H  74)          113.7853         0.176315   
    364. A(Zr  3,O  10,H  74)          100.6339         0.172698   
    365. A(Zr  1,O  10,H  74)           99.8719         0.170536   
    366. A(Zr  1,O  10,Zr  4)          102.1524         0.436503   
    367. A(Zr  3,O  10,Zr  4)          106.4815         0.445717   
    368. A(Zr  2,O  11,Zr  5)          108.5374         0.463009   
    369. A(Zr  0,O  11,Zr  5)          107.3333         0.453047   
    370. A(Zr  0,O  11,Zr  2)          127.7492         0.447428   
    371. A(Zr  0,O  12,C  36)          130.4188         0.505244   
    372. A(Zr  0,O  13,C  37)          132.0189         0.509210   
    373. A(Zr  0,O  14,C  38)          126.2133         0.477770   
    374. A(Zr  0,O  15,C  39)          142.1509         0.486461   
    375. A(Zr  1,O  16,C  40)          126.0596         0.475501   
    376. A(C  41,O  17,H  74)           72.4474         0.159119   
    377. A(Zr  1,O  17,H  74)           95.7471         0.163199   
    378. A(Zr  1,O  17,C  41)          142.2390         0.490410   
    379. A(Zr  1,O  18,C  42)          129.2273         0.504559   
    380. A(C  43,O  19,H  74)           74.2585         0.160092   
    381. A(Zr  1,O  19,H  74)           97.9031         0.168389   
    382. A(Zr  1,O  19,C  43)          131.4537         0.509948   
    383. A(Zr  2,O  20,C  44)          128.2415         0.502975   
    384. A(Zr  2,O  21,C  38)          136.2867         0.486313   
    385. A(Zr  2,O  22,C  42)          125.6559         0.502667   
    386. A(Zr  2,O  23,C  45)          140.3580         0.484324   
    387. A(C  46,O  24,H  67)          113.2045         0.165406   
    388. A(Zr  3,O  24,H  67)           96.0617         0.167408   
    389. A(Zr  3,O  24,C  46)          135.1290         0.477452   
    390. A(Zr  3,O  25,C  37)          130.2097         0.506540   
    391. A(H  67,O  26,H  74)          125.2608         0.099295   
    392. A(C  41,O  26,H  67)          133.1959         0.146269   
    393. A(Zr  3,O  26,H  67)           87.7628         0.151897   
    394. A(C  41,O  26,H  74)           71.1622         0.157298   
    395. A(Zr  3,O  26,H  74)           95.7057         0.164009   
    396. A(Zr  3,O  26,C  41)          137.5819         0.506279   
    397. A(H  69,O  27,H  78)           42.6656         0.100263   
    398. A(H  75,O  27,H  78)           85.9999         0.100529   
    399. A(H  69,O  27,H  74)           61.4822         0.102511   
    400. A(H  74,O  27,H  75)          120.4227         0.102830   
    401. A(C  47,O  27,H  74)           99.1648         0.155503   
    402. A(Zr  3,O  27,H  74)           95.0600         0.162784   
    403. A(Zr  3,O  27,H  78)          145.3180         0.150507   
    404. A(H  74,O  27,H  78)           50.2933         0.098829   
    405. A(C  47,O  27,H  78)           68.6512         0.144438   
    406. A(H  69,O  27,H  75)           59.0185         0.104847   
    407. A(C  47,O  27,H  69)          105.4141         0.165202   
    408. A(Zr  3,O  27,H  69)          125.3529         0.173545   
    409. A(C  47,O  27,H  75)           98.7065         0.167005   
    410. A(Zr  3,O  27,H  75)          116.3200         0.175545   
    411. A(Zr  3,O  27,C  47)          127.7528         0.505150   
    412. A(Zr  4,O  28,C  47)          127.8235         0.504829   
    413. A(Zr  4,O  29,C  39)          137.7187         0.503778   
    414. A(Zr  4,O  30,H  74)           99.1067         0.151965   
    415. A(C  43,O  30,H  74)           63.5781         0.145781   
    416. A(Zr  4,O  30,C  43)          130.9462         0.507020   
    417. A(Zr  4,O  31,C  45)          136.3345         0.477499   
    418. A(Zr  5,O  32,C  46)          140.4648         0.483594   
    419. A(Zr  5,O  33,C  36)          126.1499         0.504539   
    420. A(Zr  5,O  34,C  40)          135.6268         0.483652   
    421. A(Zr  5,O  35,C  44)          128.5583         0.502718   
    422. A(O  12,C  36,O  33)          126.9832         0.464820   
    423. A(O  33,C  36,H  58)          116.4699         0.364189   
    424. A(O  12,C  36,H  58)          116.5414         0.363945   
    425. A(O  13,C  37,O  25)          127.4735         0.466080   
    426. A(O  25,C  37,H  51)          116.2703         0.364899   
    427. A(O  13,C  37,H  51)          116.2561         0.364788   
    428. A(O  14,C  38,O  21)          129.6430         0.464748   
    429. A(O  21,C  38,H  50)          115.2345         0.364580   
    430. A(O  14,C  38,H  50)          115.1167         0.365092   
    431. A(O  15,C  39,O  29)          129.0560         0.468611   
    432. A(O  29,C  39,H  54)          115.4860         0.366976   
    433. A(O  15,C  39,H  54)          115.4547         0.366730   
    434. A(O  16,C  40,O  34)          129.6710         0.464614   
    435. A(O  34,C  40,H  56)          115.2556         0.364554   
    436. A(O  16,C  40,H  56)          115.0656         0.365073   
    437. A(O  17,C  41,O  26)          128.9848         0.468639   
    438. A(H  48,C  41,H  74)          112.9143         0.145956   
    439. A(O  26,C  41,H  74)           80.9182         0.166854   
    440. A(O  17,C  41,H  74)           79.3852         0.166792   
    441. A(O  26,C  41,H  48)          115.6133         0.366957   
    442. A(O  17,C  41,H  48)          115.3999         0.366734   
    443. A(O  18,C  42,O  22)          126.8689         0.464504   
    444. A(O  22,C  42,H  49)          116.5283         0.363981   
    445. A(O  18,C  42,H  49)          116.5981         0.363768   
    446. A(H  52,C  43,H  74)          103.4220         0.144654   
    447. A(O  30,C  43,H  74)           90.2670         0.165081   
    448. A(O  19,C  43,H  74)           77.4627         0.165079   
    449. A(O  30,C  43,H  52)          116.3374         0.364759   
    450. A(O  19,C  43,H  52)          116.2464         0.364754   
    451. A(O  19,C  43,O  30)          127.4145         0.465961   
    452. A(O  35,C  44,H  59)          116.1855         0.364003   
    453. A(O  20,C  44,H  59)          116.1751         0.364022   
    454. A(O  20,C  44,O  35)          127.6393         0.464508   
    455. A(O  31,C  45,H  55)          115.0018         0.366645   
    456. A(O  23,C  45,H  55)          114.9676         0.366549   
    457. A(O  23,C  45,O  31)          130.0237         0.467470   
    458. A(O  32,C  46,H  57)          114.9920         0.366394   
    459. A(O  24,C  46,H  57)          114.9772         0.366584   
    460. A(O  24,C  46,O  32)          130.0243         0.467274   
    461. A(H  75,C  47,H  78)           81.0024         0.098771   
    462. A(H  53,C  47,H  75)           63.4915         0.128679   
    463. A(O  27,C  47,H  75)           56.2858         0.143177   
    464. A(O  28,C  47,H  75)          162.6411         0.143199   
    465. A(H  53,C  47,H  78)           66.8420         0.138545   
    466. A(O  28,C  47,H  78)          115.4622         0.156674   
    467. A(O  27,C  47,H  78)           85.4604         0.156646   
    468. A(O  28,C  47,H  53)          116.3131         0.363829   
    469. A(O  27,C  47,H  53)          116.5834         0.363715   
    470. A(O  27,C  47,O  28)          127.1035         0.464240   
    471. A(H  64,H  48,H  66)           54.0107         0.091500   
    472. A(H  66,H  48,H  71)           50.0806         0.092724   
    473. A(C  41,H  48,H  66)           95.7129         0.111364   
    474. A(H  64,H  48,H  71)           51.5850         0.092785   
    475. A(C  41,H  48,H  64)          119.0558         0.111727   
    476. A(C  41,H  48,H  71)          144.8753         0.122865   
    477. A(H  74,H  52,H  77)           74.6893         0.092450   
    478. A(C  43,H  52,H  74)           56.4398         0.110207   
    479. A(C  43,H  52,H  77)          117.3909         0.121821   
    480. A(C  47,H  53,H  69)           85.3257         0.109996   
    481. A(H  69,H  53,H  78)           41.3370         0.092425   
    482. A(H  75,H  53,H  78)           91.3254         0.093596   
    483. A(C  47,H  53,H  75)           95.5958         0.117172   
    484. A(C  47,H  53,H  78)           90.0081         0.121824   
    485. A(H  69,H  53,H  75)           51.1854         0.091940   
    486. A(H  71,Al 60,Al 72)           96.9623         0.274314   
    487. A(H  65,Al 60,Al 72)           96.5767         0.273988   
    488. A(H  64,Al 60,Al 72)          108.3558         0.264710   
    489. A(Al 61,Al 60,Al 72)           80.2364         0.292822   
    490. A(H  66,Al 60,H  71)           93.6899         0.362476   
    491. A(H  65,Al 60,H  71)          146.0316         0.378348   
    492. A(H  64,Al 60,H  71)           96.6566         0.363835   
    493. A(Al 61,Al 60,H  71)          122.9023         0.407806   
    494. A(H  65,Al 60,H  66)           98.7687         0.361995   
    495. A(H  64,Al 60,H  66)          109.9994         0.348302   
    496. A(Al 61,Al 60,H  66)           82.9640         0.389788   
    497. A(H  64,Al 60,H  65)          108.3180         0.363352   
    498. A(Al 61,Al 60,H  65)           90.0677         0.407246   
    499. A(Al 61,Al 60,H  64)           36.0634         0.391283   
    500. A(H  67,Al 61,Al 68)          115.0822         0.409997   
    501. A(H  64,Al 61,Al 68)          131.2396         0.393525   
    502. A(H  63,Al 61,Al 68)          119.1738         0.410873   
    503. A(H  62,Al 61,Al 68)           36.4462         0.392762   
    504. A(Al 60,Al 61,Al 68)           95.6334         0.445274   
    505. A(H  64,Al 61,H  67)          111.2957         0.359038   
    506. A(H  63,Al 61,H  67)           78.3462         0.374421   
    507. A(H  62,Al 61,H  67)          114.4540         0.358361   
    508. A(Al 60,Al 61,H  67)          141.6651         0.404926   
    509. A(H  63,Al 61,H  64)           83.8240         0.359775   
    510. A(H  62,Al 61,H  64)          128.2920         0.344539   
    511. A(Al 60,Al 61,H  64)           35.8085         0.388715   
    512. A(H  62,Al 61,H  63)           82.9808         0.359096   
    513. A(Al 60,Al 61,H  63)          107.1687         0.405788   
    514. A(Al 60,Al 61,H  62)          103.8803         0.387963   
    515. A(Al 61,H  62,Al 68)          106.8082         0.346408   
    516. A(H  48,H  64,Al 61)          100.2897         0.114510   
    517. A(H  48,H  64,Al 60)           81.7802         0.114728   
    518. A(Al 60,H  64,Al 61)          108.1281         0.347377   
    519. A(H  48,H  66,Al 72)          101.9101         0.113764   
    520. A(H  48,H  66,Al 60)           81.0791         0.114192   
    521. A(Al 60,H  66,Al 72)          173.1061         0.342638   
    522. A(O  24,H  67,O  26)           53.2892         0.100538   
    523. A(O  26,H  67,Al 61)           82.0342         0.138569   
    524. A(O  24,H  67,Al 61)          134.9473         0.155256   
    525. A(Al 72,Al 68,H  75)          107.1004         0.276004   
    526. A(H  70,Al 68,H  75)          151.5804         0.378400   
    527. A(H  69,Al 68,H  75)          101.3076         0.361095   
    528. A(H  62,Al 68,H  75)          100.7005         0.363167   
    529. A(Al 61,Al 68,H  75)           93.6449         0.412539   
    530. A(H  70,Al 68,Al 72)           86.5914         0.276153   
    531. A(H  69,Al 68,Al 72)            6.3762         0.264961   
    532. A(H  62,Al 68,Al 72)          112.5418         0.266302   
    533. A(Al 61,Al 68,Al 72)           80.7305         0.298230   
    534. A(H  69,Al 68,H  70)           92.9676         0.361310   
    535. A(H  62,Al 68,H  70)           96.4975         0.363384   
    536. A(Al 61,Al 68,H  70)          113.4137         0.412796   
    537. A(H  62,Al 68,H  69)          111.8081         0.346977   
    538. A(Al 61,Al 68,H  69)           78.1821         0.393434   
    539. A(Al 61,Al 68,H  62)           36.7456         0.395752   
    540. A(H  53,H  69,Al 72)           99.0890         0.112420   
    541. A(H  53,H  69,Al 68)           87.1636         0.112684   
    542. A(O  27,H  69,Al 72)           93.7630         0.151254   
    543. A(O  27,H  69,Al 68)           98.1443         0.151957   
    544. A(Al 68,H  69,Al 72)          167.2987         0.342168   
    545. A(O  27,H  69,H  53)           40.8987         0.094824   
    546. A(H  48,H  71,Al 60)          100.1773         0.129432   
    547. A(Al 76,Al 72,H  78)           37.9801         0.401788   
    548. A(H  74,Al 72,H  78)           95.2920         0.356221   
    549. A(H  73,Al 72,H  78)           76.0297         0.339538   
    550. A(H  69,Al 72,H  78)           74.7907         0.338911   
    551. A(Al 68,Al 72,H  78)           74.5539         0.262698   
    552. A(H  66,Al 72,H  78)          148.4458         0.338406   
    553. A(Al 60,Al 72,H  78)          145.2428         0.260924   
    554. A(H  74,Al 72,Al 76)          111.9438         0.424028   
    555. A(H  73,Al 72,Al 76)           38.0525         0.403112   
    556. A(H  69,Al 72,Al 76)           99.7484         0.402326   
    557. A(Al 68,Al 72,Al 76)           96.3675         0.306773   
    558. A(H  66,Al 72,Al 76)          135.8434         0.401693   
    559. A(Al 60,Al 72,Al 76)          135.3061         0.304549   
    560. A(H  73,Al 72,H  74)          120.3591         0.357352   
    561. A(H  69,Al 72,H  74)          111.8970         0.356680   
    562. A(Al 68,Al 72,H  74)          118.2106         0.275048   
    563. A(H  66,Al 72,H  74)          109.5305         0.356140   
    564. A(Al 60,Al 72,H  74)          111.1169         0.273148   
    565. A(H  69,Al 72,H  73)          121.4928         0.339969   
    566. A(Al 68,Al 72,H  73)          115.6989         0.263433   
    567. A(H  66,Al 72,H  73)          105.8299         0.339462   
    568. A(Al 60,Al 72,H  73)          107.0154         0.261652   
    569. A(Al 68,Al 72,H  69)            6.3251         0.262996   
    570. A(H  66,Al 72,H  69)           77.9538         0.338835   
    571. A(Al 60,Al 72,H  69)           74.5702         0.261219   
    572. A(H  66,Al 72,Al 68)           76.5995         0.262645   
    573. A(Al 60,Al 72,Al 68)           73.1773         0.208699   
    574. A(Al 72,H  73,Al 76)          103.5123         0.343596   
    575. A(O  27,H  74,H  52)          120.2428         0.094127   
    576. A(O  26,H  74,H  52)          144.0470         0.094232   
    577. A(O  17,H  74,H  52)           99.7149         0.094376   
    578. A(C  43,H  74,H  52)           20.1381         0.094851   
    579. A(C  41,H  74,H  52)          127.8388         0.094964   
    580. A(O  10,H  74,H  52)           89.6178         0.095758   
    581. A(H  52,H  74,Al 72)          110.8151         0.114261   
    582. A(O  30,H  74,H  52)           39.3451         0.093367   
    583. A(O  26,H  74,O  30)          115.7379         0.099247   
    584. A(O  17,H  74,O  30)           97.9212         0.099529   
    585. A(O  19,H  74,O  30)           48.6457         0.099708   
    586. A(O  30,H  74,C  43)           26.1548         0.100460   
    587. A(O  30,H  74,C  41)          119.6979         0.100681   
    588. A(O  10,H  74,O  30)           57.9135         0.102237   
    589. A(O  30,H  74,Al 72)          126.8269         0.138477   
    590. A(O  26,H  74,O  27)           60.0926         0.101032   
    591. A(O  17,H  74,O  27)          103.0101         0.101362   
    592. A(O  19,H  74,O  27)          118.9718         0.101573   
    593. A(O  27,H  74,C  43)          108.6125         0.102455   
    594. A(O  27,H  74,C  41)           87.6295         0.102715   
    595. A(O  10,H  74,O  27)           60.2054         0.104542   
    596. A(O  27,H  74,Al 72)           89.7782         0.147094   
    597. A(O  17,H  74,O  26)           51.0184         0.101615   
    598. A(O  19,H  74,O  26)          104.9334         0.101830   
    599. A(O  26,H  74,C  43)          124.8229         0.102730   
    600. A(O  26,H  74,C  41)           27.9196         0.102995   
    601. A(O  10,H  74,O  26)           58.2357         0.104860   
    602. A(O  26,H  74,Al 72)          105.1138         0.148279   
    603. A(O  27,H  74,O  30)           82.9415         0.099042   
    604. A(O  17,H  74,O  19)           59.9066         0.102182   
    605. A(O  17,H  74,C  43)           87.2333         0.103107   
    606. A(O  17,H  74,C  41)           28.1674         0.103380   
    607. A(O  10,H  74,O  17)           57.3581         0.105295   
    608. A(O  17,H  74,Al 72)          134.8224         0.149908   
    609. A(O  19,H  74,C  43)           28.2787         0.103348   
    610. A(O  19,H  74,C  41)           87.9746         0.103625   
    611. A(O  10,H  74,O  19)           62.7195         0.105574   
    612. A(O  19,H  74,Al 72)          146.0727         0.150948   
    613. A(C  41,H  74,C  43)          114.6414         0.104651   
    614. A(O  10,H  74,C  43)           69.5381         0.106736   
    615. A(C  43,H  74,Al 72)          129.6910         0.155294   
    616. A(O  10,H  74,C  41)           65.8721         0.107079   
    617. A(C  41,H  74,Al 72)          112.4639         0.156573   
    618. A(O  10,H  74,Al 72)          149.7297         0.165576   
    619. A(O  19,H  74,H  52)           40.5797         0.094467   
    620. A(C  47,H  75,H  53)           20.9127         0.094556   
    621. A(O  27,H  75,C  47)           25.0077         0.100267   
    622. A(C  47,H  75,Al 68)          106.8888         0.136569   
    623. A(O  27,H  75,H  53)           45.1206         0.096999   
    624. A(H  53,H  75,Al 68)          101.7471         0.122773   
    625. A(O  27,H  75,Al 68)          101.3391         0.157491   
    626. A(H  78,Al 76,H  79)           94.2808         0.363081   
    627. A(H  77,Al 76,H  79)          168.1179         0.379115   
    628. A(H  73,Al 76,H  79)           95.0090         0.362339   
    629. A(Al 72,Al 76,H  79)           96.3043         0.426235   
    630. A(H  77,Al 76,H  78)           94.4850         0.363185   
    631. A(H  73,Al 76,H  78)           77.0199         0.347329   
    632. A(Al 72,Al 76,H  78)           38.5876         0.407717   
    633. A(H  73,Al 76,H  77)           94.7649         0.362442   
    634. A(Al 72,Al 76,H  77)           95.5513         0.426363   
    635. A(Al 72,Al 76,H  73)           38.4353         0.406854   
    636. A(H  52,H  77,Al 76)          140.3018         0.128368   
    637. A(O  27,H  78,C  47)           25.8884         0.098998   
    638. A(O  27,H  78,H  53)           42.4754         0.095624   
    639. A(O  27,H  78,Al 76)          172.2371         0.135070   
    640. A(O  27,H  78,Al 72)           81.0795         0.134213   
    641. A(C  47,H  78,H  53)           23.1499         0.097083   
    642. A(C  47,H  78,Al 76)          147.4595         0.145215   
    643. A(C  47,H  78,Al 72)          105.5626         0.144169   
    644. A(H  53,H  78,Al 76)          133.7673         0.126243   
    645. A(H  53,H  78,Al 72)          122.7537         0.125550   
    646. A(Al 72,H  78,Al 76)          103.4324         0.343211   
    647. D(O   7,Zr  2,Zr  1,Zr  4)     -1.7658         0.010000   
    648. D(Zr  5,Zr  2,Zr  1,O   7)    109.4862         0.010000   
    649. D(Zr  5,Zr  2,Zr  1,Zr  4)    107.7203         0.010000   
    650. D(Zr  4,Zr  3,Zr  0,Zr  5)   -102.9213         0.010000   
    651. D(O   6,Zr  3,Zr  0,Zr  5)      1.6873         0.010000   
    652. D(Zr  4,Zr  3,Zr  0,O   6)   -104.6086         0.010000   
    653. D(O   7,Zr  4,Zr  3,Zr  0)     62.6169         0.010000   
    654. D(Zr  1,Zr  4,Zr  3,O   6)     62.5629         0.010000   
    655. D(Zr  1,Zr  4,Zr  3,Zr  0)     99.3062         0.010000   
    656. D(Zr  3,Zr  4,Zr  1,O   7)   -104.3576         0.010000   
    657. D(Zr  3,Zr  4,Zr  1,Zr  2)   -102.6080         0.010000   
    658. D(O   7,Zr  4,Zr  1,Zr  2)      1.7496         0.010000   
    659. D(Zr  0,Zr  5,Zr  2,O   7)    -69.3256         0.010000   
    660. D(Zr  2,Zr  5,Zr  0,O   6)    109.2954         0.010000   
    661. D(O   6,Zr  5,Zr  2,Zr  1)    -69.4870         0.010000   
    662. D(Zr  0,Zr  5,Zr  2,Zr  1)   -103.8536         0.010000   
    663. D(Zr  2,Zr  5,Zr  0,Zr  3)    107.5734         0.010000   
    664. D(O   6,Zr  5,Zr  0,Zr  3)     -1.7220         0.010000   
    665. D(Zr  0,O   6,Zr  5,Zr  2)    -61.8534         0.010000   
    666. D(Zr  3,O   6,Zr  5,Zr  0)    175.0838         0.010000   
    667. D(Zr  0,O   6,Zr  5,O   8)    -97.2067         0.010000   
    668. D(Zr  5,O   6,Zr  3,Zr  0)   -175.1450         0.010000   
    669. D(Zr  5,O   6,Zr  0,Zr  3)    177.2601         0.010000   
    670. D(Zr  0,O   6,Zr  3,O   9)     33.8943         0.010000   
    671. D(Zr  0,O   6,Zr  3,Zr  4)     68.0582         0.010000   
    672. D(Zr  3,O   6,Zr  0,O   9)    -32.9918         0.010000   
    673. D(Zr  3,O   6,Zr  0,Zr  5)   -177.2601         0.010000   
    674. D(Zr  2,O   7,Zr  1,O   8)     28.9239         0.010000   
    675. D(Zr  1,O   7,Zr  2,Zr  5)    -61.7633         0.010000   
    676. D(Zr  1,O   7,Zr  2,O   8)    -29.4342         0.010000   
    677. D(Zr  4,O   7,Zr  1,Zr  2)   -177.1772         0.010000   
    678. D(Zr  2,O   7,Zr  1,Zr  4)    177.1772         0.010000   
    679. D(Zr  4,O   7,Zr  2,Zr  1)    174.9082         0.010000   
    680. D(Zr  1,O   7,Zr  4,Zr  3)     68.1315         0.010000   
    681. D(Zr  2,O   7,Zr  4,Zr  1)   -174.9492         0.010000   
    682. D(Zr  1,O   7,Zr  4,O   9)    104.2754         0.010000   
    683. D(Zr  2,O   8,Zr  5,Zr  0)     48.2154         0.010000   
    684. D(Zr  1,O   8,Zr  5,Zr  2)   -133.1497         0.010000   
    685. D(Zr  1,O   8,Zr  5,Zr  0)    -84.9342         0.010000   
    686. D(Zr  1,O   8,Zr  2,O   7)     29.3253         0.010000   
    687. D(Zr  1,O   8,Zr  2,Zr  5)    143.3628         0.010000   
    688. D(Zr  5,O   8,Zr  2,Zr  1)   -143.3628         0.010000   
    689. D(Zr  2,O   8,Zr  1,O   7)    -29.4089         0.010000   
    690. D(Zr  2,O   8,Zr  1,Zr  4)    -47.9202         0.010000   
    691. D(Zr  5,O   8,Zr  1,Zr  2)    133.7592         0.010000   
    692. D(Zr  3,O   9,Zr  4,Zr  1)    -53.8277         0.010000   
    693. D(Zr  0,O   9,Zr  4,Zr  3)    127.1880         0.010000   
    694. D(Zr  0,O   9,Zr  3,Zr  4)   -144.3876         0.010000   
    695. D(Zr  0,O   9,Zr  3,O   6)    -32.3538         0.010000   
    696. D(Zr  0,O   9,Zr  4,Zr  1)     73.3603         0.010000   
    697. D(Zr  4,O   9,Zr  0,Zr  3)   -128.7741         0.010000   
    698. D(Zr  4,O   9,Zr  3,Zr  0)    144.3876         0.010000   
    699. D(Zr  3,O   9,Zr  0,O   6)     32.1684         0.010000   
    700. D(Zr  3,O   9,Zr  0,Zr  5)     52.4056         0.010000   
    701. D(Zr  3,O  10,Zr  4,Zr  1)    143.4280         0.010000   
    702. D(Zr  1,O  10,Zr  4,Zr  3)   -143.4280         0.010000   
    703. D(Zr  1,O  10,Zr  4,O   7)    -32.0922         0.010000   
    704. D(Zr  1,O  10,Zr  3,Zr  4)    126.0904         0.010000   
    705. D(Zr  1,O  10,Zr  3,Zr  0)     72.5816         0.010000   
    706. D(Zr  3,O  10,Zr  1,Zr  4)   -127.5664         0.010000   
    707. D(Zr  4,O  10,Zr  1,Zr  2)     52.2164         0.010000   
    708. D(Zr  4,O  10,Zr  3,Zr  0)    -53.5088         0.010000   
    709. D(Zr  3,O  10,Zr  1,Zr  2)    -75.3500         0.010000   
    710. D(Zr  2,O  11,Zr  5,Zr  0)   -141.3596         0.010000   
    711. D(Zr  0,O  11,Zr  5,O   6)     28.5579         0.010000   
    712. D(Zr  2,O  11,Zr  0,Zr  5)    131.5180         0.010000   
    713. D(Zr  0,O  11,Zr  5,Zr  2)    141.3596         0.010000   
    714. D(Zr  5,O  11,Zr  0,Zr  3)    -46.8754         0.010000   
    715. D(Zr  0,O  11,Zr  2,Zr  1)    -83.7305         0.010000   
    716. D(Zr  5,O  11,Zr  2,Zr  1)     47.3438         0.010000   
    717. D(Zr  0,O  11,Zr  2,Zr  5)   -131.0743         0.010000   
    718. D(Zr  2,O  11,Zr  0,Zr  3)     84.6426         0.010000   
    719. D(C  36,O  12,Zr  0,Zr  3)     98.7637         0.010000   
    720. D(C  36,O  12,Zr  0,Zr  5)     32.4020         0.010000   
    721. D(C  37,O  13,Zr  0,Zr  5)    -50.4744         0.010000   
    722. D(C  37,O  13,Zr  0,Zr  3)     -0.1963         0.010000   
    723. D(C  38,O  14,Zr  0,Zr  5)     74.9723         0.010000   
    724. D(C  38,O  14,Zr  0,Zr  3)     26.4446         0.010000   
    725. D(C  39,O  15,Zr  0,Zr  5)     53.4978         0.010000   
    726. D(C  39,O  15,Zr  0,Zr  3)    -30.7828         0.010000   
    727. D(C  40,O  16,Zr  1,Zr  4)     32.8563         0.010000   
    728. D(C  40,O  16,Zr  1,Zr  2)     75.5235         0.010000   
    729. D(H  74,O  17,Zr  1,Zr  2)    119.4840         0.010000   
    730. D(C  41,O  17,Zr  1,Zr  4)    -34.6339         0.010000   
    731. D(C  41,O  17,Zr  1,Zr  2)     50.8941         0.010000   
    732. D(C  42,O  18,Zr  1,Zr  4)    101.7991         0.010000   
    733. D(C  42,O  18,Zr  1,Zr  2)     34.8066         0.010000   
    734. D(H  74,O  19,Zr  1,Zr  2)   -122.2028         0.010000   
    735. D(C  43,O  19,Zr  1,Zr  4)      3.6211         0.010000   
    736. D(C  43,O  19,Zr  1,Zr  2)    -46.2565         0.010000   
    737. D(C  44,O  20,Zr  2,Zr  5)     26.9317         0.010000   
    738. D(C  44,O  20,Zr  2,Zr  1)    -20.0935         0.010000   
    739. D(C  38,O  21,Zr  2,Zr  5)      0.7971         0.010000   
    740. D(C  38,O  21,Zr  2,Zr  1)     76.6462         0.010000   
    741. D(C  42,O  22,Zr  2,Zr  5)     86.9920         0.010000   
    742. D(C  42,O  22,Zr  2,Zr  1)     27.0165         0.010000   
    743. D(C  45,O  23,Zr  2,Zr  5)     -0.6483         0.010000   
    744. D(C  45,O  23,Zr  2,Zr  1)     37.3733         0.010000   
    745. D(C  46,O  24,Zr  3,Zr  4)    -34.0170         0.010000   
    746. D(C  46,O  24,Zr  3,Zr  0)    -69.3342         0.010000   
    747. D(H  67,O  24,Zr  3,Zr  0)    158.7304         0.010000   
    748. D(C  37,O  25,Zr  3,Zr  4)    -67.8747         0.010000   
    749. D(C  37,O  25,Zr  3,Zr  0)     -1.5235         0.010000   
    750. D(H  74,O  26,Zr  3,Zr  0)   -117.3779         0.010000   
    751. D(C  41,O  26,Zr  3,Zr  4)     37.2437         0.010000   
    752. D(C  41,O  26,Zr  3,Zr  0)    -49.1996         0.010000   
    753. D(C  47,O  27,Zr  3,Zr  4)    -31.7584         0.010000   
    754. D(C  47,O  27,Zr  3,Zr  0)     16.4779         0.010000   
    755. D(H  75,O  27,Zr  3,Zr  0)   -110.1519         0.010000   
    756. D(C  47,O  28,Zr  4,Zr  3)    -28.4369         0.010000   
    757. D(C  47,O  28,Zr  4,Zr  1)     19.4794         0.010000   
    758. D(C  39,O  29,Zr  4,Zr  3)     30.9445         0.010000   
    759. D(C  39,O  29,Zr  4,Zr  1)    -54.3803         0.010000   
    760. D(H  74,O  30,Zr  4,Zr  1)     61.6303         0.010000   
    761. D(C  43,O  30,Zr  4,Zr  3)    -66.7125         0.010000   
    762. D(C  43,O  30,Zr  4,Zr  1)     -1.1397         0.010000   
    763. D(C  45,O  31,Zr  4,Zr  3)    -27.8643         0.010000   
    764. D(C  45,O  31,Zr  4,Zr  1)    -65.6101         0.010000   
    765. D(C  46,O  32,Zr  5,Zr  2)     -7.1849         0.010000   
    766. D(C  46,O  32,Zr  5,Zr  0)     33.2633         0.010000   
    767. D(C  36,O  33,Zr  5,Zr  2)     84.2964         0.010000   
    768. D(C  36,O  33,Zr  5,Zr  0)     24.7827         0.010000   
    769. D(C  40,O  34,Zr  5,Zr  2)      1.6413         0.010000   
    770. D(C  40,O  34,Zr  5,Zr  0)     76.0062         0.010000   
    771. D(C  44,O  35,Zr  5,Zr  2)     26.8932         0.010000   
    772. D(C  44,O  35,Zr  5,Zr  0)    -20.2207         0.010000   
    773. D(O  33,C  36,O  12,Zr  0)    -28.4880         0.045951   
    774. D(H  58,C  36,O  33,Zr  5)    165.3505         0.046354   
    775. D(O  12,C  36,O  33,Zr  5)    -13.7592         0.046354   
    776. D(H  58,C  36,O  12,Zr  0)    152.4028         0.045951   
    777. D(H  51,C  37,O  25,Zr  3)   -178.0595         0.047011   
    778. D(O  13,C  37,O  25,Zr  3)      2.0786         0.047011   
    779. D(H  51,C  37,O  13,Zr  0)    179.2910         0.046826   
    780. D(O  25,C  37,O  13,Zr  0)     -0.8471         0.046826   
    781. D(H  50,C  38,O  14,Zr  0)    163.9574         0.046531   
    782. D(O  21,C  38,O  14,Zr  0)    -15.1135         0.046531   
    783. D(H  50,C  38,O  21,Zr  2)    146.1305         0.045688   
    784. D(O  14,C  38,O  21,Zr  2)    -34.7995         0.045688   
    785. D(H  54,C  39,O  29,Zr  4)   -175.5425         0.048706   
    786. D(O  15,C  39,O  29,Zr  4)      5.1576         0.048706   
    787. D(H  54,C  39,O  15,Zr  0)    174.9147         0.048281   
    788. D(O  29,C  39,O  15,Zr  0)     -5.7853         0.048281   
    789. D(H  56,C  40,O  34,Zr  5)    143.7700         0.045604   
    790. D(O  16,C  40,O  34,Zr  5)    -37.3069         0.045604   
    791. D(H  56,C  40,O  16,Zr  1)    165.2520         0.046455   
    792. D(O  34,C  40,O  16,Zr  1)    -13.6728         0.046455   
    793. D(H  48,C  41,O  26,Zr  3)    171.4323         0.063205   
    794. D(O  17,C  41,O  26,H  74)     68.3240         0.063205   
    795. D(O  17,C  41,O  26,Zr  3)     -9.1045         0.063205   
    796. D(H  48,C  41,O  17,Zr  1)   -173.2417         0.058217   
    797. D(O  26,C  41,O  17,H  74)    -69.0054         0.058217   
    798. D(O  26,C  41,O  17,Zr  1)      7.2942         0.058217   
    799. D(H  49,C  42,O  22,Zr  2)    164.0860         0.046137   
    800. D(O  18,C  42,O  22,Zr  2)    -15.0910         0.046137   
    801. D(H  49,C  42,O  18,Zr  1)    150.4688         0.045785   
    802. D(O  22,C  42,O  18,Zr  1)    -30.3546         0.045785   
    803. D(H  52,C  43,O  30,Zr  4)   -176.2208         0.056437   
    804. D(O  19,C  43,O  30,H  74)    -74.3511         0.056437   
    805. D(O  19,C  43,O  30,Zr  4)      4.2798         0.056437   
    806. D(H  52,C  43,O  19,Zr  1)    174.4014         0.056428   
    807. D(O  30,C  43,O  19,H  74)     80.5552         0.056428   
    808. D(O  30,C  43,O  19,Zr  1)     -6.0988         0.056428   
    809. D(H  59,C  44,O  35,Zr  5)    160.3809         0.045947   
    810. D(O  20,C  44,O  35,Zr  5)    -19.6446         0.045947   
    811. D(H  59,C  44,O  20,Zr  2)    160.1260         0.045979   
    812. D(O  35,C  44,O  20,Zr  2)    -19.8485         0.045979   
    813. D(H  55,C  45,O  31,Zr  4)   -165.1243         0.047859   
    814. D(O  23,C  45,O  31,Zr  4)     15.8916         0.047859   
    815. D(H  55,C  45,O  23,Zr  2)   -175.3512         0.047697   
    816. D(O  31,C  45,O  23,Zr  2)      3.6332         0.047697   
    817. D(H  57,C  46,O  32,Zr  5)   -172.7484         0.047495   
    818. D(O  24,C  46,O  32,Zr  5)      6.2693         0.047495   
    819. D(H  57,C  46,O  24,Zr  3)   -162.3603         0.052889   
    820. D(O  32,C  46,O  24,H  67)    145.0263         0.052889   
    821. D(O  32,C  46,O  24,Zr  3)     18.6219         0.052889   
    822. D(H  53,C  47,O  28,Zr  4)   -161.4991         0.055282   
    823. D(O  27,C  47,O  28,Zr  4)     18.4889         0.055282   
    824. D(H  53,C  47,O  27,Zr  3)   -154.2538         0.070793   
    825. D(O  28,C  47,O  27,H  75)    159.0645         0.070793   
    826. D(O  28,C  47,O  27,Zr  3)     25.7582         0.070793   
    827. D(H  64,H  48,C  41,O  17)   -163.4008         0.148695   
    828. D(H  71,H  48,C  41,O  26)     79.6734         0.148695   
    829. D(H  71,H  48,C  41,O  17)    -99.8647         0.148695   
    830. D(H  74,H  52,C  43,O  19)     82.4635         0.132077   
    831. D(H  77,H  52,C  43,O  30)    -51.5704         0.132077   
    832. D(H  77,H  52,C  43,O  19)    127.9863         0.132077   
    833. D(H  75,H  53,C  47,O  27)     19.4098         0.150090   
    834. D(H  78,H  53,C  47,O  28)    108.0666         0.150090   
    835. D(H  78,H  53,C  47,O  27)    -71.9228         0.150090   
    836. D(H  63,Al 61,Al 60,H  64)    -51.6332         0.010000   
    837. D(H  62,Al 61,Al 60,H  65)    -16.2983         0.010000   
    838. D(H  62,Al 61,Al 60,H  64)   -138.4572         0.010000   
    839. D(Al 68,H  62,Al 61,H  63)    173.4445         0.010000   
    840. D(Al 68,H  62,Al 61,Al 60)    -80.5377         0.010000   
    841. D(Al 60,H  64,Al 61,H  63)    131.1065         0.010000   
    842. D(Al 60,H  64,Al 61,H  62)     55.1136         0.010000   
    843. D(H  48,H  64,Al 60,Al 61)    -98.1990         0.010000   
    844. D(Al 61,H  64,Al 60,H  66)     43.8452         0.010000   
    845. D(Al 61,H  64,Al 60,H  65)    -63.0956         0.010000   
    846. D(Al 61,H  64,H  48,C  41)     -0.7942         0.010000   
    847. D(Al 60,H  64,H  48,H  71)    -32.6398         0.010000   
    848. D(H  48,H  64,Al 61,Al 60)     84.6373         0.010000   
    849. D(Al 60,H  64,H  48,C  41)    106.2606         0.010000   
    850. D(H  48,H  66,Al 60,Al 61)     78.2495         0.010000   
    851. D(Al 72,H  66,Al 60,H  64)    -62.2499         0.010000   
    852. D(Al 72,H  66,Al 60,Al 61)    -37.9898         0.010000   
    853. D(Al 72,H  66,H  48,C  41)     20.2051         0.010000   
    854. D(Al 60,H  66,H  48,H  71)     35.3863         0.010000   
    855. D(Al 60,H  66,H  48,C  41)   -153.4778         0.010000   
    856. D(O  26,H  67,Al 61,Al 60)     51.3973         0.010000   
    857. D(O  24,H  67,Al 61,H  62)   -121.9260         0.010000   
    858. D(O  24,H  67,Al 61,Al 60)     58.4134         0.010000   
    859. D(O  24,H  67,O  26,Zr  3)    -46.3398         0.010000   
    860. D(Al 61,H  67,O  26,C  41)    -64.9108         0.010000   
    861. D(Al 61,H  67,O  26,Zr  3)    127.4693         0.010000   
    862. D(O  26,H  67,O  24,Zr  3)     44.2293         0.010000   
    863. D(Al 61,H  67,O  24,C  46)   -109.6281         0.010000   
    864. D(Al 61,H  67,O  24,Zr  3)     35.5502         0.010000   
    865. D(H  70,Al 68,H  62,Al 61)    121.0611         0.010000   
    866. D(H  69,Al 68,H  62,Al 61)     25.2244         0.010000   
    867. D(H  69,Al 68,Al 61,Al 60)    -50.3609         0.010000   
    868. D(H  62,Al 68,Al 61,H  63)     -7.4564         0.010000   
    869. D(H  62,Al 68,Al 61,Al 60)    105.7959         0.010000   
    870. D(O  27,H  69,Al 68,Al 61)    -87.5387         0.010000   
    871. D(Al 72,H  69,Al 68,H  62)     97.8917         0.010000   
    872. D(Al 72,H  69,Al 68,Al 61)    112.9903         0.010000   
    873. D(Al 72,H  69,H  53,C  47)    -64.6418         0.010000   
    874. D(Al 68,H  69,H  53,H  78)   -138.1745         0.010000   
    875. D(Al 68,H  69,H  53,C  47)    126.4799         0.010000   
    876. D(Al 72,H  69,O  27,Zr  3)    -85.1811         0.010000   
    877. D(Al 68,H  69,O  27,C  47)    -93.7714         0.010000   
    878. D(Al 68,H  69,O  27,Zr  3)     99.2506         0.010000   
    879. D(H  48,H  71,Al 60,H  64)    -53.2703         0.010000   
    880. D(H  48,H  71,Al 60,Al 61)    -26.6288         0.010000   
    881. D(Al 60,H  71,H  48,H  64)     34.3336         0.010000   
    882. D(Al 60,H  71,H  48,C  41)    -52.7999         0.010000   
    883. D(H  66,Al 72,H  69,Al 68)    -76.9511         0.010000   
    884. D(Al 60,Al 72,H  69,Al 68)    -76.3993         0.010000   
    885. D(H  66,Al 72,Al 68,Al 61)     35.7319         0.010000   
    886. D(Al 60,Al 72,Al 68,H  62)     17.1220         0.010000   
    887. D(Al 60,Al 72,Al 68,Al 61)     35.8943         0.010000   
    888. D(H  69,Al 72,H  66,Al 60)      8.9372         0.010000   
    889. D(Al 68,Al 72,H  66,H  48)   -112.4928         0.010000   
    890. D(Al 68,Al 72,H  66,Al 60)      2.6030         0.010000   
    891. D(H  69,Al 72,Al 60,Al 61)    -29.2379         0.010000   
    892. D(Al 60,Al 72,H  69,O  27)    123.9593         0.010000   
    893. D(Al 68,Al 72,Al 60,H  64)    -58.5420         0.010000   
    894. D(Al 68,Al 72,Al 60,Al 61)    -35.6609         0.010000   
    895. D(Al 76,H  73,Al 72,H  66)    147.9523         0.010000   
    896. D(Al 76,H  73,Al 72,Al 60)    144.6013         0.010000   
    897. D(Al 72,H  74,O  17,C  41)    -44.3737         0.010000   
    898. D(Al 72,H  74,O  17,Zr  1)    172.3495         0.010000   
    899. D(C  41,H  74,O  10,Zr  1)     70.8403         0.010000   
    900. D(Al 72,H  74,O  10,Zr  3)     26.0001         0.010000   
    901. D(Al 72,H  74,O  10,Zr  1)    164.4619         0.010000   
    902. D(C  41,H  74,Al 72,Al 60)     -9.8216         0.011688   
    903. D(O  10,H  74,Al 72,Al 60)    -90.0862         0.011688   
    904. D(O  10,H  74,H  52,C  43)      4.2681         0.010000   
    905. D(Al 72,H  74,H  52,H  77)     22.4665         0.010000   
    906. D(Al 72,H  74,H  52,C  43)    161.4066         0.010000   
    907. D(O  10,H  74,C  43,O  19)     70.1823         0.010000   
    908. D(Al 72,H  74,C  43,O  30)     94.4211         0.010000   
    909. D(Al 72,H  74,C  43,O  19)   -137.1613         0.010000   
    910. D(O  10,H  74,C  41,O  17)    -65.4461         0.010000   
    911. D(Al 72,H  74,C  41,O  26)    -79.7644         0.010000   
    912. D(Al 72,H  74,C  41,O  17)    147.5363         0.010000   
    913. D(O  10,H  74,O  30,Zr  4)    -21.4967         0.010000   
    914. D(Al 72,H  74,O  30,C  43)   -106.5695         0.010000   
    915. D(Al 72,H  74,O  30,Zr  4)    122.0172         0.010000   
[...]
      equations for an ideal gas
  (5) All vibrations are strictly harmonic

freq.      11.79  E(vib)   ...       0.58 
freq.      20.88  E(vib)   ...       0.56 
freq.      28.99  E(vib)   ...       0.55 
freq.      30.79  E(vib)   ...       0.55 
freq.      34.44  E(vib)   ...       0.54 
freq.      39.25  E(vib)   ...       0.54 
freq.      43.61  E(vib)   ...       0.53 
freq.      46.42  E(vib)   ...       0.53 
freq.      55.40  E(vib)   ...       0.52 
freq.      57.66  E(vib)   ...       0.51 
freq.      60.80  E(vib)   ...       0.51 
freq.      62.33  E(vib)   ...       0.51 
freq.      74.43  E(vib)   ...       0.49 
freq.      80.75  E(vib)   ...       0.48 
freq.      81.17  E(vib)   ...       0.48 
freq.      91.80  E(vib)   ...       0.47 
freq.      93.96  E(vib)   ...       0.47 
freq.      97.54  E(vib)   ...       0.46 
freq.     103.21  E(vib)   ...       0.46 
freq.     105.16  E(vib)   ...       0.45 
freq.     107.70  E(vib)   ...       0.45 
freq.     110.34  E(vib)   ...       0.45 
freq.     115.44  E(vib)   ...       0.44 
freq.     117.01  E(vib)   ...       0.44 
freq.     119.72  E(vib)   ...       0.44 
freq.     123.60  E(vib)   ...       0.43 
freq.     133.92  E(vib)   ...       0.42 
freq.     139.80  E(vib)   ...       0.41 
freq.     145.02  E(vib)   ...       0.41 
freq.     148.48  E(vib)   ...       0.41 
freq.     149.71  E(vib)   ...       0.40 
freq.     151.12  E(vib)   ...       0.40 
freq.     153.58  E(vib)   ...       0.40 
freq.     155.36  E(vib)   ...       0.40 
freq.     156.95  E(vib)   ...       0.40 
freq.     160.46  E(vib)   ...       0.39 
freq.     164.71  E(vib)   ...       0.39 
freq.     167.95  E(vib)   ...       0.38 
freq.     168.64  E(vib)   ...       0.38 
freq.     170.69  E(vib)   ...       0.38 
freq.     173.38  E(vib)   ...       0.38 
freq.     177.66  E(vib)   ...       0.37 
freq.     179.59  E(vib)   ...       0.37 
freq.     184.03  E(vib)   ...       0.37 
freq.     186.35  E(vib)   ...       0.37 
freq.     189.62  E(vib)   ...       0.36 
freq.     193.77  E(vib)   ...       0.36 
freq.     195.32  E(vib)   ...       0.36 
freq.     199.27  E(vib)   ...       0.35 
freq.     201.23  E(vib)   ...       0.35 
freq.     203.13  E(vib)   ...       0.35 
freq.     208.21  E(vib)   ...       0.34 
freq.     213.35  E(vib)   ...       0.34 
freq.     215.39  E(vib)   ...       0.34 
freq.     228.67  E(vib)   ...       0.32 
freq.     229.63  E(vib)   ...       0.32 
freq.     236.30  E(vib)   ...       0.32 
freq.     240.70  E(vib)   ...       0.31 
freq.     245.78  E(vib)   ...       0.31 
freq.     256.62  E(vib)   ...       0.30 
freq.     257.59  E(vib)   ...       0.30 
freq.     260.91  E(vib)   ...       0.30 
freq.     262.25  E(vib)   ...       0.29 
freq.     264.30  E(vib)   ...       0.29 
freq.     265.50  E(vib)   ...       0.29 
freq.     266.63  E(vib)   ...       0.29 
freq.     268.75  E(vib)   ...       0.29 
freq.     269.95  E(vib)   ...       0.29 
freq.     271.73  E(vib)   ...       0.29 
freq.     273.66  E(vib)   ...       0.28 
freq.     276.34  E(vib)   ...       0.28 
freq.     279.96  E(vib)   ...       0.28 
freq.     280.76  E(vib)   ...       0.28 
freq.     284.74  E(vib)   ...       0.28 
freq.     288.17  E(vib)   ...       0.27 
freq.     295.12  E(vib)   ...       0.27 
freq.     297.59  E(vib)   ...       0.27 
freq.     298.39  E(vib)   ...       0.26 
freq.     300.77  E(vib)   ...       0.26 
freq.     301.70  E(vib)   ...       0.26 
freq.     305.01  E(vib)   ...       0.26 
freq.     307.56  E(vib)   ...       0.26 
freq.     310.75  E(vib)   ...       0.26 
freq.     311.13  E(vib)   ...       0.26 
freq.     313.54  E(vib)   ...       0.25 
freq.     314.25  E(vib)   ...       0.25 
freq.     316.60  E(vib)   ...       0.25 
freq.     317.10  E(vib)   ...       0.25 
freq.     322.13  E(vib)   ...       0.25 
freq.     324.43  E(vib)   ...       0.25 
freq.     325.43  E(vib)   ...       0.24 
freq.     330.10  E(vib)   ...       0.24 
freq.     336.32  E(vib)   ...       0.24 
freq.     339.41  E(vib)   ...       0.23 
freq.     343.39  E(vib)   ...       0.23 
freq.     348.27  E(vib)   ...       0.23 
freq.     352.66  E(vib)   ...       0.22 
freq.     364.17  E(vib)   ...       0.22 
freq.     372.02  E(vib)   ...       0.21 
freq.     378.21  E(vib)   ...       0.21 
freq.     387.57  E(vib)   ...       0.20 
freq.     390.50  E(vib)   ...       0.20 
freq.     394.46  E(vib)   ...       0.20 
freq.     398.96  E(vib)   ...       0.19 
freq.     401.08  E(vib)   ...       0.19 
freq.     405.72  E(vib)   ...       0.19 
freq.     415.22  E(vib)   ...       0.19 
freq.     417.30  E(vib)   ...       0.18 
freq.     418.90  E(vib)   ...       0.18 
freq.     422.37  E(vib)   ...       0.18 
freq.     425.15  E(vib)   ...       0.18 
freq.     464.55  E(vib)   ...       0.16 
freq.     474.10  E(vib)   ...       0.15 
freq.     481.24  E(vib)   ...       0.15 
freq.     484.08  E(vib)   ...       0.15 
freq.     487.84  E(vib)   ...       0.15 
freq.     507.44  E(vib)   ...       0.14 
freq.     528.15  E(vib)   ...       0.13 
freq.     540.87  E(vib)   ...       0.12 
freq.     543.96  E(vib)   ...       0.12 
freq.     582.50  E(vib)   ...       0.11 
freq.     623.98  E(vib)   ...       0.09 
freq.     649.70  E(vib)   ...       0.08 
freq.     656.17  E(vib)   ...       0.08 
freq.     657.49  E(vib)   ...       0.08 
freq.     663.71  E(vib)   ...       0.08 
freq.     671.49  E(vib)   ...       0.08 
freq.     677.47  E(vib)   ...       0.08 
freq.     681.44  E(vib)   ...       0.08 
freq.     686.89  E(vib)   ...       0.07 
freq.     692.96  E(vib)   ...       0.07 
freq.     697.34  E(vib)   ...       0.07 
freq.     699.59  E(vib)   ...       0.07 
freq.     710.64  E(vib)   ...       0.07 
freq.     724.98  E(vib)   ...       0.06 
freq.     733.01  E(vib)   ...       0.06 
freq.     733.45  E(vib)   ...       0.06 
freq.     735.69  E(vib)   ...       0.06 
freq.     735.77  E(vib)   ...       0.06 
freq.     737.26  E(vib)   ...       0.06 
freq.     737.59  E(vib)   ...       0.06 
freq.     737.77  E(vib)   ...       0.06 
freq.     738.34  E(vib)   ...       0.06 
freq.     740.04  E(vib)   ...       0.06 
freq.     741.43  E(vib)   ...       0.06 
freq.     742.24  E(vib)   ...       0.06 
freq.     742.88  E(vib)   ...       0.06 
freq.     770.37  E(vib)   ...       0.05 
freq.     786.26  E(vib)   ...       0.05 
freq.     819.62  E(vib)   ...       0.05 
freq.     842.79  E(vib)   ...       0.04 
freq.     871.71  E(vib)   ...       0.04 
freq.     999.09  E(vib)   ...       0.02 
freq.     999.44  E(vib)   ...       0.02 
freq.     999.89  E(vib)   ...       0.02 
freq.    1000.28  E(vib)   ...       0.02 
freq.    1001.73  E(vib)   ...       0.02 
freq.    1002.58  E(vib)   ...       0.02 
freq.    1004.25  E(vib)   ...       0.02 
freq.    1005.29  E(vib)   ...       0.02 
freq.    1005.44  E(vib)   ...       0.02 
freq.    1005.88  E(vib)   ...       0.02 
freq.    1006.70  E(vib)   ...       0.02 
freq.    1006.88  E(vib)   ...       0.02 
freq.    1078.78  E(vib)   ...       0.02 
freq.    1339.47  E(vib)   ...       0.01 
freq.    1343.20  E(vib)   ...       0.01 
freq.    1346.53  E(vib)   ...       0.01 
freq.    1350.46  E(vib)   ...       0.01 
freq.    1350.80  E(vib)   ...       0.01 
freq.    1352.10  E(vib)   ...       0.01 
freq.    1354.37  E(vib)   ...       0.01 
freq.    1355.75  E(vib)   ...       0.01 
freq.    1356.57  E(vib)   ...       0.01 
freq.    1356.76  E(vib)   ...       0.01 
freq.    1358.53  E(vib)   ...       0.01 
freq.    1360.54  E(vib)   ...       0.01 
freq.    1361.54  E(vib)   ...       0.01 
freq.    1361.74  E(vib)   ...       0.01 
freq.    1363.16  E(vib)   ...       0.01 
freq.    1364.64  E(vib)   ...       0.01 
freq.    1365.06  E(vib)   ...       0.01 
freq.    1365.53  E(vib)   ...       0.01 
freq.    1365.66  E(vib)   ...       0.01 
freq.    1366.17  E(vib)   ...       0.01 
freq.    1366.60  E(vib)   ...       0.01 
freq.    1369.64  E(vib)   ...       0.01 
freq.    1370.58  E(vib)   ...       0.01 
freq.    1378.75  E(vib)   ...       0.01 
freq.    1388.61  E(vib)   ...       0.00 
freq.    1408.62  E(vib)   ...       0.00 
freq.    1538.34  E(vib)   ...       0.00 
freq.    1547.41  E(vib)   ...       0.00 
freq.    1560.03  E(vib)   ...       0.00 
freq.    1563.13  E(vib)   ...       0.00 
freq.    1566.66  E(vib)   ...       0.00 
freq.    1574.55  E(vib)   ...       0.00 
freq.    1576.14  E(vib)   ...       0.00 
freq.    1578.67  E(vib)   ...       0.00 
freq.    1628.05  E(vib)   ...       0.00 
freq.    1630.64  E(vib)   ...       0.00 
freq.    1631.26  E(vib)   ...       0.00 
freq.    1635.02  E(vib)   ...       0.00 
freq.    1637.03  E(vib)   ...       0.00 
freq.    1755.95  E(vib)   ...       0.00 
freq.    1838.48  E(vib)   ...       0.00 
freq.    1861.79  E(vib)   ...       0.00 
freq.    1876.11  E(vib)   ...       0.00 
freq.    1883.05  E(vib)   ...       0.00 
freq.    1894.63  E(vib)   ...       0.00 
freq.    1902.65  E(vib)   ...       0.00 
freq.    1903.35  E(vib)   ...       0.00 
freq.    1909.42  E(vib)   ...       0.00 
freq.    1927.41  E(vib)   ...       0.00 
freq.    1939.76  E(vib)   ...       0.00 
freq.    1954.49  E(vib)   ...       0.00 
freq.    1972.99  E(vib)   ...       0.00 
freq.    2876.14  E(vib)   ...       0.00 
freq.    2882.00  E(vib)   ...       0.00 
freq.    2882.50  E(vib)   ...       0.00 
freq.    2885.66  E(vib)   ...       0.00 
freq.    2889.93  E(vib)   ...       0.00 
freq.    2894.98  E(vib)   ...       0.00 
freq.    2896.52  E(vib)   ...       0.00 
freq.    2902.06  E(vib)   ...       0.00 
freq.    2906.80  E(vib)   ...       0.00 
freq.    2907.09  E(vib)   ...       0.00 
freq.    2908.14  E(vib)   ...       0.00 
freq.    2913.73  E(vib)   ...       0.00 

------------
INNER ENERGY
------------

The inner energy is: U= E(el) + E(ZPE) + E(vib) + E(rot) + E(trans)
    E(el)   - is the total energy from the electronic structure calculation
              = E(kin-el) + E(nuc-el) + E(el-el) + E(nuc-nuc)
    E(ZPE)  - the the zero temperature vibrational energy from the frequency calculation
    E(vib)  - the the finite temperature correction to E(ZPE) due to population
              of excited vibrational states
    E(rot)  - is the rotational thermal energy
    E(trans)- is the translational thermal energy

Summary of contributions to the inner energy U:
Electronic energy                ...  -4220.48065784 Eh
Zero point energy                ...      0.41238944 Eh     258.78 kcal/mol
Thermal vibrational correction   ...      0.06653041 Eh      41.75 kcal/mol
Thermal rotational correction    ...      0.00141627 Eh       0.89 kcal/mol
Thermal translational correction ...      0.00141627 Eh       0.89 kcal/mol
-----------------------------------------------------------------------
Total thermal energy                  -4219.99890544 Eh


Summary of corrections to the electronic energy:
(perhaps to be used in another calculation)
Total thermal correction                  0.06936295 Eh      43.53 kcal/mol
Non-thermal (ZPE) correction              0.41238944 Eh     258.78 kcal/mol
-----------------------------------------------------------------------
Total correction                          0.48175239 Eh     302.30 kcal/mol


--------
ENTHALPY
--------

The enthalpy is H = U + kB*T
                kB is Boltzmann's constant
Total thermal energy              ...  -4219.99890544 Eh 
Thermal Enthalpy correction       ...      0.00094421 Eh       0.59 kcal/mol
-----------------------------------------------------------------------
Total Enthalpy                    ...  -4219.99796124 Eh


Note: Only C1 symmetry has been detected, increase convergence thresholds 
      if your molecule has a higher symmetry. Symmetry factor of 1.0 is   
      used for the rotational entropy correction. 
 

Note: Rotational entropy computed according to Herzberg 
Infrared and Raman Spectra, Chapter V,1, Van Nostrand Reinhold, 1945 
Point Group:  C1, Symmetry Number:   1  
Rotational constants in cm-1:     0.001633     0.001036     0.000997 

Vibrational entropy computed according to the QRRHO of S. Grimme
Chem.Eur.J. 2012 18 9955 using a reference frequency of 100.0 cm-1


-------
ENTROPY
-------

The entropy contributions are T*S = T*(S(el)+S(vib)+S(rot)+S(trans))
     S(el)   - electronic entropy
     S(vib)  - vibrational entropy
     S(rot)  - rotational entropy
     S(trans)- translational entropy
The entropies will be listed as multiplied by the temperature to get
units of energy

Electronic entropy                ...      0.00000000 Eh      0.00 kcal/mol
Vibrational entropy               ...      0.11972962 Eh     75.13 kcal/mol
Rotational entropy                ...      0.01904702 Eh     11.95 kcal/mol
Translational entropy             ...      0.02253999 Eh     14.14 kcal/mol
-----------------------------------------------------------------------
Final entropy term                ...      0.16131663 Eh    101.23 kcal/mol

In case the symmetry of your molecule has not been determined correctly
or in case you have a reason to use a different symmetry number we print 
out the resulting rotational entropy values for sn=1,12:

 non-linear molecules -----------------------------------
|  sn= 1 | S(rot)=       0.01904702 Eh     11.95 kcal/mol|
|  sn= 2 | S(rot)=       0.01839257 Eh     11.54 kcal/mol|
|  sn= 3 | S(rot)=       0.01800973 Eh     11.30 kcal/mol|
|  sn= 4 | S(rot)=       0.01773811 Eh     11.13 kcal/mol|
|  sn= 5 | S(rot)=       0.01752742 Eh     11.00 kcal/mol|
|  sn= 6 | S(rot)=       0.01735528 Eh     10.89 kcal/mol|
|  sn= 7 | S(rot)=       0.01720973 Eh     10.80 kcal/mol|
|  sn= 8 | S(rot)=       0.01708365 Eh     10.72 kcal/mol|
|  sn= 9 | S(rot)=       0.01697245 Eh     10.65 kcal/mol|
|  sn=10 | S(rot)=       0.01687297 Eh     10.59 kcal/mol|
|  sn=11 | S(rot)=       0.01678298 Eh     10.53 kcal/mol|
|  sn=12 | S(rot)=       0.01670082 Eh     10.48 kcal/mol|
 linear molecules ---------------------------------------
|  Dinfh | S(rot)=       0.01185055 Eh      7.44 kcal/mol|
|  Cinfv | S(rot)=       0.01250501 Eh      7.85 kcal/mol|
 --------------------------------------------------------


-------------------
GIBBS FREE ENERGY
-------------------

The Gibbs free energy is G = H - T*S

Total enthalpy                    ...  -4219.99796124 Eh 
Total entropy correction          ...     -0.16131663 Eh   -101.23 kcal/mol
-----------------------------------------------------------------------
Final Gibbs free energy         ...  -4220.15927787 Eh

For completeness - the Gibbs free energy minus the electronic energy
G-E(el)                           ...      0.32137997 Eh    201.67 kcal/mol


Maximum memory used throughout the entire PROP-calculation: 157.6 MB

--------------------------------
SUGGESTED CITATIONS FOR THIS RUN
--------------------------------

Below you find a list of papers that are relevant to this ORCA run
We neither can nor want to force you to cite these papers, but we appreciate if you do
You receive ORCA, which is the product of decades of hard work by many enthusiastic individuals, for free
The only thing we kindly ask in return is that you cite our papers,
We deeply appreciate it, if you show your appreciation for ORCA by not just citing the generic ORCA reference.

Please note that relegating all ORCA citations to the supporting information does *not* help us.
SI sections are not indexed - citations you put there will not count into any citation statistics
But we need these citations in order to attract the funding resources that allow us to do what we are doing

Therefore, if you are a happy ORCA user, please consider citing a few of the papers listed below in the main body of your paper

In addition to the list printed below, the program has created the file run.bibtex that contains the list in bibtex format
You can import this file easily into all common literature databanks and citation aid programs


List of essential papers. We consider these as the minimum necessary citations

  1. Neese, F.
     Software update: the ORCA program system, version 6.0
     WIRES Comput. Molec. Sci. 2025 15(1), e70019
     doi.org/10.1002/wcms.7019

List of papers to cite with high priority. The work reported in these papers was absolutely
necessary for this run to complete.
Our perspective: the developers of density functionals and basis sets usually get cited in chemistry papers
Good! But without the algorithms to do something with them, the functionals or basis sets would not do anything.
Hence, in our opinion, the algorithm design and method developments papers are equally worthy of getting cited

  1. Neese, F.
     An improvement of the resolution of the identity approximation for the formation of the Coulomb matrix
     J. Comp. Chem. 2003 24(14), 1740-1747
     doi.org/10.1002/jcc.10318
  2. Grimme, S.; Antony, J.; Ehrlich, S.; Krieg, H.
     A consistent and accurate ab initio parametrization of density functional dispersion correction (DFT-D) for the 94 elements H-Pu
     J. Chem. Phys. 2010 132 , 154104
     doi.org/10.1063/1.3382344
  3. Grimme, S.; Ehrlich, S.; Goerigk, L.
     Effect of the damping function in dispersion corrected density functional theory
     J. Comput. Chem. 2011 32(7), 1456-1465
     doi.org/10.1002/jcc.21759
  4. Bykov, D.; Petrenko, T.; Izsak, R.; Kossmann, S.; Becker, U.; Valeev, E.; Neese, F.
     Efficient implementation of the analytic second derivatives of Hartree-Fock and hybrid DFT energies: a detailed analysis of different approximations
     Molec. Phys. 2015 113 , 1961-1977
     doi.org/10.1080/00268976.2015.1025114
  5. Helmich-Paris, B.
     A trust-region augmented Hessian implementation for restricted and unrestricted Hartree–Fock and Kohn–Sham methods
     J. Chem. Phys. 2021 154 , 164104
     doi.org/10.1063/5.0040798
  6. Neese, F.
     The SHARK Integral Generation and Digestion System
     J. Comp. Chem. 2022 44(3), 381
     doi.org/10.1002/jcc.26942

List of suggested additional citations. These are papers that are important in the 'surrounding' of 
of this run, or papers that preceded the highly important papers. If you like your results we are grateful for a citation.

  1. Neese, F.
     The ORCA program system
     WIRES Comput. Molec. Sci. 2012 2(1), 73-78
     doi.org/10.1002/wcms.81
  2. Neese, F.
     Software update: the ORCA program system, version 4.0
     WIRES Comput. Molec. Sci. 2018 8(1), 1-6
     doi.org/10.1002/wcms.1327
  3. Neese, F.; Wennmohs, F.; Becker, U.; Riplinger, C.
     The ORCA quantum chemistry program package
     J. Chem. Phys. 2020 152(22), 224108
     doi.org/10.1063/5.0004608
  4. Neese, F.
     Software update: The ORCA program system—Version 5.0
     WIRES Comput. Molec. Sci. 2022 12(1), e1606
     doi.org/10.1002/wcms.1606

List of optional additional citations

  1. Neese, F.
     Approximate second-order SCF convergence for spin unrestricted wavefunctions
     Chem. Phys. Lett. 2000 325(1-3), 93-98
     doi.org/10.1016/s0009-2614(00)00662-x

Timings for individual modules:

Sum of individual times          ...    10312.113 sec (= 171.869 min)
Startup calculation              ...      368.350 sec (=   6.139 min)   3.6 %
SCF iterations                   ...     2729.747 sec (=  45.496 min)  26.5 %
Property integrals               ...     2433.678 sec (=  40.561 min)  23.6 %
SCF Response                     ...     1695.982 sec (=  28.266 min)  16.4 %
Property calculations            ...     2142.298 sec (=  35.705 min)  20.8 %
SCF Gradient evaluation          ...      916.145 sec (=  15.269 min)   8.9 %
Geometry relaxation              ...       25.914 sec (=   0.432 min)   0.3 %
                             ****ORCA TERMINATED NORMALLY****
TOTAL RUN TIME: 0 days 2 hours 52 minutes 13 seconds 834 msec
