
                                 *****************
                                 * O   R   C   A *
                                 *****************

                                            #,                                       
                                            ###                                      
                                            ####                                     
                                            #####                                    
                                            ######                                   
                                           ########,                                 
                                     ,,################,,,,,                         
                               ,,#################################,,                 
                          ,,##########################################,,             
                       ,#########################################, ''#####,          
                    ,#############################################,,   '####,        
                  ,##################################################,,,,####,       
                ,###########''''           ''''###############################       
              ,#####''   ,,,,##########,,,,          '''####'''          '####       
            ,##' ,,,,###########################,,,                        '##       
           ' ,,###''''                  '''############,,,                           
         ,,##''                                '''############,,,,        ,,,,,,###''
      ,#''                                            '''#######################'''  
     '                                                          ''''####''''         
             ,#######,   #######,   ,#######,      ##                                
            ,#'     '#,  ##    ##  ,#'     '#,    #''#        ,####,    ,#,          
            ##       ##  ##   ,#'  ##            #'  '#       #'       ,# #          
            ##       ##  #######   ##           ,######,      #####,      #          
            '#,     ,#'  ##    ##  '#,     ,#' ,#      #,     #,   #      #          
             '#######'   ##     ##  '#######'  #'      '#     '####' #    #          



                #########################################################
                #                        -***-                          #
                #          Department of theory and spectroscopy        #
                #                                                       #
                #                      Frank Neese                      #
                #                                                       #
                #     Directorship, Architecture, Infrastructure        #
                #                    SHARK, DRIVERS                     #
                #        Core code/Algorithms in most modules           #
                #                                                       #
                #        Max Planck Institute fuer Kohlenforschung      #
                #                Kaiser Wilhelm Platz 1                 #
                #                 D-45470 Muelheim/Ruhr                 #
                #                      Germany                          #
                #                                                       #
                #                  All rights reserved                  #
                #                        -***-                          #
                #########################################################


                         Program Version 6.1.0  -  RELEASE   -
                                (GIT: $679e74b$)
                          ($2025-06-10 18:02:51 +0200$)


 With contributions from (in alphabetic order):
[Max-Planck-Institut fuer Kohlenforschung]                               
  Daniel Aravena         : Magnetic Suceptibility                        
  Michael Atanasov       : Ab Initio Ligand Field Theory (pilot matlab implementation)
  Alexander A. Auer      : GIAO ZORA, VPT2 properties, NMR spectrum      
  Ute Becker             : All parallelization in ORCA, NUMFREQ, NUMCALC 
  Giovanni Bistoni       : ED, misc. LED, open-shell LED, HFLD           
  Dmytro Bykov           : pre 5.0 version of the SCF Hessian            
  Marcos Casanova-Páez   : Triplet and SCS-CIS(D). UHF-(DLPNO)-IP/EA/STEOM-CCSD. UHF-CVS-IP/STEOM-CCSD   
  Vijay G. Chilkuri      : MRCI spin determinant printing, contributions to CSF-ICE 
  Pauline Colinet        : FMM embedding                                 
  Dipayan Datta          : RHF DLPNO-CCSD density                        
  Achintya Kumar Dutta   : EOM-CC, STEOM-CC                              
  Nicolas Foglia         : Exact transition moments, OPA infrastructure, MCD improvements    
  Dmitry Ganyushin       : Spin-Orbit,Spin-Spin,Magnetic field MRCI      
  Miquel Garcia-Rates    : C-PCM and meta-GGA Hessian, CCSD/C-PCM, Gaussian charge scheme 
  Tiago L. C. Gouveia    : GS-ROHF, GS-ROCIS                             
  Yang Guo               : DLPNO-NEVPT2, F12-NEVPT2, CIM, IAO-localization        
  Andreas Hansen         : Spin unrestricted coupled pair/coupled cluster methods 
  Ingolf Harden          : AUTO-CI MPn and infrastructure                
  Benjamin Helmich-Paris : MC-RPA, TRAH-(SCF,CASSCF), AVAS, COSX integrals, SCF dyn. polar., MC-PDFT, srDFT 
  Lee Huntington         : MR-EOM, pCC                                   
  Robert Izsak           : Overlap fitted RIJCOSX, COSX-SCS-MP3, EOM     
  Riya Kayal             : Wick's Theorem for AUTO-CI, AUTO-CI UHF-CCSDT 
  Emily Kempfer          : AUTO-CI RHF CISDT and CCSDT, approximate NEVPT4
  Christian Kollmar      : KDIIS, OOCD, Brueckner-CCSD(T), CCSD density, CASPT2, CASPT2-K, improved NEVPT2 
  Axel Koslowski         : Symmetry handling                             
  Simone Kossmann        : meta-GGA functionals, TD-DFT gradient, OOMP2, (MP2 Hessian; deprecated post 5.0) 
  Lucas Lang             : DCDCAS, Hyperfine gauge corrections, ICE-SOC+SSC
  Marvin Lechner         : AUTO-CI (C++ implementation), FIC-MRCC        
  Spencer Leger          : CASSCF response                               
  Dagmar Lenk            : GEPOL surface, SMD, ORCA-2-JSON               
  Dimitrios Liakos       : Extrapolation schemes; Compound Job, Property file
  Dimitrios Manganas     : Further ROCIS development; embedding schemes. LFT, Crystal Embedding 
  Dimitrios Pantazis     : SARC Basis sets                               
  Anastasios Papadopoulos: AUTO-CI, single reference methods and gradients 
  Taras Petrenko         : pre 6.0 DFT Hessian and TD-DFT gradient,  ECA, NRVS 
  Petra Pikulova         : Analytic Raman intensities                    
  Peter Pinski           : DLPNO-MP2, DLPNO-MP2 Gradient                 
  Shashank Vittal Rao    : ES-AILFT, MagRelax                            
  Christoph Reimann      : Effective Core Potentials                     
  Marius Retegan         : Local ZFS, SOC                                
  Christoph Riplinger    : Optimizer, TS searches, QM/MM, DLPNO-CCSD(T), (RO)-DLPNO pert. Triples 
  Michael Roemelt        : Original ROCIS implementation, recursive CI coupling coefficients
  Masaaki Saitow         : Open-shell DLPNO-CCSD energy and density      
  Barbara Sandhoefer     : DKH picture change effects                    
  Yorick L. A. Schmerwitz: GMF and freeze-and-release deltaSCF, NEB S-IDPP initial path                    
  Kantharuban Sivalingam : CASSCF convergence/infrastructure, NEVPT2, NEVPT3, NEVPT4(SD), FIC-MRCI and CEPA variants
  Bernardo de Souza      : ESD, SOC TD-DFT                               
  Georgi L. Stoychev     : AutoAux, RI-MP2 NMR, DLPNO-MP2 response, X2C  
  Van Anh Tran           : RI-MP2 g-tensors                              
  Willem Van den Heuvel  : Paramagnetic NMR                              
  Zikuan Wang            : NOTCH, Electric field optimization            
  Frank Wennmohs         : Technical directorship and infrastructure     
  Hang Xu                : AUTO-CI-Response properties                   
                                                                         
[FACCTs GmbH]                                                            
  Markus Bursch, Nicolas Foglia, Miquel Garcia-Rates, Ingolf Harden, Hagen Neugebauer, Anastasios Papadopoulos, 
  Christoph Riplinger, Bernardo de Souza, Georgi L. Stoychev                                                    
                                                                 
  APM, various basis sets, CI-OPT, improved COSX, DLPNO-Multilevel,           
  DOCKER, DRACO, updates on ESD, Fragmentator, GOAT, IRC, LR-CPCM, L-BFGS, MBIS, meta-GGA TD-DFT gradient, ML-optimized integration grids, 
  MM, NACMEs, nearIR, NEB, NEB-TS, NL-DFT gradient (VV10), 2- and 3-layer-ONIOM, interface openCOSMO-RS, QMMM,   
  Crystal-QMMM, RESP, rigid body optimization, SF, symmetry and pop. for TD-DFT, various functionals, SOLVATOR                                   
                                                                         
[Other institutions]                                                     
  V. Asgeirsson          : NEB                                           
  Christoph Bannwarth    : sTDA-DFT, sTD-DFT, PBEh-3c, B97-3c, D3        
  Giovanni Bistoni       : ETS/NOCV, ADLD/ADEX, COVALED                  
  Martin Brehm           : Molecular dynamics                            
  Ronald Cardenas        : ETS/NOCV                                      
  Martina Colucci        : COVALED                                       
  Sebastian Ehlert       : rSCAN, r2SCAN, r2SCAN-3c, D4, dhf basis sets  
  Marvin Friede          : D4 for Fr, Ra, Ac-Lr                          
  Lars Goerigk           : TD-DFT with DH, B97 family of functionals     
  Stefan Grimme          : VdW corrections, initial TS optimization, DFT functionals, gCP, sTDA/sTD-DF 
  Waldemar Hujo          : DFT-NL                                        
  H. Jonsson             : NEB                                           
  Holger Kruse           : gCP                                           
  Marcel Mueller         : wB97X-3c, vDZP basis set                      
  Hagen Neugebauer       : wr2SCAN, Native XTB                           
  Gianluca Regni         : ADLD/ADEX                                     
  Tobias Risthaus        : pre 6.0 range-separated hybrid DFT and stability analysis
  Lukas Wittmann         : regularized MP2, r2SCAN double-hybrids, wr2SCAN        
                                                                         
We gratefully acknowledge several colleagues who have allowed us to      
interface, adapt or use parts of their codes:                            
  Ed Valeev, F. Pavosevic, A. Kumar             : LibInt (2-el integral package), F12 methods 
  Garnet Chan, S. Sharma, J. Yang, R. Olivares  : DMRG                   
  Ulf Ekstrom                                   : XCFun DFT Library      
  Mihaly Kallay                                 : mrcc  (arbitrary order and MRCC methods)
  Frank Weinhold                                : gennbo (NPA and NBO analysis)           
  Simon Mueller                                 : openCOSMO-RS                            
  Christopher J. Cramer and Donald G. Truhlar   : smd solvation model                     
  S Lehtola, MJT Oliveira, MAL Marques          : LibXC Library                           
  Liviu Ungur et al                             : ANISO software                          


 Your calculation uses the libint2 library for the computation of 2-el integrals
 For citations please refer to: http://libint.valeyev.net

 Your ORCA version has been built with support for libXC version: 7.0.0
 For citations please refer to: https://libxc.gitlab.io

 This ORCA versions uses:
   CBLAS   interface :  Fast vector & matrix operations
   LAPACKE interface :  Fast linear algebra routines
   SCALAPACK package :  Parallel linear algebra routines
   Shared memory     :  Shared parallel matrices
   BLAS/LAPACK       :  OpenBLAS 0.3.29  USE64BITINT DYNAMIC_ARCH NO_AFFINITY Bulldozer SINGLE_THREADED
        Core in use  :  Bulldozer
   Copyright (c) 2011-2014, The OpenBLAS Project


  ***********************************
  * Starting time: Thu Aug 14 15:36:24 2025
  * Host name:     chromium10
  * Process ID:    230066
  * Working dir.:  /local/scratch/mehlhorn/61914
  ***********************************



***************************************
The coordinates will be read from file: start.xyz
***************************************


Your calculation utilizes the atom-pairwise dispersion correction
with the Becke-Johnson damping scheme (D3BJ)


Warning: RI is on but no J-basis has been assigned. Assigning Def2/J (nothing to worry about!)
================================================================================

----- Orbital basis set information -----
Your calculation utilizes the basis: def2-TZVP
   F. Weigend and R. Ahlrichs, Phys. Chem. Chem. Phys. 7, 3297 (2005).

----- AuxJ basis set information -----
Your calculation utilizes the auxiliary basis: def2/J
   H-Rn: F. Weigend, Phys. Chem. Chem. Phys. 8, 1057 (2006).
   Fr-Lr: K. Eichkorn, F. Weigend, O. Treutler, R. Ahlrichs; Theor. Chem. Acc. 97, 119 (1997).

================================================================================
                                        WARNINGS
                       Please study these warnings very carefully!
================================================================================


WARNING: Geometry Optimization
  ===> : Switching off AutoStart
         For restart on a previous wavefunction, please use MOREAD

================================================================================
                                       INPUT FILE
================================================================================
NAME = run.inp
|  1> # Geometry optimization for (AlH3)n cluster
|  2> 
|  3> %pal nprocs 24  end
|  4> 
|  5> %geom MaxIter 500 end
|  6> 
|  7> 
|  8> ! PBE def2-TZVP
|  9> ! RKS	# closed shell for AlH3
| 10> ! D3    #  dispersion correction
| 11> ! Freq 	# Frequency analysis to check the stabiltity of the structures
| 12> 
| 13> ! NoPop # population analysis not necessary	
| 14> 
| 15> ! DEFGRID3
| 16> ! TightSCF
| 17> ! TightOpt
| 18> 
| 19> ! SmallPrint
| 20> 
| 21> 
| 22> * xyzFile 0 1 start.xyz # only maingroup elements H and Al so there should be no net spin
| 23> 
| 24>                          ****END OF INPUT****
================================================================================

                       *****************************
                       * Geometry Optimization Run *
                       *****************************

Geometry optimization settings:
Update method            Update   .... BFGS
Choice of coordinates    CoordSys .... (2022) Redundant Internals
Initial Hessian          InHess   .... Almloef's Model
Max. no of cycles        MaxIter  .... 500

Convergence Tolerances:
Energy Change            TolE     ....  1.0000e-06 Eh
Max. Gradient            TolMAXG  ....  1.0000e-04 Eh/bohr
RMS Gradient             TolRMSG  ....  3.0000e-05 Eh/bohr
Max. Displacement        TolMAXD  ....  1.0000e-03 bohr
RMS Displacement         TolRMSD  ....  6.0000e-04 bohr
Strict Convergence                .... False

------------------------------------------------------------------------------
                        ORCA OPTIMIZATION COORDINATE SETUP
------------------------------------------------------------------------------

The optimization will be done in redundant internal coordinates (2022)
Making redundant internal coordinates   ...  (2022 redundants) done
Evaluating the initial hessian          ...  (Almloef) done
Evaluating the coordinates              ...  done
Calculating the B-matrix                .... done
Calculating the G-matrix                .... done
The number of degrees of freedom        ....  617

    -----------------------------------------------------------------
                    Redundant Internal Coordinates


    -----------------------------------------------------------------
         Definition                    Initial Value    Approx d2E/dq
    -----------------------------------------------------------------
      1. B(Al  1,Al  0)                  3.1361         0.050240   
      2. B(Al  2,Al  0)                  2.6995         0.249883   
      3. B(Al  2,Al  1)                  3.1581         0.046344   
      4. B(Al  3,Al  2)                  3.1780         0.043076   
      5. B(Al  3,Al  0)                  3.1362         0.050222   
      6. B(Al  4,Al  2)                  3.3442         0.023391   
      7. B(Al  5,Al  4)                  3.3145         0.026088   
      8. B(Al  6,Al  4)                  3.3249         0.025111   
      9. B(Al  6,Al  3)                  3.3079         0.026733   
     10. B(Al  7,Al  5)                  3.2238         0.036414   
     11. B(Al  7,Al  4)                  3.1393         0.049655   
     12. B(Al  7,Al  6)                  3.2748         0.030191   
     13. B(H   8,Al  7)                  1.5886         0.404188   
     14. B(H   9,Al  7)                  1.6657         0.304493   
     15. B(H   9,Al  4)                  1.8342         0.163921   
     16. B(H  10,Al  7)                  1.6475         0.325465   
     17. B(H  10,Al  6)                  1.8615         0.148299   
     18. B(H  11,Al  7)                  1.6496         0.323013   
     19. B(H  11,Al  5)                  1.8690         0.144276   
     20. B(H  12,Al  5)                  1.5932         0.397340   
     21. B(H  13,Al  5)                  1.5910         0.400560   
     22. B(H  14,Al  5)                  1.8901         0.133526   
     23. B(H  14,Al  1)                  1.6389         0.335886   
     24. B(H  15,Al  1)                  1.5896         0.402618   
     25. B(H  16,Al  5)                  1.7511         0.222437   
     26. B(H  16,Al  4)                  1.6942         0.274194   
     27. B(H  17,Al  2)                  1.7928         0.190858   
     28. B(H  17,Al  1)                  1.6636         0.306856   
     29. B(H  18,Al  4)                  1.7502         0.223181   
     30. B(H  18,Al  2)                  1.7125         0.256382   
     31. B(H  19,Al  2)                  1.5937         0.396587   
     32. B(H  20,Al  3)                  1.6658         0.304385   
     33. B(H  20,Al  2)                  1.7982         0.187149   
     34. B(H  21,Al  6)                  1.9038         0.126963   
     35. B(H  21,Al  3)                  1.6416         0.332652   
     36. B(H  22,Al  3)                  1.5895         0.402767   
     37. B(H  23,Al  6)                  1.5917         0.399510   
     38. B(H  24,Al  4)                  1.5884         0.404495   
     39. B(H  25,Al  6)                  1.7430         0.229222   
     40. B(H  25,Al  4)                  1.6885         0.279963   
     41. B(H  26,Al  0)                  1.5836         0.411681   
     42. B(H  27,Al  1)                  1.6586         0.312468   
     43. B(H  27,Al  0)                  1.8393         0.160924   
     44. B(H  28,Al  3)                  1.6588         0.312309   
     45. B(H  28,Al  0)                  1.8317         0.165443   
     46. B(H  29,Al  2)                  1.8809         0.138107   
     47. B(H  29,Al  0)                  1.6860         0.282578   
     48. B(H  30,Al  6)                  1.5931         0.397499   
     49. B(H  31,Al  2)                  1.9131         0.122679   
     50. B(H  31,Al  0)                  1.6767         0.292436   
     51. A(Al  2,Al  0,Al  3)           65.4941         0.335939   
     52. A(H  26,Al  0,H  31)          140.1311         0.365860   
     53. A(H  28,Al  0,H  29)           89.9655         0.312501   
     54. A(Al  3,Al  0,H  29)           76.8705         0.297154   
     55. A(Al  2,Al  0,H  27)           89.3485         0.352489   
     56. A(H  26,Al  0,H  29)          131.6026         0.363719   
     57. A(Al  2,Al  0,H  29)           43.5984         0.388300   
     58. A(Al  2,Al  0,H  28)           89.4437         0.354146   
     59. A(Al  1,Al  0,Al  3)          128.7286         0.260753   
     60. A(Al  1,Al  0,H  31)           67.4055         0.298793   
     61. A(Al  2,Al  0,H  31)           44.6640         0.390632   
     62. A(H  27,Al  0,H  29)           90.8037         0.311104   
     63. A(H  26,Al  0,H  27)           90.5110         0.330850   
     64. A(Al  3,Al  0,H  28)           24.6824         0.273401   
     65. A(H  27,Al  0,H  31)           87.9612         0.312835   
     66. A(Al  1,Al  0,H  28)          153.4007         0.273416   
     67. A(Al  3,Al  0,H  26)          115.2668         0.315659   
     68. A(H  26,Al  0,H  28)           90.8922         0.332370   
     69. A(Al  1,Al  0,H  29)           76.8397         0.297171   
     70. A(H  28,Al  0,H  31)           89.5037         0.314242   
     71. A(Al  1,Al  0,H  26)          115.1884         0.315677   
     72. A(Al  3,Al  0,H  27)          153.5118         0.272249   
     73. A(Al  1,Al  0,H  27)           24.8615         0.272264   
     74. A(Al  3,Al  0,H  31)           68.5724         0.298776   
     75. A(Al  1,Al  0,Al  2)           65.0257         0.335959   
     76. A(H  29,Al  0,H  31)           88.2617         0.343256   
     77. A(H  14,Al  1,H  17)          102.4558         0.356295   
     78. A(Al  2,Al  1,H  15)          132.1650         0.310455   
     79. A(Al  0,Al  1,Al  2)           50.7912         0.257657   
     80. A(H  15,Al  1,H  17)          113.4368         0.367486   
     81. A(H  17,Al  1,H  27)          101.5006         0.351958   
     82. A(H  14,Al  1,H  27)          107.0982         0.357393   
     83. A(H  14,Al  1,H  15)          116.3826         0.373242   
     84. A(Al  2,Al  1,H  17)           24.9486         0.297251   
     85. A(Al  0,Al  1,H  14)          104.3216         0.305475   
     86. A(Al  0,Al  1,H  17)           75.1415         0.301091   
     87. A(Al  2,Al  1,H  27)           78.0585         0.298107   
     88. A(Al  0,Al  1,H  27)           27.7887         0.301962   
     89. A(Al  2,Al  1,H  14)          101.4166         0.301556   
     90. A(Al  0,Al  1,H  15)          134.0380         0.314538   
     91. A(H  15,Al  1,H  27)          114.3079         0.368631   
     92. A(Al  1,Al  2,H  19)          113.8804         0.309700   
     93. A(Al  1,Al  2,H  20)          148.4223         0.275201   
     94. A(Al  4,Al  2,H  19)          121.8692         0.278057   
     95. A(H  20,Al  2,H  31)           84.6250         0.279274   
     96. A(H  17,Al  2,H  19)           94.5033         0.338255   
     97. A(Al  1,Al  2,H  29)           74.1679         0.262825   
     98. A(Al  3,Al  2,H  19)          111.9378         0.306077   
     99. A(H  17,Al  2,H  29)           88.3297         0.285315   
    100. A(Al  0,Al  2,Al  3)           63.8907         0.327508   
    101. A(Al  4,Al  2,H  29)          140.5448         0.237903   
    102. A(H  20,Al  2,H  29)           89.7805         0.284445   
    103. A(H  19,Al  2,H  29)           97.5349         0.320656   
    104. A(H  18,Al  2,H  29)          155.5645         0.298877   
    105. A(Al  4,Al  2,H  20)           85.3532         0.248504   
    106. A(H  18,Al  2,H  19)          106.8896         0.355474   
    107. A(Al  4,Al  2,H  31)           64.3617         0.233963   
    108. A(Al  0,Al  2,H  29)           38.1810         0.343526   
    109. A(Al  3,Al  2,H  29)           73.6710         0.259972   
    110. A(Al  0,Al  2,H  20)           86.2894         0.361648   
    111. A(Al  1,Al  2,Al  3)          126.3758         0.251885   
    112. A(H  17,Al  2,H  18)           89.0315         0.314820   
    113. A(H  18,Al  2,H  20)           88.9277         0.313820   
    114. A(Al  3,Al  2,H  18)           97.2724         0.285668   
    115. A(Al  1,Al  2,H  18)           94.7909         0.288950   
    116. A(Al  0,Al  2,H  18)          117.4012         0.381781   
    117. A(H  17,Al  2,H  20)          170.7000         0.299292   
    118. A(Al  3,Al  2,H  20)           22.5097         0.272145   
    119. A(Al  3,Al  2,Al  4)           88.4840         0.228532   
    120. A(Al  0,Al  2,Al  1)           64.1831         0.331488   
    121. A(Al  3,Al  2,H  31)           65.9544         0.255449   
    122. A(Al  0,Al  2,Al  4)          102.3760         0.296721   
    123. A(H  29,Al  2,H  31)           76.2097         0.266627   
    124. A(Al  1,Al  2,H  31)           65.4134         0.258226   
    125. A(Al  0,Al  2,H  17)           86.5991         0.362862   
    126. A(Al  1,Al  2,Al  4)           90.1142         0.230860   
    127. A(Al  4,Al  2,H  18)           15.1992         0.260282   
    128. A(Al  3,Al  2,H  17)          149.4089         0.272960   
    129. A(Al  1,Al  2,H  17)           23.0413         0.276030   
    130. A(H  19,Al  2,H  31)          173.7074         0.314528   
    131. A(Al  4,Al  2,H  17)           90.3280         0.249214   
    132. A(H  19,Al  2,H  20)           94.7718         0.337150   
    133. A(H  17,Al  2,H  31)           86.0810         0.280121   
    134. A(Al  0,Al  2,H  31)           38.0292         0.336793   
    135. A(H  18,Al  2,H  31)           79.3754         0.293324   
    136. A(Al  0,Al  2,H  19)          135.7091         0.412164   
    137. A(Al  2,Al  3,H  21)          105.0065         0.297610   
    138. A(Al  2,Al  3,H  20)           24.4103         0.293458   
    139. A(Al  2,Al  3,Al  6)           89.0078         0.232813   
    140. A(H  21,Al  3,H  28)          106.8317         0.356775   
    141. A(H  20,Al  3,H  28)          101.1718         0.351447   
    142. A(Al  6,Al  3,H  28)           87.7350         0.273601   
    143. A(Al  6,Al  3,H  20)           95.2963         0.272531   
    144. A(Al  0,Al  3,H  28)           27.4600         0.301921   
    145. A(Al  0,Al  3,Al  6)           82.3584         0.237897   
    146. A(Al  0,Al  3,H  21)          105.0399         0.304984   
    147. A(Al  6,Al  3,H  21)           22.7893         0.276257   
    148. A(Al  0,Al  3,H  20)           74.9189         0.300686   
    149. A(H  21,Al  3,H  22)          116.4228         0.372644   
    150. A(H  22,Al  3,H  28)          114.1964         0.368622   
    151. A(H  20,Al  3,H  22)          113.4464         0.367000   
    152. A(Al  6,Al  3,H  22)          137.9276         0.284541   
    153. A(Al  2,Al  3,H  22)          129.3376         0.306839   
    154. A(Al  0,Al  3,H  22)          133.1034         0.314539   
    155. A(Al  0,Al  3,Al  2)           50.6152         0.254875   
    156. A(H  20,Al  3,H  21)          103.1264         0.355222   
    157. A(Al  2,Al  3,H  28)           77.3716         0.294651   
    158. A(Al  5,Al  4,H   9)           79.0491         0.247662   
    159. A(Al  2,Al  4,Al  6)           85.9745         0.212488   
    160. A(Al  2,Al  4,H   9)          158.1811         0.243791   
    161. A(H  18,Al  4,H  24)           97.2797         0.348396   
    162. A(Al  7,Al  4,H  24)          114.3754         0.314178   
    163. A(Al  2,Al  4,H  25)           75.8481         0.263728   
    164. A(H  16,Al  4,H  18)           88.3685         0.326544   
    165. A(Al  5,Al  4,H  18)           96.6381         0.259140   
    166. A(Al  2,Al  4,H  18)           14.8637         0.254989   
    167. A(Al  2,Al  4,Al  5)           87.8824         0.213560   
    168. A(Al  6,Al  4,H  25)           14.5500         0.266557   
    169. A(Al  7,Al  4,H  18)          148.3224         0.285822   
    170. A(H   9,Al  4,H  18)          173.0383         0.300434   
    171. A(H   9,Al  4,H  16)           88.7054         0.310519   
    172. A(H  18,Al  4,H  25)           87.1288         0.327666   
    173. A(Al  6,Al  4,Al  7)           60.7943         0.235426   
    174. A(Al  6,Al  4,H  18)           98.7227         0.257677   
    175. A(H   9,Al  4,H  25)           87.7784         0.311565   
    176. A(H  24,Al  4,H  25)          127.1020         0.362051   
    177. A(H  16,Al  4,H  25)          108.0970         0.339049   
    178. A(Al  7,Al  4,H  16)           73.1022         0.295209   
    179. A(Al  6,Al  4,H  16)           99.5336         0.265722   
    180. A(Al  5,Al  4,H  25)           94.6625         0.268097   
    181. A(Al  5,Al  4,H  16)           16.1091         0.267255   
    182. A(Al  5,Al  4,Al  7)           59.8616         0.236696   
    183. A(Al  2,Al  4,H  16)           82.9379         0.262906   
    184. A(H  16,Al  4,H  24)          124.6523         0.360768   
    185. A(H   9,Al  4,H  24)           89.5790         0.330896   
    186. A(Al  6,Al  4,H  24)          133.1953         0.281978   
    187. A(Al  5,Al  4,H  24)          136.4088         0.283652   
    188. A(Al  2,Al  4,H  24)          111.7474         0.278904   
    189. A(Al  2,Al  4,Al  7)          133.8228         0.233093   
    190. A(Al  5,Al  4,Al  6)           84.6195         0.215576   
    191. A(Al  7,Al  4,H   9)           24.9072         0.272543   
    192. A(Al  6,Al  4,H   9)           75.5460         0.246297   
    193. A(Al  7,Al  4,H  25)           75.0704         0.296183   
    194. A(H  12,Al  5,H  13)          136.8993         0.383918   
    195. A(H  11,Al  5,H  13)           90.2976         0.323487   
    196. A(Al  7,Al  5,H  13)          108.6714         0.298449   
    197. A(Al  4,Al  5,H  13)          121.3204         0.283222   
    198. A(H  11,Al  5,H  12)           94.6347         0.323060   
    199. A(Al  7,Al  5,H  12)           89.0671         0.298067   
    200. A(Al  4,Al  5,H  12)          101.4646         0.282868   
    201. A(Al  7,Al  5,H  11)           22.1047         0.255228   
    202. A(Al  4,Al  5,H  11)           77.1442         0.243143   
    203. A(Al  4,Al  5,Al  7)           57.3697         0.226684   
    204. A(H  14,Al  5,H  16)           81.3204         0.290691   
    205. A(H  13,Al  5,H  16)          110.6641         0.347627   
    206. A(H  12,Al  5,H  16)          112.2936         0.347155   
    207. A(H  11,Al  5,H  16)           87.7980         0.294258   
    208. A(Al  7,Al  5,H  16)           70.1959         0.272340   
    209. A(Al  4,Al  5,H  16)           15.5717         0.259012   
    210. A(H  13,Al  5,H  14)           89.1489         0.319413   
    211. A(H  12,Al  5,H  14)           93.8571         0.318993   
    212. A(H  11,Al  5,H  14)          168.1385         0.271866   
    213. A(Al  7,Al  5,H  14)          150.1849         0.252340   
    214. A(Al  4,Al  5,H  14)           93.0568         0.240465   
    215. A(H  25,Al  6,H  30)          114.6719         0.348940   
    216. A(H  23,Al  6,H  30)          136.5209         0.383769   
    217. A(H  21,Al  6,H  30)           93.6164         0.316405   
    218. A(Al  7,Al  6,H  30)          103.7717         0.289403   
    219. A(Al  4,Al  6,H  30)          112.9757         0.281218   
    220. A(Al  3,Al  6,H  30)           79.7621         0.283960   
    221. A(Al  4,Al  6,Al  7)           56.8010         0.219832   
    222. A(Al  3,Al  6,Al  7)          142.0788         0.221698   
    223. A(H  10,Al  6,H  30)           90.5426         0.324542   
    224. A(H  23,Al  6,H  25)          108.5867         0.349237   
    225. A(Al  7,Al  6,H  10)           19.7478         0.249320   
    226. A(H  21,Al  6,H  25)           79.7894         0.289765   
    227. A(H  10,Al  6,H  25)           89.3630         0.296949   
    228. A(Al  7,Al  6,H  25)           70.6266         0.265926   
    229. A(Al  4,Al  6,H  25)           14.0861         0.258700   
    230. A(Al  4,Al  6,H  10)           75.3133         0.242772   
    231. A(Al  3,Al  6,H  25)           73.7027         0.261120   
    232. A(Al  3,Al  6,H  10)          154.4008         0.244965   
    233. A(H  21,Al  6,H  23)           89.7040         0.316665   
    234. A(H  10,Al  6,H  23)           94.1701         0.324812   
    235. A(Al  3,Al  6,Al  4)           86.6749         0.216278   
    236. A(Al  7,Al  6,H  23)           94.1120         0.289632   
    237. A(Al  4,Al  6,H  23)          110.0161         0.281438   
    238. A(Al  3,Al  6,H  23)          109.2108         0.284182   
    239. A(H  10,Al  6,H  21)          169.1453         0.270921   
    240. A(Al  7,Al  6,H  21)          149.8365         0.243781   
    241. A(Al  4,Al  6,H  21)           93.8337         0.237459   
    242. A(Al  3,Al  6,H  21)           19.5116         0.239577   
    243. A(Al  6,Al  7,H   8)          128.3432         0.290162   
    244. A(Al  5,Al  7,H   8)          141.3066         0.298877   
    245. A(H  10,Al  7,H  11)          104.4817         0.357495   
    246. A(H   9,Al  7,H  11)          100.9948         0.353478   
    247. A(Al  4,Al  7,H   8)          142.5297         0.314139   
    248. A(H   8,Al  7,H  11)          116.2904         0.370987   
    249. A(Al  5,Al  7,Al  6)           86.8988         0.231313   
    250. A(Al  6,Al  7,H  11)          108.3334         0.280209   
    251. A(Al  5,Al  7,H  11)           25.2360         0.288493   
    252. A(Al  4,Al  7,H  11)           85.2703         0.303000   
    253. A(Al  4,Al  7,Al  6)           62.4047         0.241661   
    254. A(H   9,Al  7,H  10)          101.2104         0.353931   
    255. A(H   8,Al  7,H  10)          116.6708         0.371470   
    256. A(Al  6,Al  7,H  10)           22.4428         0.280536   
    257. A(Al  4,Al  7,Al  5)           62.7687         0.248276   
    258. A(Al  5,Al  7,H  10)           89.8277         0.288835   
    259. A(Al  4,Al  7,H  10)           83.4058         0.303367   
    260. A(H   8,Al  7,H   9)          114.9363         0.367244   
    261. A(Al  6,Al  7,H   9)           78.7756         0.277671   
    262. A(Al  5,Al  7,H   9)           83.9796         0.285845   
    263. A(Al  4,Al  7,H   9)           27.6307         0.300159   
    264. A(Al  4,H   9,Al  7)          127.4621         0.315837   
    265. A(Al  6,H  10,Al  7)          137.8094         0.314121   
    266. A(Al  5,H  11,Al  7)          132.6593         0.312341   
    267. A(Al  1,H  14,Al  5)          147.3148         0.310411   
    268. A(Al  4,H  16,Al  5)          148.3192         0.326365   
    269. A(Al  1,H  17,Al  2)          132.0101         0.324195   
    270. A(Al  2,H  18,Al  4)          149.9371         0.322960   
    271. A(Al  2,H  20,Al  3)          133.0800         0.322725   
    272. A(Al  3,H  21,Al  6)          137.6991         0.307421   
    273. A(Al  4,H  25,Al  6)          151.3639         0.329114   
    274. A(Al  0,H  27,Al  1)          127.3497         0.316217   
    275. A(Al  0,H  28,Al  3)          127.8576         0.317619   
    276. A(Al  0,H  29,Al  2)           98.2206         0.303549   
    277. A(Al  0,H  31,Al  2)           97.3067         0.299501   
    278. D(H  14,Al  1,Al  0,Al  2)     93.1741         0.010000   
    279. D(H  14,Al  1,Al  0,H  27)    -99.5795         0.010000   
    280. D(H  14,Al  1,Al  0,H  29)    137.8142         0.010000   
    281. D(Al  2,Al  1,Al  0,H  28)    -17.4350         0.010000   
    282. D(Al  2,Al  1,Al  0,Al  3)    -16.2462         0.010000   
    283. D(H  14,Al  1,Al  0,H  26)    -92.1287         0.010000   
    284. D(H  14,Al  1,Al  0,Al  3)     76.9280         0.010000   
    285. D(Al  2,Al  1,Al  0,H  27)    167.2464         0.010000   
    286. D(H  14,Al  1,Al  0,H  28)     75.7392         0.010000   
    287. D(Al  2,Al  1,Al  0,H  26)    174.6971         0.010000   
    288. D(Al  2,Al  1,Al  0,H  31)    -49.0041         0.010000   
    289. D(Al  2,Al  1,Al  0,H  29)     44.6401         0.010000   
    290. D(Al  4,Al  2,Al  0,H  29)    178.7873         0.010000   
    291. D(Al  4,Al  2,Al  0,H  28)     88.2529         0.010000   
    292. D(Al  3,Al  2,Al  0,H  27)   -171.4477         0.010000   
    293. D(Al  0,Al  2,Al  1,H  27)      6.0385         0.010000   
    294. D(Al  1,Al  2,Al  0,H  28)    172.2898         0.010000   
    295. D(Al  3,Al  2,Al  1,H  27)     21.5544         0.010000   
    296. D(Al  1,Al  2,Al  0,H  27)     -5.3258         0.010000   
    297. D(Al  4,Al  2,Al  0,H  31)     -1.6039         0.010000   
    298. D(Al  4,Al  2,Al  1,Al  0)    103.7170         0.010000   
    299. D(Al  0,Al  2,Al  1,H  14)    -99.2614         0.010000   
    300. D(Al  4,Al  2,Al  0,Al  3)     82.0850         0.010000   
    301. D(H  17,Al  2,Al  1,Al  0)   -165.7134         0.010000   
    302. D(Al  0,Al  2,Al  1,H  15)    118.1315         0.010000   
    303. D(Al  3,Al  2,Al  1,H  14)    -83.7455         0.010000   
    304. D(Al  4,Al  2,Al  1,H  15)   -138.1515         0.010000   
    305. D(Al  3,Al  2,Al  1,H  15)    133.6474         0.010000   
    306. D(H  17,Al  2,Al  0,Al  1)      5.5524         0.010000   
    307. D(Al  0,Al  2,Al  1,H  17)    165.7134         0.010000   
    308. D(Al  4,Al  2,Al  1,H  27)    109.7555         0.010000   
    309. D(Al  3,Al  2,Al  0,H  31)    -83.6889         0.010000   
    310. D(Al  3,Al  2,Al  0,Al  1)   -166.1219         0.010000   
    311. D(Al  3,Al  2,Al  0,H  28)      6.1679         0.010000   
    312. D(Al  4,Al  2,Al  0,H  27)    -89.3627         0.010000   
    313. D(Al  4,Al  2,Al  1,H  17)    -90.5696         0.010000   
    314. D(Al  4,Al  2,Al  0,Al  1)    -84.0369         0.010000   
    315. D(Al  1,Al  2,Al  0,H  29)    -97.1758         0.010000   
    316. D(Al  1,Al  2,Al  0,H  31)     82.4330         0.010000   
    317. D(Al  3,Al  2,Al  1,Al  0)     15.5159         0.010000   
    318. D(Al  1,Al  2,Al  0,Al  3)    166.1219         0.010000   
    319. D(Al  4,Al  2,Al  1,H  14)      4.4556         0.010000   
    320. D(Al  3,Al  2,Al  0,H  29)     96.7022         0.010000   
    321. D(Al  3,Al  2,Al  1,H  17)   -178.7707         0.010000   
    322. D(Al  0,Al  3,Al  2,H  17)    -16.5009         0.010000   
    323. D(Al  6,Al  3,Al  0,H  31)    -46.3826         0.010000   
    324. D(Al  0,Al  3,Al  2,H  20)    173.9203         0.010000   
    325. D(Al  0,Al  3,Al  2,Al  1)    -15.5555         0.010000   
    326. D(Al  6,Al  3,Al  0,H  27)    -75.5468         0.010000   
    327. D(Al  6,Al  3,Al  0,H  29)   -139.7121         0.010000   
    328. D(Al  0,Al  3,Al  2,H  18)   -117.0091         0.010000   
    329. D(Al  0,Al  3,Al  2,H  19)    131.4512         0.010000   
    330. D(Al  2,Al  3,Al  0,H  31)     48.6395         0.010000   
    331. D(Al  6,Al  3,Al  0,H  28)     99.8866         0.010000   
    332. D(Al  6,Al  3,Al  0,Al  1)    -78.8388         0.010000   
    333. D(Al  6,Al  3,Al  0,H  26)     90.2108         0.010000   
    334. D(Al  0,Al  3,Al  2,Al  4)   -104.5803         0.010000   
    335. D(Al  2,Al  3,Al  0,H  29)    -44.6900         0.010000   
    336. D(Al  2,Al  3,Al  0,H  27)     19.4754         0.010000   
    337. D(Al  2,Al  3,Al  0,H  28)   -165.0912         0.010000   
    338. D(Al  6,Al  3,Al  0,Al  2)    -95.0222         0.010000   
    339. D(Al  2,Al  3,Al  0,H  26)   -174.7670         0.010000   
    340. D(Al  6,Al  3,Al  2,H  17)     64.4167         0.010000   
    341. D(Al  2,Al  3,Al  0,Al  1)     16.1834         0.010000   
    342. D(Al  6,Al  3,Al  2,H  29)    120.6891         0.010000   
    343. D(Al  6,Al  3,Al  2,H  19)   -147.6312         0.010000   
    344. D(Al  6,Al  3,Al  2,H  18)    -36.0915         0.010000   
    345. D(Al  6,Al  3,Al  2,H  20)   -105.1621         0.010000   
    346. D(Al  6,Al  3,Al  2,Al  4)    -23.6627         0.010000   
    347. D(Al  6,Al  3,Al  2,Al  1)     65.3621         0.010000   
    348. D(Al  0,Al  3,Al  2,H  31)    -42.1070         0.010000   
    349. D(Al  6,Al  3,Al  2,Al  0)     80.9176         0.010000   
    350. D(Al  0,Al  3,Al  2,H  29)     39.7715         0.010000   
    351. D(Al  6,Al  4,Al  2,H  29)    -38.0655         0.010000   
    352. D(Al  6,Al  4,Al  2,H  20)     45.9185         0.010000   
    353. D(Al  6,Al  4,Al  2,H  19)    138.6551         0.010000   
    354. D(Al  6,Al  4,Al  2,H  31)    -40.3411         0.010000   
    355. D(Al  6,Al  4,Al  2,H  17)   -125.8353         0.010000   
    356. D(Al  6,Al  4,Al  2,Al  3)     23.5921         0.010000   
    357. D(Al  5,Al  4,Al  2,H  19)   -136.5927         0.010000   
    358. D(Al  5,Al  4,Al  2,H  20)    130.6707         0.010000   
    359. D(Al  5,Al  4,Al  2,Al  1)    -18.0426         0.010000   
    360. D(Al  5,Al  4,Al  2,H  17)    -41.0831         0.010000   
    361. D(Al  5,Al  4,Al  2,Al  3)    108.3443         0.010000   
    362. D(Al  5,Al  4,Al  2,H  29)     46.6867         0.010000   
    363. D(Al  6,Al  4,Al  2,H  18)    149.0719         0.010000   
    364. D(Al  5,Al  4,Al  2,Al  0)     45.5071         0.010000   
    365. D(Al  5,Al  4,Al  2,H  18)   -126.1759         0.010000   
    366. D(Al  6,Al  4,Al  2,Al  0)    -39.2452         0.010000   
    367. D(Al  6,Al  4,Al  2,Al  1)   -102.7949         0.010000   
    368. D(Al  5,Al  4,Al  2,H  31)     44.4111         0.010000   
    369. D(H  11,Al  5,Al  4,H  24)     83.9227         0.010000   
    370. D(H  11,Al  5,Al  4,H  18)   -168.1831         0.010000   
    371. D(H  11,Al  5,Al  4,Al  7)    -10.7965         0.010000   
    372. D(H  11,Al  5,Al  4,H   9)      6.2856         0.010000   
    373. D(H  11,Al  5,Al  4,Al  6)    -69.9969         0.010000   
    374. D(H  11,Al  5,Al  4,Al  2)   -156.1508         0.010000   
    375. D(Al  7,Al  5,Al  4,H  25)    -69.7423         0.010000   
    376. D(Al  7,Al  5,Al  4,H  24)     94.7193         0.010000   
    377. D(Al  7,Al  5,Al  4,H  18)   -157.3865         0.010000   
    378. D(Al  7,Al  5,Al  4,H  16)    143.0288         0.010000   
    379. D(H  11,Al  5,Al  4,H  16)    132.2322         0.010000   
    380. D(Al  7,Al  5,Al  4,H   9)     17.0822         0.010000   
    381. D(Al  7,Al  5,Al  4,Al  6)    -59.2004         0.010000   
    382. D(Al  7,Al  5,Al  4,Al  2)   -145.3542         0.010000   
    383. D(Al  3,Al  6,Al  4,H  16)   -104.7828         0.010000   
    384. D(Al  3,Al  6,Al  4,H  24)     93.6768         0.010000   
    385. D(Al  3,Al  6,Al  4,H  18)    -14.9800         0.010000   
    386. D(Al  3,Al  6,Al  4,H   9)    169.0559         0.010000   
    387. D(Al  3,Al  6,Al  4,Al  7)   -169.2172         0.010000   
    388. D(Al  3,Al  6,Al  4,Al  5)   -110.8929         0.010000   
    389. D(Al  3,Al  6,Al  4,H  25)     22.5682         0.010000   
    390. D(H  10,Al  6,Al  3,Al  0)     29.3576         0.010000   
    391. D(Al  7,Al  6,Al  3,H  28)     86.4848         0.010000   
    392. D(Al  7,Al  6,Al  3,H  22)   -148.8807         0.010000   
    393. D(Al  3,Al  6,Al  4,Al  2)    -22.6452         0.010000   
    394. D(Al  7,Al  6,Al  3,H  21)   -126.1333         0.010000   
    395. D(Al  7,Al  6,Al  3,H  20)    -14.5303         0.010000   
    396. D(Al  7,Al  6,Al  3,Al  2)      9.0850         0.010000   
    397. D(Al  7,Al  6,Al  3,Al  0)     59.4433         0.010000   
    398. D(Al  4,Al  6,Al  3,H  28)    101.2422         0.010000   
    399. D(Al  7,Al  6,Al  4,Al  2)    146.5720         0.010000   
    400. D(Al  4,Al  6,Al  3,H  22)   -134.1233         0.010000   
    401. D(Al  4,Al  6,Al  3,H  21)   -111.3758         0.010000   
    402. D(Al  4,Al  6,Al  3,H  20)      0.2271         0.010000   
    403. D(Al  4,Al  6,Al  3,Al  2)     23.8424         0.010000   
    404. D(Al  4,Al  6,Al  3,Al  0)     74.2007         0.010000   
    405. D(Al  7,Al  6,Al  4,H  24)    -97.1060         0.010000   
    406. D(Al  7,Al  6,Al  4,H  18)    154.2372         0.010000   
    407. D(Al  7,Al  6,Al  4,H  16)     64.4343         0.010000   
    408. D(Al  7,Al  6,Al  4,H  25)   -168.2146         0.010000   
    409. D(Al  7,Al  6,Al  4,H   9)    -21.7269         0.010000   
    410. D(Al  7,Al  6,Al  4,Al  5)     58.3242         0.010000   
    411. D(Al  5,Al  7,Al  6,H  30)     47.9163         0.010000   
    412. D(Al  5,Al  7,Al  6,H  25)    -63.7615         0.010000   
    413. D(Al  5,Al  7,Al  6,H  23)   -172.0296         0.010000   
    414. D(Al  5,Al  7,Al  6,H  10)     97.0815         0.010000   
    415. D(Al  5,Al  7,Al  6,H  21)    -75.5185         0.010000   
    416. D(Al  4,Al  7,Al  6,H  30)    108.6573         0.010000   
    417. D(Al  4,Al  7,Al  6,H  25)     -3.0205         0.010000   
    418. D(Al  4,Al  7,Al  6,H  10)    157.8225         0.010000   
    419. D(Al  4,Al  7,Al  6,Al  3)     17.6922         0.010000   
    420. D(H   8,Al  7,Al  5,Al  4)   -141.7490         0.010000   
    421. D(Al  6,Al  7,Al  5,H  16)     70.2869         0.010000   
    422. D(Al  6,Al  7,Al  5,H  14)     52.2741         0.010000   
    423. D(Al  6,Al  7,Al  5,H  13)    176.2024         0.010000   
    424. D(Al  6,Al  7,Al  5,H  11)   -148.6272         0.010000   
    425. D(Al  4,Al  7,Al  6,H  21)    -14.7775         0.010000   
    426. D(Al  6,Al  7,Al  5,Al  4)     60.4063         0.010000   
    427. D(Al  4,Al  7,Al  5,H  16)      9.8806         0.010000   
    428. D(Al  4,Al  7,Al  5,H  14)     -8.1322         0.010000   
    429. D(Al  4,Al  7,Al  5,H  13)    115.7961         0.010000   
    430. D(Al  4,Al  7,Al  5,H  12)   -104.2688         0.010000   
    431. D(Al  6,Al  7,Al  5,H  12)    -43.8625         0.010000   
    432. D(Al  4,Al  7,Al  5,H  11)    150.9665         0.010000   
    433. D(Al  6,Al  7,Al  4,H  25)      3.0441         0.010000   
    434. D(Al  6,Al  7,Al  4,H  24)    127.4182         0.010000   
    435. D(Al  4,Al  7,Al  6,H  23)   -111.2885         0.010000   
    436. D(Al  6,Al  7,Al  4,H  18)    -54.8956         0.010000   
    437. D(Al  6,Al  7,Al  4,H  16)   -111.6002         0.010000   
    438. D(Al  6,Al  7,Al  4,H   9)    121.6618         0.010000   
    439. D(Al  6,Al  7,Al  4,Al  5)   -101.5563         0.010000   
    440. D(Al  6,Al  7,Al  4,Al  2)    -49.6111         0.010000   
    441. D(Al  5,Al  7,Al  4,H  25)    104.6004         0.010000   
    442. D(Al  5,Al  7,Al  6,Al  3)    -43.0488         0.010000   
    443. D(Al  5,Al  7,Al  6,Al  4)    -60.7410         0.010000   
    444. D(Al  5,Al  7,Al  4,H  18)     46.6607         0.010000   
    445. D(Al  5,Al  7,Al  4,H  16)    -10.0439         0.010000   
    446. D(Al  5,Al  7,Al  4,H   9)   -136.7819         0.010000   
    447. D(Al  5,Al  7,Al  4,H  24)   -131.0255         0.010000   
    448. D(Al  5,Al  7,Al  4,Al  6)    101.5563         0.010000   
    449. D(Al  5,Al  7,Al  4,Al  2)     51.9452         0.010000   
    450. D(Al  4,H   9,Al  7,H  11)     56.4773         0.010000   
    451. D(Al  4,H   9,Al  7,H   8)   -177.5129         0.010000   
    452. D(Al  4,H   9,Al  7,Al  6)    -50.2682         0.010000   
    453. D(Al  4,H   9,Al  7,Al  5)     37.7530         0.010000   
    454. D(Al  7,H   9,Al  4,H  25)     58.0857         0.010000   
    455. D(Al  7,H   9,Al  4,H  24)   -174.7581         0.010000   
    456. D(Al  7,H   9,Al  4,H  18)     15.0799         0.010000   
    457. D(Al  7,H   9,Al  4,H  16)    -50.0831         0.010000   
    458. D(Al  7,H   9,Al  4,Al  6)     50.1067         0.010000   
    459. D(Al  4,H   9,Al  7,H  10)    -50.8727         0.010000   
    460. D(Al  7,H   9,Al  4,Al  5)    -37.0987         0.010000   
    461. D(Al  7,H   9,Al  4,Al  2)     17.1293         0.010000   
    462. D(Al  6,H  10,Al  7,H  11)   -103.0425         0.010000   
    463. D(Al  6,H  10,Al  7,H   9)      1.5534         0.010000   
    464. D(Al  6,H  10,Al  7,H   8)    127.0420         0.010000   
    465. D(Al  6,H  10,Al  7,Al  5)    -82.2743         0.010000   
    466. D(Al  6,H  10,Al  7,Al  4)    -19.6798         0.010000   
    467. D(Al  7,H  10,Al  6,H  30)    132.7029         0.010000   
    468. D(Al  7,H  10,Al  6,H  25)     18.0349         0.010000   
    469. D(Al  7,H  10,Al  6,H  23)    -90.5551         0.010000   
    470. D(Al  7,H  10,Al  6,H  21)     20.0995         0.010000   
    471. D(Al  7,H  10,Al  6,Al  4)     19.0584         0.010000   
    472. D(Al  7,H  10,Al  6,Al  3)     65.7574         0.010000   
    473. D(Al  5,H  11,Al  7,H  10)     56.2717         0.010000   
    474. D(Al  5,H  11,Al  7,H   9)    -48.4856         0.010000   
    475. D(Al  5,H  11,Al  7,H   8)   -173.5871         0.010000   
    476. D(Al  5,H  11,Al  7,Al  6)     33.2052         0.010000   
    477. D(Al  5,H  11,Al  7,Al  4)    -25.6584         0.010000   
    478. D(Al  7,H  11,Al  5,H  16)     36.2592         0.010000   
    479. D(Al  7,H  11,Al  5,H  14)     59.6520         0.010000   
    480. D(Al  7,H  11,Al  5,H  13)    146.9273         0.010000   
    481. D(Al  7,H  11,Al  5,H  12)    -75.9359         0.010000   
    482. D(Al  7,H  11,Al  5,Al  4)     24.7860         0.010000   
    483. D(Al  1,H  14,Al  5,H  16)    -75.9208         0.010000   
    484. D(Al  1,H  14,Al  5,H  12)     36.0618         0.010000   
    485. D(Al  1,H  14,Al  5,H  11)    -99.5826         0.010000   
    486. D(Al  1,H  14,Al  5,Al  7)    -58.8047         0.010000   
    487. D(Al  1,H  14,Al  5,Al  4)    -65.6564         0.010000   
    488. D(Al  5,H  14,Al  1,H  27)    -31.7204         0.010000   
    489. D(Al  5,H  14,Al  1,H  17)     74.6336         0.010000   
    490. D(Al  5,H  14,Al  1,H  15)   -161.0164         0.010000   
    491. D(Al  1,H  14,Al  5,H  13)    173.0229         0.010000   
    492. D(Al  5,H  14,Al  1,Al  2)     49.1462         0.010000   
    493. D(Al  5,H  14,Al  1,Al  0)     -2.9717         0.010000   
    494. D(Al  4,H  16,Al  5,H  14)    138.4824         0.010000   
    495. D(Al  4,H  16,Al  5,H  13)   -135.7404         0.010000   
    496. D(Al  4,H  16,Al  5,H  12)     47.8547         0.010000   
    497. D(Al  4,H  16,Al  5,H  11)    -46.2530         0.010000   
    498. D(Al  4,H  16,Al  5,Al  7)    -32.5700         0.010000   
    499. D(Al  5,H  16,Al  4,H  25)    -34.5809         0.010000   
    500. D(Al  5,H  16,Al  4,H  24)    141.2506         0.010000   
    501. D(Al  5,H  16,Al  4,H  18)   -121.0248         0.010000   
    502. D(Al  5,H  16,Al  4,H   9)     52.6577         0.010000   
    503. D(Al  5,H  16,Al  4,Al  7)     32.9277         0.010000   
    504. D(Al  5,H  16,Al  4,Al  6)    -22.4526         0.010000   
    505. D(Al  5,H  16,Al  4,Al  2)   -107.1432         0.010000   
    506. D(Al  1,H  17,Al  2,H  31)     25.2487         0.010000   
    507. D(Al  1,H  17,Al  2,H  20)     27.3181         0.010000   
    508. D(Al  1,H  17,Al  2,H  19)   -148.4689         0.010000   
    509. D(Al  1,H  17,Al  2,H  18)    104.6649         0.010000   
    510. D(Al  1,H  17,Al  2,Al  4)     89.5205         0.010000   
    511. D(Al  1,H  17,Al  2,Al  3)      1.9451         0.010000   
    512. D(Al  1,H  17,Al  2,Al  0)    -12.8579         0.010000   
    513. D(Al  2,H  17,Al  1,H  27)     20.2912         0.010000   
    514. D(Al  2,H  17,Al  1,H  15)    143.3875         0.010000   
    515. D(Al  1,H  17,Al  2,H  29)    -51.0400         0.010000   
    516. D(Al  2,H  17,Al  1,H  14)    -90.3312         0.010000   
    517. D(Al  2,H  17,Al  1,Al  0)     11.4098         0.010000   
    518. D(Al  2,H  18,Al  4,H  24)   -167.1115         0.010000   
    519. D(Al  2,H  18,Al  4,H  16)     68.1517         0.010000   
    520. D(Al  2,H  18,Al  4,H   9)      2.9701         0.010000   
    521. D(Al  2,H  18,Al  4,Al  6)    -31.2447         0.010000   
    522. D(Al  2,H  18,Al  4,Al  5)     54.3018         0.010000   
    523. D(Al  4,H  18,Al  2,H  31)     -8.6280         0.010000   
    524. D(Al  4,H  18,Al  2,H  29)    -11.0036         0.010000   
    525. D(Al  4,H  18,Al  2,H  20)     76.1041         0.010000   
    526. D(Al  4,H  18,Al  2,H  19)    170.7656         0.010000   
    527. D(Al  2,H  18,Al  4,Al  7)     15.0132         0.010000   
    528. D(Al  4,H  18,Al  2,H  17)    -94.8220         0.010000   
    529. D(Al  4,H  18,Al  2,Al  3)     55.1486         0.010000   
    530. D(Al  4,H  18,Al  2,Al  1)    -72.4902         0.010000   
    531. D(Al  2,H  18,Al  4,H  25)    -40.0627         0.010000   
    532. D(Al  4,H  18,Al  2,Al  0)     -9.1572         0.010000   
    533. D(Al  2,H  20,Al  3,H  28)    -12.9920         0.010000   
    534. D(Al  2,H  20,Al  3,H  21)     97.4419         0.010000   
    535. D(Al  2,H  20,Al  3,Al  6)     75.7388         0.010000   
    536. D(Al  2,H  20,Al  3,Al  0)     -4.8633         0.010000   
    537. D(Al  3,H  20,Al  2,H  31)    -32.6497         0.010000   
    538. D(Al  3,H  20,Al  2,H  29)     43.5191         0.010000   
    539. D(Al  3,H  20,Al  2,H  19)    141.0619         0.010000   
    540. D(Al  3,H  20,Al  2,H  18)   -112.0785         0.010000   
    541. D(Al  3,H  20,Al  2,H  17)    -34.7235         0.010000   
    542. D(Al  3,H  20,Al  2,Al  4)    -97.2846         0.010000   
    543. D(Al  2,H  20,Al  3,H  22)   -135.7461         0.010000   
    544. D(Al  3,H  20,Al  2,Al  1)    -14.6627         0.010000   
    545. D(Al  3,H  20,Al  2,Al  0)      5.4688         0.010000   
    546. D(Al  3,H  21,Al  6,H  25)     69.7940         0.010000   
    547. D(Al  3,H  21,Al  6,H  23)    178.7477         0.010000   
    548. D(Al  3,H  21,Al  6,H  10)     67.6963         0.010000   
    549. D(Al  3,H  21,Al  6,Al  7)     81.0573         0.010000   
    550. D(Al  3,H  21,Al  6,Al  4)     68.7056         0.010000   
    551. D(Al  6,H  21,Al  3,H  28)     34.2443         0.010000   
    552. D(Al  6,H  21,Al  3,H  22)    163.1827         0.010000   
    553. D(Al  6,H  21,Al  3,H  20)    -71.9205         0.010000   
    554. D(Al  6,H  21,Al  3,Al  2)    -46.8169         0.010000   
    555. D(Al  3,H  21,Al  6,H  30)    -44.6372         0.010000   
    556. D(Al  6,H  21,Al  3,Al  0)      5.7236         0.010000   
    557. D(Al  4,H  25,Al  6,H  30)    -86.2332         0.010000   
    558. D(Al  4,H  25,Al  6,H  23)     98.2568         0.010000   
    559. D(Al  4,H  25,Al  6,H  21)   -175.5337         0.010000   
    560. D(Al  4,H  25,Al  6,H  10)      4.0714         0.010000   
    561. D(Al  4,H  25,Al  6,Al  7)     10.4377         0.010000   
    562. D(Al  4,H  25,Al  6,Al  3)   -156.4733         0.010000   
    563. D(Al  6,H  25,Al  4,H  24)   -120.1369         0.010000   
    564. D(Al  6,H  25,Al  4,H  18)    142.9051         0.010000   
    565. D(Al  6,H  25,Al  4,H  16)     55.5635         0.010000   
    566. D(Al  6,H  25,Al  4,H   9)    -32.3468         0.010000   
    567. D(Al  6,H  25,Al  4,Al  7)    -10.6325         0.010000   
    568. D(Al  6,H  25,Al  4,Al  5)     46.4724         0.010000   
    569. D(Al  6,H  25,Al  4,Al  2)    133.1016         0.010000   
    570. D(Al  0,H  27,Al  1,H  17)    -18.6680         0.010000   
    571. D(Al  0,H  27,Al  1,H  15)   -141.1661         0.010000   
    572. D(Al  0,H  27,Al  1,H  14)     88.3619         0.010000   
    573. D(Al  0,H  27,Al  1,Al  2)    -10.0692         0.010000   
    574. D(Al  1,H  27,Al  0,H  31)    -33.1120         0.010000   
    575. D(Al  1,H  27,Al  0,H  29)     55.1199         0.010000   
    576. D(Al  1,H  27,Al  0,H  26)   -173.2609         0.010000   
    577. D(Al  1,H  27,Al  0,Al  3)     -6.1167         0.010000   
    578. D(Al  1,H  27,Al  0,Al  2)     11.5446         0.010000   
    579. D(Al  3,H  28,H  27,Al  1)     -1.9913         0.010000   
    580. D(Al  0,H  28,Al  3,H  21)    -90.3316         0.010000   
    581. D(Al  0,H  28,Al  3,H  20)     17.2218         0.010000   
    582. D(Al  0,H  28,Al  3,Al  6)    -77.7319         0.010000   
    583. D(Al  0,H  28,Al  3,Al  2)     11.7582         0.010000   
    584. D(Al  3,H  28,Al  0,H  31)     31.1265         0.010000   
    585. D(Al  3,H  28,Al  0,H  29)    -57.1355         0.010000   
    586. D(Al  3,H  28,Al  0,H  26)    171.2565         0.010000   
    587. D(Al  0,H  28,Al  3,H  22)    139.4560         0.010000   
    588. D(Al  3,H  28,Al  0,Al  2)    -13.5395         0.010000   
    589. D(Al  3,H  28,Al  0,Al  1)      2.2212         0.010000   
    590. D(Al  0,H  29,Al  2,H  31)      0.2481         0.010000   
    591. D(Al  0,H  29,Al  2,H  20)    -84.2710         0.010000   
    592. D(Al  0,H  29,Al  2,H  19)   -179.0553         0.010000   
    593. D(Al  0,H  29,Al  2,H  18)      2.6523         0.010000   
    594. D(Al  0,H  29,Al  2,H  17)     86.6219         0.010000   
    595. D(Al  0,H  29,Al  2,Al  4)     -1.8642         0.010000   
    596. D(Al  0,H  29,Al  2,Al  3)    -68.3267         0.010000   
    597. D(Al  0,H  29,Al  2,Al  1)     68.1800         0.010000   
    598. D(Al  2,H  29,Al  0,H  31)     -0.2751         0.010000   
    599. D(Al  2,H  29,Al  0,H  28)     89.2294         0.010000   
    600. D(Al  2,H  29,Al  0,H  27)    -88.2108         0.010000   
    601. D(Al  2,H  29,Al  0,H  26)   -179.6080         0.010000   
    602. D(Al  2,H  29,Al  0,Al  3)     68.1187         0.010000   
    603. D(Al  2,H  29,Al  0,Al  1)    -67.4664         0.010000   
    604. D(Al  0,H  31,Al  2,H  29)     -0.2490         0.010000   
    605. D(Al  0,H  31,Al  2,H  20)     90.8472         0.010000   
    606. D(Al  0,H  31,Al  2,H  19)      6.0640         0.010000   
    607. D(Al  0,H  31,Al  2,H  18)   -179.2373         0.010000   
    608. D(Al  0,H  31,Al  2,H  17)    -89.4886         0.010000   
    609. D(Al  0,H  31,Al  2,Al  4)    178.2623         0.010000   
    610. D(Al  0,H  31,Al  2,Al  3)     77.7755         0.010000   
    611. D(Al  0,H  31,Al  2,Al  1)    -78.9095         0.010000   
    612. D(Al  2,H  31,Al  0,H  29)      0.2699         0.010000   
    613. D(Al  2,H  31,Al  0,H  28)    -89.7107         0.010000   
    614. D(Al  2,H  31,Al  0,H  27)     91.1363         0.010000   
    615. D(Al  2,H  31,Al  0,H  26)    179.4917         0.010000   
    616. D(Al  2,H  31,Al  0,Al  3)    -76.3023         0.010000   
    617. D(Al  2,H  31,Al  0,Al  1)     76.7320         0.010000   
    -----------------------------------------------------------------

Number of atoms                         .... 32
Number of degrees of freedom            .... 617


         *************************************************************
         *                GEOMETRY OPTIMIZATION CYCLE   1            *
         *************************************************************
---------------------------------
CARTESIAN COORDINATES (ANGSTROEM)
---------------------------------
  Al    -0.237863    2.445117    0.581126
  Al    -2.989686    1.124949    1.302232
  Al    -0.178177   -0.240325    0.849344
  Al     2.642225    1.223531    0.802009
  Al     0.175589   -0.623023    4.152718
  Al    -2.185534    1.669484    4.547176
  Al     2.238886    1.979593    3.996970
  Al     0.306600    1.374769    6.570783
  H      0.666525    1.462653    8.115534
  H      0.442822   -0.145227    5.903344
  H      1.240055    2.260996    5.542382
  H     -1.243057    1.761690    6.158483
  H     -1.487401    2.954972    3.915943
  H     -3.526596    1.347545    5.340419
  H     -3.056565    1.194932    2.938319
  H     -4.379505    0.982743    0.543898
  H     -1.306739    0.196216    4.195506
  H     -1.958770   -0.153985    1.039644
  H     -0.068196   -0.871489    2.437456
  H     -0.218654   -1.487053   -0.142623
  H      1.613163   -0.086179    0.822837
  H      3.058160    1.395980    2.380632
  H      3.839493    1.070757   -0.232292
  H      3.583466    1.656845    4.785348
  H      0.376690   -2.147594    4.550347
  H      1.376811    0.487618    3.734806
  H     -0.291738    4.001439    0.293685
  H     -2.063985    2.405048    0.796813
  H      1.588810    2.454307    0.445645
  H     -0.306646    1.113214   -0.450315
  H      1.575957    3.258913    3.317380
  H     -0.122422    1.377564    1.868829

----------------------------
CARTESIAN COORDINATES (A.U.)
----------------------------
  NO LB      ZA    FRAG     MASS         X           Y           Z
   0 Al   13.0000    0    26.982   -0.449497    4.620602    1.098169
   1 Al   13.0000    0    26.982   -5.649688    2.125846    2.460862
   2 Al   13.0000    0    26.982   -0.336705   -0.454148    1.605027
   3 Al   13.0000    0    26.982    4.993081    2.312139    1.515577
   4 Al   13.0000    0    26.982    0.331816   -1.177343    7.847499
   5 Al   13.0000    0    26.982   -4.130061    3.154868    8.592917
   6 Al   13.0000    0    26.982    4.230882    3.740888    7.553178
   7 Al   13.0000    0    26.982    0.579389    2.597937   12.416981
   8 H     1.0000    0     1.008    1.259551    2.764014   15.336136
   9 H     1.0000    0     1.008    0.836813   -0.274439   11.155704
  10 H     1.0000    0     1.008    2.343365    4.272664   10.473584
  11 H     1.0000    0     1.008   -2.349037    3.329111   11.637847
  12 H     1.0000    0     1.008   -2.810780    5.584088    7.400060
  13 H     1.0000    0     1.008   -6.664300    2.546491   10.091930
  14 H     1.0000    0     1.008   -5.776071    2.258093    5.552619
  15 H     1.0000    0     1.008   -8.276065    1.857115    1.027819
  16 H     1.0000    0     1.008   -2.469378    0.370795    7.928358
  17 H     1.0000    0     1.008   -3.701538   -0.290989    1.964642
  18 H     1.0000    0     1.008   -0.128871   -1.646876    4.606125
  19 H     1.0000    0     1.008   -0.413196   -2.810124   -0.269518
  20 H     1.0000    0     1.008    3.048437   -0.162855    1.554937
  21 H     1.0000    0     1.008    5.779085    2.638019    4.498743
  22 H     1.0000    0     1.008    7.255591    2.023437   -0.438967
  23 H     1.0000    0     1.008    6.771769    3.130983    9.042997
  24 H     1.0000    0     1.008    0.711841   -4.058364    8.598910
  25 H     1.0000    0     1.008    2.601796    0.921465    7.057760
  26 H     1.0000    0     1.008   -0.551306    7.561623    0.554984
  27 H     1.0000    0     1.008   -3.900366    4.544883    1.505759
  28 H     1.0000    0     1.008    3.002416    4.637967    0.842147
  29 H     1.0000    0     1.008   -0.579477    2.103670   -0.850972
  30 H     1.0000    0     1.008    2.978128    6.158453    6.268940
  31 H     1.0000    0     1.008   -0.231344    2.603218    3.531575

--------------------------------
INTERNAL COORDINATES (ANGSTROEM)
--------------------------------
 Al     0   0   0     0.000000000000     0.00000000     0.00000000
 Al     1   0   0     3.136138724511     0.00000000     0.00000000
 Al     1   2   0     2.699463169595    65.02568899     0.00000000
 Al     1   2   3     3.136234675163   128.72863208   343.75382029
 Al     3   1   2     3.344232416884   102.37596502   275.96309331
 Al     5   3   1     3.314527354134    87.88239909    45.50706259
 Al     4   1   2     3.307882265613    82.35840638   281.16123787
 Al     5   3   1     3.139327530523   133.82275451     2.55086187
 H      8   5   3     1.588560209223   142.52971554   192.43559169
 H      8   5   3     1.665658605684    27.63074762   188.72704550
 H      8   5   3     1.647528120641    83.40577566   318.72994414
 H      8   5   3     1.649585971232    85.27028821    63.92821682
 H      6   5   3     1.593211667545   101.46464026   296.04322612
 H      6   5   3     1.591014650054   121.32035586   121.47106538
 H      2   1   3     1.638948197663   104.32158792    93.17414453
 H      2   1   3     1.589619324439   134.03795871   245.40421279
 H      5   3   1     1.694190041621    82.93794698    60.89308079
 H      2   1   3     1.663554771224    75.14149722   353.81779022
 H      3   1   2     1.712473774745   117.40121028   278.41130734
 H      3   1   2     1.593727777899   135.70912578    98.51705753
 H      4   1   2     1.665755708572    74.91891117    18.78158077
 H      4   1   2     1.641582372522   105.03987243   278.92753971
 H      4   1   2     1.589518748966   133.10341402   126.97414432
 H      7   4   1     1.591728796677   109.21076673   184.25039011
 H      5   3   1     1.588353324165   111.74739498   185.46397464
 H      5   3   1     1.688522450022    75.84809509   310.15873390
 H      1   2   3     1.583559755339   115.18844930   174.69713456
 H      2   1   3     1.658621304589    27.78872895   192.75360665
 H      4   1   2     1.658759969266    27.45997145   181.27465565
 H      1   2   3     1.685991367657    76.83973812    44.64010447
 H      7   4   1     1.593102767450    79.76209850   320.13290195
 H      1   2   3     1.676656340979    67.40548966   310.99590351

---------------------------
INTERNAL COORDINATES (A.U.)
---------------------------
 Al     0   0   0     0.000000000000     0.00000000     0.00000000
 Al     1   0   0     5.926443307312     0.00000000     0.00000000
 Al     1   2   0     5.101246099141    65.02568899     0.00000000
 Al     1   2   3     5.926624627766   128.72863208   343.75382029
 Al     3   1   2     6.319683396092   102.37596502   275.96309331
 Al     5   3   1     6.263548962704    87.88239909    45.50706259
 Al     4   1   2     6.250991565263    82.35840638   281.16123787
 Al     5   3   1     5.932469277368   133.82275451     2.55086187
 H      8   5   3     3.001943742676   142.52971554   192.43559169
 H      8   5   3     3.147638597352    27.63074762   188.72704550
 H      8   5   3     3.113376945946    83.40577566   318.72994414
 H      8   5   3     3.117265719988    85.27028821    63.92821682
 H      6   5   3     3.010733725027   101.46464026   296.04322612
 H      6   5   3     3.006581963659   121.32035586   121.47106538
 H      2   1   3     3.097163241267   104.32158792    93.17414453
 H      2   1   3     3.003945180379   134.03795871   245.40421279
 H      5   3   1     3.201555197481    82.93794698    60.89308079
 H      2   1   3     3.143662926391    75.14149722   353.81779022
 H      3   1   2     3.236106445791   117.40121028   278.41130734
 H      3   1   2     3.011709032252   135.70912578    98.51705753
 H      4   1   2     3.147822095217    74.91891117    18.78158077
 H      4   1   2     3.102141110339   105.03987243   278.92753971
 H      4   1   2     3.003755120279   133.10341402   126.97414432
 H      7   4   1     3.007931505195   109.21076673   184.25039011
 H      5   3   1     3.001552786575   111.74739498   185.46397464
 H      5   3   1     3.190845001520    75.84809509   310.15873390
 H      1   2   3     2.992494254290   115.18844930   174.69713456
 H      2   1   3     3.134340025561    27.78872895   192.75360665
 H      4   1   2     3.134602063824    27.45997145   181.27465565
 H      1   2   3     3.186061949028    76.83973812    44.64010447
 H      7   4   1     3.010527933673    79.76209850   320.13290195
 H      1   2   3     3.168421305152    67.40548966   310.99590351

---------------------
BASIS SET INFORMATION
---------------------
There are 2 groups of distinct atoms

 Group   1 Type Al  : 14s9p3d1f contracted to 5s5p2d1f pattern {73211/51111/21/1}
 Group   2 Type H   : 5s1p contracted to 3s1p pattern {311/1}

Atom   0Al   basis set group =>   1
Atom   1Al   basis set group =>   1
Atom   2Al   basis set group =>   1
Atom   3Al   basis set group =>   1
Atom   4Al   basis set group =>   1
Atom   5Al   basis set group =>   1
Atom   6Al   basis set group =>   1
Atom   7Al   basis set group =>   1
Atom   8H    basis set group =>   2
Atom   9H    basis set group =>   2
Atom  10H    basis set group =>   2
Atom  11H    basis set group =>   2
Atom  12H    basis set group =>   2
Atom  13H    basis set group =>   2
Atom  14H    basis set group =>   2
Atom  15H    basis set group =>   2
Atom  16H    basis set group =>   2
Atom  17H    basis set group =>   2
Atom  18H    basis set group =>   2
Atom  19H    basis set group =>   2
Atom  20H    basis set group =>   2
Atom  21H    basis set group =>   2
Atom  22H    basis set group =>   2
Atom  23H    basis set group =>   2
Atom  24H    basis set group =>   2
Atom  25H    basis set group =>   2
Atom  26H    basis set group =>   2
Atom  27H    basis set group =>   2
Atom  28H    basis set group =>   2
Atom  29H    basis set group =>   2
Atom  30H    basis set group =>   2
Atom  31H    basis set group =>   2
---------------------------------
AUXILIARY/J BASIS SET INFORMATION
---------------------------------
There are 2 groups of distinct atoms

 Group   1 Type Al  : 14s5p5d2f1g contracted to 8s4p3d1f1g pattern {71111111/2111/311/2/1}
 Group   2 Type H   : 5s2p1d contracted to 3s1p1d pattern {311/2/1}

Atom   0Al   basis set group =>   1
Atom   1Al   basis set group =>   1
Atom   2Al   basis set group =>   1
Atom   3Al   basis set group =>   1
Atom   4Al   basis set group =>   1
Atom   5Al   basis set group =>   1
Atom   6Al   basis set group =>   1
Atom   7Al   basis set group =>   1
Atom   8H    basis set group =>   2
Atom   9H    basis set group =>   2
Atom  10H    basis set group =>   2
Atom  11H    basis set group =>   2
Atom  12H    basis set group =>   2
Atom  13H    basis set group =>   2
Atom  14H    basis set group =>   2
Atom  15H    basis set group =>   2
Atom  16H    basis set group =>   2
Atom  17H    basis set group =>   2
Atom  18H    basis set group =>   2
Atom  19H    basis set group =>   2
Atom  20H    basis set group =>   2
Atom  21H    basis set group =>   2
Atom  22H    basis set group =>   2
Atom  23H    basis set group =>   2
Atom  24H    basis set group =>   2
Atom  25H    basis set group =>   2
Atom  26H    basis set group =>   2
Atom  27H    basis set group =>   2
Atom  28H    basis set group =>   2
Atom  29H    basis set group =>   2
Atom  30H    basis set group =>   2
Atom  31H    basis set group =>   2


           ************************************************************
           *        Program running with 24 parallel MPI-processes    *
           *              working on a common directory               *
           ************************************************************
------------------------------------------------------------------------------
                             ORCA STARTUP CALCULATIONS
                           -- RI-GTO INTEGRALS CHOSEN --
------------------------------------------------------------------------------
------------------------------------------------------------------------------
                   ___                                                        
                  /   \      - P O W E R E D   B Y -                         
                 /     \                                                     
                 |  |  |   _    _      __       _____    __    __             
                 |  |  |  | |  | |    /  \     |  _  \  |  |  /  |          
                  \  \/   | |  | |   /    \    | | | |  |  | /  /          
                 / \  \   | |__| |  /  /\  \   | |_| |  |  |/  /          
                |  |  |   |  __  | /  /__\  \  |    /   |      \           
                |  |  |   | |  | | |   __   |  |    \   |  |\   \          
                \     /   | |  | | |  |  |  |  | |\  \  |  | \   \       
                 \___/    |_|  |_| |__|  |__|  |_| \__\ |__|  \__/        
                                                                              
                      - O R C A' S   B I G   F R I E N D -                    
                                      &                                       
                       - I N T E G R A L  F E E D E R -                       
                                                                              
 v1 FN, 2020, v2 2021, v3 2022-2024                                           
------------------------------------------------------------------------------


----------------------
SHARK INTEGRAL PACKAGE
----------------------

Number of atoms                             ...     32
Number of basis functions                   ...    440
Number of shells                            ...    200
Maximum angular momentum                    ...      3
Integral batch strategy                     ... SHARK/LIBINT Hybrid
RI-J (if used) integral strategy            ... SPLIT-RIJ (Revised 2003 algorithm where possible)
Printlevel                                  ...      1
Contraction scheme used                     ... SEGMENTED contraction
Prescreening option                         ... SCHWARTZ
   Thresh                                   ... 2.500e-11
   Tcut                                     ... 2.500e-12
   Tpresel                                  ... 2.500e-12 
Coulomb Range Separation                    ... NOT USED
Exchange Range Separation                   ... NOT USED
Multipole approximations                    ... NOT USED
Finite Nucleus Model                        ... NOT USED
CABS basis                                  ... NOT available
Auxiliary Coulomb fitting basis             ... AVAILABLE
   # of basis functions in Aux-J            ...    672
   # of shells in Aux-J                     ...    256
   Maximum angular momentum in Aux-J        ...      4
Auxiliary J/K fitting basis                 ... NOT available
Auxiliary Correlation fitting basis         ... NOT available
Auxiliary 'external' fitting basis          ... NOT available

Checking pre-screening integrals            ... done (  0.0 sec) Dimension = 200
   => SHARK Basis and OBASIS are compatible. Storing Pre-screening
Shell pair information
Shell pair cut-off parameter TPreSel        ...   2.5e-12
Total number of shell pairs                 ...     20100
Shell pairs after pre-screening             ...     16194
Total number of primitive shell pairs       ...     65340
Primitive shell pairs kept                  ...     35412
          la=0 lb=0:   5098 shell pairs
          la=1 lb=0:   5339 shell pairs
          la=1 lb=1:   1421 shell pairs
          la=2 lb=0:   1700 shell pairs
          la=2 lb=1:    973 shell pairs
          la=2 lb=2:    136 shell pairs
          la=3 lb=0:    866 shell pairs
          la=3 lb=1:    497 shell pairs
          la=3 lb=2:    128 shell pairs
          la=3 lb=3:     36 shell pairs

Checking whether 4 symmetric matrices of dimension 440 fit in memory
:Max Core in MB      =   4096.00
 MB in use           =     23.23
 MB left             =   4072.77
 MB needed           =      2.96
 Data fit in memory  = YES
Calculating RI/J V-Matrix + Cholesky decomp.... done (  0.1 sec)
Calculating Nuclear repulsion               ... done (  0.0 sec) ENN=   1049.060931262280 Eh

Diagonalization of the overlap matrix:
Smallest eigenvalue                        ... 3.529e-04
Time for diagonalization                   ...    0.101 sec
Threshold for overlap eigenvalues          ... 1.000e-07
Number of eigenvalues below threshold      ... 0
Time for construction of square roots      ...    0.054 sec
Total time needed                          ...    0.160 sec

-------------------
DFT GRID GENERATION
-------------------

General Integration Accuracy     IntAcc      ... 4.959
Radial Grid Type                 RadialGrid  ... OptM3 with GC (2021)
Angular Grid (max. ang.)         AngularGrid ... 6 (Lebedev-590)
Angular grid pruning method      GridPruning ... 4 (adaptive)
Weight generation scheme         WeightScheme... mBecke (2022)
Basis function cutoff            BFCut       ... 1.0000e-11
Integration weight cutoff        WCut        ... 1.0000e-14
Partially contracted basis set               ... off
Rotationally invariant grid construction     ... off
Angular grids for H and He will be reduced by one unit

Total number of grid points                  ...   330759
Total number of batches                      ...     5182
Average number of points per batch           ...       63
Average number of grid points per atom       ...    10336
Grids setup in   8.0 sec
Initializing property integral containers    ... done (  0.0 sec)

SHARK setup successfully completed in   8.9 seconds

Maximum memory used throughout the entire STARTUP-calculation: 76.6 MB


           ************************************************************
           *        Program running with 24 parallel MPI-processes    *
           *              working on a common directory               *
           ************************************************************
-------------------------------------------------------------------------------
                                 ORCA GUESS
                   Start orbitals & Density for SCF / CASSCF
-------------------------------------------------------------------------------

------------
SCF SETTINGS
------------
Hamiltonian:
 Density Functional     Method          .... DFT(GTOs)
 Exchange Functional    Exchange        .... PBE
   PBE kappa parameter   XKappa         ....  0.804000
   PBE mue parameter    XMuePBE         ....  0.219520
 Correlation Functional Correlation     .... PBE
   PBE beta parameter  CBetaPBE         ....  0.066725
 LDA part of GGA corr.  LDAOpt          .... PW91-LDA
 Gradients option       PostSCFGGA      .... off
   NL short-range parameter             ....  6.400000
 RI-approximation to the Coulomb term is turned on
   Number of AuxJ basis functions       .... 672


General Settings:
 Integral files         IntName         .... run
 Hartree-Fock type      HFTyp           .... RHF
 Total Charge           Charge          ....    0
 Multiplicity           Mult            ....    1
 Number of Electrons    NEL             ....  128
 Basis Dimension        Dim             ....  440
 Nuclear Repulsion      ENuc            ....   1049.0609312623 Eh

Convergence Acceleration:
 AO-DIIS                CNVDIIS         .... on
   Start iteration      DIISMaxIt       ....    12
   Startup error        DIISStart       ....  0.200000
   # of expansion vecs  DIISMaxEq       ....     5
   Bias factor          DIISBfac        ....   1.050
   Max. coefficient     DIISMaxC        ....  10.000
 MO-DIIS                CNVKDIIS        .... off
 Trust-Rad. Augm. Hess. CNVTRAH         .... auto
   Auto Start mean grad. ratio tolernc. ....  1.125000
   Auto Start start iteration           ....    50
   Auto Start num. interpolation iter.  ....    10
   Max. Number of Micro iterations      ....    24
   Max. Number of Macro iterations      .... Maxiter - #DIIS iter
   Number of Davidson start vectors     ....     2
   Converg. threshold    (grad. norm)   ....   1.000e-05
   Grad. Scal. Fac. for Micro threshold ....   0.100
   Minimum threshold for Micro iter.    ....   1.000e-02
   NR start threshold (gradient norm)   ....   1.000e-04
   Initial trust radius                 ....   0.400
   Minimum AH scaling param. (alpha)    ....   1.000
   Maximum AH scaling param. (alpha)    .... 1000.000
   Quad. conv. algorithm                .... NR
   White noise on init. David. guess    .... on
   Maximum white noise                  ....   0.010
   Pseudo random numbers                .... off
   Inactive MOs                         .... canonical
   Orbital update algorithm             .... Taylor
   Preconditioner                       .... Diag
   Full preconditioner red. dimension   ....   250
 SOSCF                 CNVSOSCF           .... on
   Start iteration     SOSCFMaxIt         ....   150
   Startup grad/error  SOSCFStart         ....  0.003300
   Hessian update      SOSCFHessUp        .... L-BFGS
   Autom. constraints  SOSCFAutoConstrain .... off
 Level Shifting         CNVShift        .... on
   Level shift para.    LevelShift      ....    0.2500
   Turn off err/grad.   ShiftErr        ....    0.0010
 Zerner damping         CNVZerner       .... off
 Static damping         CNVDamp         .... on
   Fraction old density DampFac         ....    0.7000
[...]
 27:    336.97   0.001869    9.45  0.001731  (-0.011262 -0.035660  0.018241)
 28:    341.22   0.003564   18.01  0.003259  ( 0.007453  0.019955  0.052969)
 29:    354.93   0.000470    2.38  0.000414  ( 0.011641  0.001380  0.016616)
 30:    362.34   0.001000    5.05  0.000861  ( 0.010100 -0.017140  0.021577)
 31:    393.48   0.006266   31.67  0.004970  ( 0.068375 -0.016421  0.004987)
 32:    398.08   0.017190   86.87  0.013475  ( 0.013857 -0.015399  0.114220)
 33:    412.56   0.000738    3.73  0.000558  (-0.015439  0.017637  0.002922)
 34:    437.01   0.002286   11.55  0.001632  ( 0.001664  0.035498 -0.019222)
 35:    454.26   0.001301    6.57  0.000894  ( 0.026285 -0.013181  0.005400)
 36:    474.73   0.003964   20.03  0.002605  (-0.026103 -0.038871  0.020326)
 37:    484.94   0.006431   32.50  0.004138  (-0.032594 -0.041436 -0.036867)
 38:    500.98   0.004098   20.71  0.002553  (-0.017671  0.047171 -0.003937)
 39:    541.17   0.003370   17.03  0.001943  ( 0.010233  0.018927 -0.038475)
 40:    545.52   0.005093   25.74  0.002913  (-0.045486  0.010757 -0.026991)
 41:    546.01   0.001266    6.40  0.000724  (-0.009294  0.023154  0.010054)
 42:    572.41   0.001896    9.58  0.001033  (-0.029479 -0.009032 -0.009104)
 43:    574.63   0.009487   47.94  0.005152  (-0.058121 -0.001829  0.042077)
 44:    589.64   0.004662   23.56  0.002467  ( 0.022285 -0.043703  0.007784)
 45:    606.90   0.012780   64.58  0.006571  (-0.014310  0.076910 -0.021240)
 46:    610.85   0.016575   83.77  0.008468  (-0.001818 -0.021420 -0.089475)
 47:    623.25   0.036402  183.96  0.018227  ( 0.129881  0.031933 -0.018383)
 48:    649.68   0.091801  463.92  0.044095  ( 0.006671  0.029622  0.207782)
 49:    660.39   0.030038  151.80  0.014194  (-0.075844  0.089734  0.019738)
 50:    685.32   0.014361   72.57  0.006539  ( 0.052579 -0.002512  0.061387)
 51:    719.19   0.198188  1001.56  0.085996  (-0.107822 -0.018107 -0.272108)
 52:    722.37   0.048772  246.47  0.021070  ( 0.052256  0.028739 -0.132336)
 53:    734.43   0.000869    4.39  0.000369  (-0.013995  0.004366  0.012414)
 54:    750.57   0.054063  273.21  0.022478  ( 0.118959  0.064998 -0.064046)
 55:    782.41   0.138623  700.54  0.055290  ( 0.227325 -0.039894 -0.044959)
 56:    798.09   0.127555  644.61  0.049876  (-0.218080 -0.047420  0.008269)
 57:    834.87   0.049104  248.15  0.018354  ( 0.010318 -0.050126 -0.125441)
 58:    840.99   0.012748   64.42  0.004730  ( 0.020542 -0.018232 -0.063056)
 59:    854.44   0.033813  170.88  0.012349  ( 0.032304 -0.070770 -0.079356)
 60:    881.46   0.038020  192.14  0.013460  (-0.068124  0.086753  0.035962)
 61:    887.35   0.046198  233.46  0.016247  ( 0.067583  0.099005  0.043327)
 62:    923.54   0.012169   61.50  0.004112  ( 0.011109 -0.035425 -0.052285)
 63:    937.50   0.020873  105.48  0.006948  (-0.020927  0.024230  0.076960)
 64:    946.28   0.017835   90.13  0.005882  (-0.050205  0.047225  0.033630)
 65:    963.63   0.010471   52.91  0.003391  (-0.015484  0.006237 -0.055787)
 66:    980.01   0.073945  373.69  0.023546  (-0.011894  0.136591 -0.068902)
 67:    987.75   0.009206   46.52  0.002909  ( 0.051338  0.016521 -0.000053)
 68:   1029.26   0.054728  276.57  0.016593  (-0.128213 -0.001358  0.012356)
 69:   1031.50   0.032435  163.91  0.009813  (-0.038004  0.006300 -0.091261)
 70:   1034.84   0.018796   94.99  0.005668  ( 0.063345  0.012254 -0.038797)
 71:   1167.85   0.018653   94.26  0.004984  ( 0.002396 -0.065354  0.026598)
 72:   1542.56   0.025484  128.79  0.005155  ( 0.010741  0.024351  0.066687)
 73:   1635.32   0.018687   94.43  0.003566  (-0.004726  0.022284 -0.055200)
 74:   1671.09   0.004545   22.97  0.000849  (-0.000342  0.028629 -0.005389)
 75:   1702.00   0.016928   85.55  0.003104  (-0.019123  0.025058  0.045936)
 76:   1724.59   0.011521   58.22  0.002085  (-0.024964  0.001244 -0.038210)
 77:   1734.32   0.015239   77.01  0.002742  ( 0.046253  0.002848 -0.024385)
 78:   1740.24   0.038029  192.18  0.006819  ( 0.062976  0.015460  0.051133)
 79:   1775.91   0.124853  630.95  0.021939  ( 0.027836  0.085777 -0.117502)
 80:   1809.62   0.175635  887.59  0.030288  ( 0.048478 -0.098733 -0.134868)
 81:   1812.15   0.211063  1066.62  0.036346  ( 0.000137  0.002574  0.190629)
 82:   1820.94   0.131493  664.51  0.022535  (-0.129033 -0.061134 -0.046345)
 83:   1830.62   0.250759  1267.23  0.042747  ( 0.204511 -0.021177 -0.021760)
 84:   1841.97   0.064700  326.97  0.010961  (-0.082045  0.012009 -0.063920)
 85:   1873.18   0.088889  449.21  0.014809  (-0.052787  0.103771 -0.035407)
 86:   1888.43   0.051088  258.18  0.008442  (-0.089261 -0.019017 -0.010634)
 87:   1894.99   0.006891   34.83  0.001135  (-0.019151  0.009020  0.026206)
 88:   1895.61   0.031912  161.27  0.005253  (-0.049924 -0.003391  0.052436)
 89:   1903.89   0.014456   73.05  0.002369  (-0.041659 -0.007599 -0.024004)
 90:   1904.28   0.023224  117.36  0.003806  (-0.035291 -0.009173  0.049761)
 91:   1908.35   0.023729  119.92  0.003880  ( 0.026077  0.047313  0.031013)
 92:   1910.63   0.027132  137.11  0.004431  (-0.004909 -0.035562  0.056060)
 93:   1916.86   0.015256   77.10  0.002484  (-0.036455  0.000279  0.033980)
 94:   1927.34   0.012837   64.87  0.002079  ( 0.002698  0.045100 -0.006103)
 95:   1942.72   0.051628  260.90  0.008293  ( 0.012934  0.088231 -0.018467)

* The epsilon (eps) is given for a Dirac delta lineshape.
** The dipole moment derivative (T) already includes vibrational overlap.

The first frequency considered to be a vibration is 6
The total number of vibrations considered is 90


--------------------------
THERMOCHEMISTRY AT 298.15K
--------------------------

Temperature         ...   298.15 K
Pressure            ...     1.00 atm
Total Mass          ...   240.05 AMU
Quasi RRHO          ...     True
Cut-Off Frequency   ...     1.00 cm^-1

Throughout the following assumptions are being made:
  (1) The electronic state is orbitally nondegenerate
  (2) There are no thermally accessible electronically excited states
  (3) Hindered rotations indicated by low frequency modes are not
      treated as such but are treated as vibrations and this may
      cause some error
  (4) All equations used are the standard statistical mechanics
      equations for an ideal gas
  (5) All vibrations are strictly harmonic

freq.      33.31  E(vib)   ...       0.55 
freq.      62.37  E(vib)   ...       0.51 
freq.      89.52  E(vib)   ...       0.47 
freq.     100.48  E(vib)   ...       0.46 
freq.     113.92  E(vib)   ...       0.44 
freq.     131.97  E(vib)   ...       0.42 
freq.     141.32  E(vib)   ...       0.41 
freq.     166.11  E(vib)   ...       0.39 
freq.     179.05  E(vib)   ...       0.37 
freq.     196.08  E(vib)   ...       0.36 
freq.     198.07  E(vib)   ...       0.35 
freq.     203.24  E(vib)   ...       0.35 
freq.     208.25  E(vib)   ...       0.34 
freq.     224.58  E(vib)   ...       0.33 
freq.     233.37  E(vib)   ...       0.32 
freq.     247.19  E(vib)   ...       0.31 
freq.     261.12  E(vib)   ...       0.30 
freq.     266.61  E(vib)   ...       0.29 
freq.     277.95  E(vib)   ...       0.28 
freq.     306.26  E(vib)   ...       0.26 
freq.     316.28  E(vib)   ...       0.25 
freq.     336.97  E(vib)   ...       0.24 
freq.     341.22  E(vib)   ...       0.23 
freq.     354.93  E(vib)   ...       0.22 
freq.     362.34  E(vib)   ...       0.22 
freq.     393.48  E(vib)   ...       0.20 
freq.     398.08  E(vib)   ...       0.20 
freq.     412.56  E(vib)   ...       0.19 
freq.     437.01  E(vib)   ...       0.17 
freq.     454.26  E(vib)   ...       0.16 
freq.     474.73  E(vib)   ...       0.15 
freq.     484.94  E(vib)   ...       0.15 
freq.     500.98  E(vib)   ...       0.14 
freq.     541.17  E(vib)   ...       0.12 
freq.     545.52  E(vib)   ...       0.12 
freq.     546.01  E(vib)   ...       0.12 
freq.     572.41  E(vib)   ...       0.11 
freq.     574.63  E(vib)   ...       0.11 
freq.     589.64  E(vib)   ...       0.10 
freq.     606.90  E(vib)   ...       0.10 
freq.     610.85  E(vib)   ...       0.10 
freq.     623.25  E(vib)   ...       0.09 
freq.     649.68  E(vib)   ...       0.08 
freq.     660.39  E(vib)   ...       0.08 
freq.     685.32  E(vib)   ...       0.07 
freq.     719.19  E(vib)   ...       0.07 
freq.     722.37  E(vib)   ...       0.07 
freq.     734.43  E(vib)   ...       0.06 
freq.     750.57  E(vib)   ...       0.06 
freq.     782.41  E(vib)   ...       0.05 
freq.     798.09  E(vib)   ...       0.05 
freq.     834.87  E(vib)   ...       0.04 
freq.     840.99  E(vib)   ...       0.04 
freq.     854.44  E(vib)   ...       0.04 
freq.     881.46  E(vib)   ...       0.04 
freq.     887.35  E(vib)   ...       0.04 
freq.     923.54  E(vib)   ...       0.03 
freq.     937.50  E(vib)   ...       0.03 
freq.     946.28  E(vib)   ...       0.03 
freq.     963.63  E(vib)   ...       0.03 
freq.     980.01  E(vib)   ...       0.02 
freq.     987.75  E(vib)   ...       0.02 
freq.    1029.26  E(vib)   ...       0.02 
freq.    1031.50  E(vib)   ...       0.02 
freq.    1034.84  E(vib)   ...       0.02 
freq.    1167.85  E(vib)   ...       0.01 
freq.    1542.56  E(vib)   ...       0.00 
freq.    1635.32  E(vib)   ...       0.00 
freq.    1671.09  E(vib)   ...       0.00 
freq.    1702.00  E(vib)   ...       0.00 
freq.    1724.59  E(vib)   ...       0.00 
freq.    1734.32  E(vib)   ...       0.00 
freq.    1740.24  E(vib)   ...       0.00 
freq.    1775.91  E(vib)   ...       0.00 
freq.    1809.62  E(vib)   ...       0.00 
freq.    1812.15  E(vib)   ...       0.00 
freq.    1820.94  E(vib)   ...       0.00 
freq.    1830.62  E(vib)   ...       0.00 
freq.    1841.97  E(vib)   ...       0.00 
freq.    1873.18  E(vib)   ...       0.00 
freq.    1888.43  E(vib)   ...       0.00 
freq.    1894.99  E(vib)   ...       0.00 
freq.    1895.61  E(vib)   ...       0.00 
freq.    1903.89  E(vib)   ...       0.00 
freq.    1904.28  E(vib)   ...       0.00 
freq.    1908.35  E(vib)   ...       0.00 
freq.    1910.63  E(vib)   ...       0.00 
freq.    1916.86  E(vib)   ...       0.00 
freq.    1927.34  E(vib)   ...       0.00 
freq.    1942.72  E(vib)   ...       0.00 

------------
INNER ENERGY
------------

The inner energy is: U= E(el) + E(ZPE) + E(vib) + E(rot) + E(trans)
    E(el)   - is the total energy from the electronic structure calculation
              = E(kin-el) + E(nuc-el) + E(el-el) + E(nuc-nuc)
    E(ZPE)  - the the zero temperature vibrational energy from the frequency calculation
    E(vib)  - the the finite temperature correction to E(ZPE) due to population
              of excited vibrational states
    E(rot)  - is the rotational thermal energy
    E(trans)- is the translational thermal energy

Summary of contributions to the inner energy U:
Electronic energy                ...  -1952.74488890 Eh
Zero point energy                ...      0.17890507 Eh     112.26 kcal/mol
Thermal vibrational correction   ...      0.01921845 Eh      12.06 kcal/mol
Thermal rotational correction    ...      0.00141627 Eh       0.89 kcal/mol
Thermal translational correction ...      0.00141627 Eh       0.89 kcal/mol
-----------------------------------------------------------------------
Total thermal energy                  -1952.54393284 Eh


Summary of corrections to the electronic energy:
(perhaps to be used in another calculation)
Total thermal correction                  0.02205099 Eh      13.84 kcal/mol
Non-thermal (ZPE) correction              0.17890507 Eh     112.26 kcal/mol
-----------------------------------------------------------------------
Total correction                          0.20095606 Eh     126.10 kcal/mol


--------
ENTHALPY
--------

The enthalpy is H = U + kB*T
                kB is Boltzmann's constant
Total thermal energy              ...  -1952.54393284 Eh 
Thermal Enthalpy correction       ...      0.00094421 Eh       0.59 kcal/mol
-----------------------------------------------------------------------
Total Enthalpy                    ...  -1952.54298864 Eh


Note: Only C1 symmetry has been detected, increase convergence thresholds 
      if your molecule has a higher symmetry. Symmetry factor of 1.0 is   
      used for the rotational entropy correction. 
 

Note: Rotational entropy computed according to Herzberg 
Infrared and Raman Spectra, Chapter V,1, Van Nostrand Reinhold, 1945 
Point Group:  C1, Symmetry Number:   1  
Rotational constants in cm-1:     0.015986     0.012951     0.009159 

Vibrational entropy computed according to the QRRHO of S. Grimme
Chem.Eur.J. 2012 18 9955 using a reference frequency of 100.0 cm-1


-------
ENTROPY
-------

The entropy contributions are T*S = T*(S(el)+S(vib)+S(rot)+S(trans))
     S(el)   - electronic entropy
     S(vib)  - vibrational entropy
     S(rot)  - rotational entropy
     S(trans)- translational entropy
The entropies will be listed as multiplied by the temperature to get
units of energy

Electronic entropy                ...      0.00000000 Eh      0.00 kcal/mol
Vibrational entropy               ...      0.03275255 Eh     20.55 kcal/mol
Rotational entropy                ...      0.01573092 Eh      9.87 kcal/mol
Translational entropy             ...      0.02011143 Eh     12.62 kcal/mol
-----------------------------------------------------------------------
Final entropy term                ...      0.06859490 Eh     43.04 kcal/mol

In case the symmetry of your molecule has not been determined correctly
or in case you have a reason to use a different symmetry number we print 
out the resulting rotational entropy values for sn=1,12:

 non-linear molecules -----------------------------------
|  sn= 1 | S(rot)=       0.01573092 Eh      9.87 kcal/mol|
|  sn= 2 | S(rot)=       0.01507647 Eh      9.46 kcal/mol|
|  sn= 3 | S(rot)=       0.01469363 Eh      9.22 kcal/mol|
|  sn= 4 | S(rot)=       0.01442201 Eh      9.05 kcal/mol|
|  sn= 5 | S(rot)=       0.01421132 Eh      8.92 kcal/mol|
|  sn= 6 | S(rot)=       0.01403918 Eh      8.81 kcal/mol|
|  sn= 7 | S(rot)=       0.01389363 Eh      8.72 kcal/mol|
|  sn= 8 | S(rot)=       0.01376755 Eh      8.64 kcal/mol|
|  sn= 9 | S(rot)=       0.01365634 Eh      8.57 kcal/mol|
|  sn=10 | S(rot)=       0.01355687 Eh      8.51 kcal/mol|
|  sn=11 | S(rot)=       0.01346688 Eh      8.45 kcal/mol|
|  sn=12 | S(rot)=       0.01338472 Eh      8.40 kcal/mol|
 linear molecules ---------------------------------------
|  Dinfh | S(rot)=       0.00975689 Eh      6.12 kcal/mol|
|  Cinfv | S(rot)=       0.01041135 Eh      6.53 kcal/mol|
 --------------------------------------------------------


-------------------
GIBBS FREE ENERGY
-------------------

The Gibbs free energy is G = H - T*S

Total enthalpy                    ...  -1952.54298864 Eh 
Total entropy correction          ...     -0.06859490 Eh    -43.04 kcal/mol
-----------------------------------------------------------------------
Final Gibbs free energy         ...  -1952.61158353 Eh

For completeness - the Gibbs free energy minus the electronic energy
G-E(el)                           ...      0.13330537 Eh     83.65 kcal/mol


Maximum memory used throughout the entire PROP-calculation: 70.1 MB

--------------------------------
SUGGESTED CITATIONS FOR THIS RUN
--------------------------------

Below you find a list of papers that are relevant to this ORCA run
We neither can nor want to force you to cite these papers, but we appreciate if you do
You receive ORCA, which is the product of decades of hard work by many enthusiastic individuals, for free
The only thing we kindly ask in return is that you cite our papers,
We deeply appreciate it, if you show your appreciation for ORCA by not just citing the generic ORCA reference.

Please note that relegating all ORCA citations to the supporting information does *not* help us.
SI sections are not indexed - citations you put there will not count into any citation statistics
But we need these citations in order to attract the funding resources that allow us to do what we are doing

Therefore, if you are a happy ORCA user, please consider citing a few of the papers listed below in the main body of your paper

In addition to the list printed below, the program has created the file run.bibtex that contains the list in bibtex format
You can import this file easily into all common literature databanks and citation aid programs


List of essential papers. We consider these as the minimum necessary citations

  1. Neese, F.
     Software update: the ORCA program system, version 6.0
     WIRES Comput. Molec. Sci. 2025 15(1), e70019
     doi.org/10.1002/wcms.7019

List of papers to cite with high priority. The work reported in these papers was absolutely
necessary for this run to complete.
Our perspective: the developers of density functionals and basis sets usually get cited in chemistry papers
Good! But without the algorithms to do something with them, the functionals or basis sets would not do anything.
Hence, in our opinion, the algorithm design and method developments papers are equally worthy of getting cited

  1. Neese, F.
     An improvement of the resolution of the identity approximation for the formation of the Coulomb matrix
     J. Comp. Chem. 2003 24(14), 1740-1747
     doi.org/10.1002/jcc.10318
  2. Grimme, S.; Antony, J.; Ehrlich, S.; Krieg, H.
     A consistent and accurate ab initio parametrization of density functional dispersion correction (DFT-D) for the 94 elements H-Pu
     J. Chem. Phys. 2010 132 , 154104
     doi.org/10.1063/1.3382344
  3. Grimme, S.; Ehrlich, S.; Goerigk, L.
     Effect of the damping function in dispersion corrected density functional theory
     J. Comput. Chem. 2011 32(7), 1456-1465
     doi.org/10.1002/jcc.21759
  4. Bykov, D.; Petrenko, T.; Izsak, R.; Kossmann, S.; Becker, U.; Valeev, E.; Neese, F.
     Efficient implementation of the analytic second derivatives of Hartree-Fock and hybrid DFT energies: a detailed analysis of different approximations
     Molec. Phys. 2015 113 , 1961-1977
     doi.org/10.1080/00268976.2015.1025114
  5. Neese, F.
     The SHARK Integral Generation and Digestion System
     J. Comp. Chem. 2022 44(3), 381
     doi.org/10.1002/jcc.26942

List of suggested additional citations. These are papers that are important in the 'surrounding' of 
of this run, or papers that preceded the highly important papers. If you like your results we are grateful for a citation.

  1. Neese, F.
     The ORCA program system
     WIRES Comput. Molec. Sci. 2012 2(1), 73-78
     doi.org/10.1002/wcms.81
  2. Neese, F.
     Software update: the ORCA program system, version 4.0
     WIRES Comput. Molec. Sci. 2018 8(1), 1-6
     doi.org/10.1002/wcms.1327
  3. Neese, F.; Wennmohs, F.; Becker, U.; Riplinger, C.
     The ORCA quantum chemistry program package
     J. Chem. Phys. 2020 152(22), 224108
     doi.org/10.1063/5.0004608
  4. Neese, F.
     Software update: The ORCA program system—Version 5.0
     WIRES Comput. Molec. Sci. 2022 12(1), e1606
     doi.org/10.1002/wcms.1606

List of optional additional citations

  1. Neese, F.
     Approximate second-order SCF convergence for spin unrestricted wavefunctions
     Chem. Phys. Lett. 2000 325(1-3), 93-98
     doi.org/10.1016/s0009-2614(00)00662-x

Timings for individual modules:

Sum of individual times          ...     1980.757 sec (=  33.013 min)
Startup calculation              ...      410.723 sec (=   6.845 min)  20.7 %
SCF iterations                   ...      507.546 sec (=   8.459 min)  25.6 %
Property integrals               ...      272.728 sec (=   4.545 min)  13.8 %
SCF Response                     ...      176.990 sec (=   2.950 min)   8.9 %
Property calculations            ...      108.923 sec (=   1.815 min)   5.5 %
SCF Gradient evaluation          ...      491.249 sec (=   8.187 min)  24.8 %
Geometry relaxation              ...       12.598 sec (=   0.210 min)   0.6 %
                             ****ORCA TERMINATED NORMALLY****
TOTAL RUN TIME: 0 days 0 hours 33 minutes 39 seconds 399 msec
