
                                 *****************
                                 * O   R   C   A *
                                 *****************

                                            #,                                       
                                            ###                                      
                                            ####                                     
                                            #####                                    
                                            ######                                   
                                           ########,                                 
                                     ,,################,,,,,                         
                               ,,#################################,,                 
                          ,,##########################################,,             
                       ,#########################################, ''#####,          
                    ,#############################################,,   '####,        
                  ,##################################################,,,,####,       
                ,###########''''           ''''###############################       
              ,#####''   ,,,,##########,,,,          '''####'''          '####       
            ,##' ,,,,###########################,,,                        '##       
           ' ,,###''''                  '''############,,,                           
         ,,##''                                '''############,,,,        ,,,,,,###''
      ,#''                                            '''#######################'''  
     '                                                          ''''####''''         
             ,#######,   #######,   ,#######,      ##                                
            ,#'     '#,  ##    ##  ,#'     '#,    #''#        ,####,    ,#,          
            ##       ##  ##   ,#'  ##            #'  '#       #'       ,# #          
            ##       ##  #######   ##           ,######,      #####,      #          
            '#,     ,#'  ##    ##  '#,     ,#' ,#      #,     #,   #      #          
             '#######'   ##     ##  '#######'  #'      '#     '####' #    #          



                #########################################################
                #                        -***-                          #
                #          Department of theory and spectroscopy        #
                #                                                       #
                #                      Frank Neese                      #
                #                                                       #
                #     Directorship, Architecture, Infrastructure        #
                #                    SHARK, DRIVERS                     #
                #        Core code/Algorithms in most modules           #
                #                                                       #
                #        Max Planck Institute fuer Kohlenforschung      #
                #                Kaiser Wilhelm Platz 1                 #
                #                 D-45470 Muelheim/Ruhr                 #
                #                      Germany                          #
                #                                                       #
                #                  All rights reserved                  #
                #                        -***-                          #
                #########################################################


                         Program Version 6.1.0  -  RELEASE   -
                                (GIT: $679e74b$)
                          ($2025-06-10 18:02:51 +0200$)


 With contributions from (in alphabetic order):
[Max-Planck-Institut fuer Kohlenforschung]                               
  Daniel Aravena         : Magnetic Suceptibility                        
  Michael Atanasov       : Ab Initio Ligand Field Theory (pilot matlab implementation)
  Alexander A. Auer      : GIAO ZORA, VPT2 properties, NMR spectrum      
  Ute Becker             : All parallelization in ORCA, NUMFREQ, NUMCALC 
  Giovanni Bistoni       : ED, misc. LED, open-shell LED, HFLD           
  Dmytro Bykov           : pre 5.0 version of the SCF Hessian            
  Marcos Casanova-Páez   : Triplet and SCS-CIS(D). UHF-(DLPNO)-IP/EA/STEOM-CCSD. UHF-CVS-IP/STEOM-CCSD   
  Vijay G. Chilkuri      : MRCI spin determinant printing, contributions to CSF-ICE 
  Pauline Colinet        : FMM embedding                                 
  Dipayan Datta          : RHF DLPNO-CCSD density                        
  Achintya Kumar Dutta   : EOM-CC, STEOM-CC                              
  Nicolas Foglia         : Exact transition moments, OPA infrastructure, MCD improvements    
  Dmitry Ganyushin       : Spin-Orbit,Spin-Spin,Magnetic field MRCI      
  Miquel Garcia-Rates    : C-PCM and meta-GGA Hessian, CCSD/C-PCM, Gaussian charge scheme 
  Tiago L. C. Gouveia    : GS-ROHF, GS-ROCIS                             
  Yang Guo               : DLPNO-NEVPT2, F12-NEVPT2, CIM, IAO-localization        
  Andreas Hansen         : Spin unrestricted coupled pair/coupled cluster methods 
  Ingolf Harden          : AUTO-CI MPn and infrastructure                
  Benjamin Helmich-Paris : MC-RPA, TRAH-(SCF,CASSCF), AVAS, COSX integrals, SCF dyn. polar., MC-PDFT, srDFT 
  Lee Huntington         : MR-EOM, pCC                                   
  Robert Izsak           : Overlap fitted RIJCOSX, COSX-SCS-MP3, EOM     
  Riya Kayal             : Wick's Theorem for AUTO-CI, AUTO-CI UHF-CCSDT 
  Emily Kempfer          : AUTO-CI RHF CISDT and CCSDT, approximate NEVPT4
  Christian Kollmar      : KDIIS, OOCD, Brueckner-CCSD(T), CCSD density, CASPT2, CASPT2-K, improved NEVPT2 
  Axel Koslowski         : Symmetry handling                             
  Simone Kossmann        : meta-GGA functionals, TD-DFT gradient, OOMP2, (MP2 Hessian; deprecated post 5.0) 
  Lucas Lang             : DCDCAS, Hyperfine gauge corrections, ICE-SOC+SSC
  Marvin Lechner         : AUTO-CI (C++ implementation), FIC-MRCC        
  Spencer Leger          : CASSCF response                               
  Dagmar Lenk            : GEPOL surface, SMD, ORCA-2-JSON               
  Dimitrios Liakos       : Extrapolation schemes; Compound Job, Property file
  Dimitrios Manganas     : Further ROCIS development; embedding schemes. LFT, Crystal Embedding 
  Dimitrios Pantazis     : SARC Basis sets                               
  Anastasios Papadopoulos: AUTO-CI, single reference methods and gradients 
  Taras Petrenko         : pre 6.0 DFT Hessian and TD-DFT gradient,  ECA, NRVS 
  Petra Pikulova         : Analytic Raman intensities                    
  Peter Pinski           : DLPNO-MP2, DLPNO-MP2 Gradient                 
  Shashank Vittal Rao    : ES-AILFT, MagRelax                            
  Christoph Reimann      : Effective Core Potentials                     
  Marius Retegan         : Local ZFS, SOC                                
  Christoph Riplinger    : Optimizer, TS searches, QM/MM, DLPNO-CCSD(T), (RO)-DLPNO pert. Triples 
  Michael Roemelt        : Original ROCIS implementation, recursive CI coupling coefficients
  Masaaki Saitow         : Open-shell DLPNO-CCSD energy and density      
  Barbara Sandhoefer     : DKH picture change effects                    
  Yorick L. A. Schmerwitz: GMF and freeze-and-release deltaSCF, NEB S-IDPP initial path                    
  Kantharuban Sivalingam : CASSCF convergence/infrastructure, NEVPT2, NEVPT3, NEVPT4(SD), FIC-MRCI and CEPA variants
  Bernardo de Souza      : ESD, SOC TD-DFT                               
  Georgi L. Stoychev     : AutoAux, RI-MP2 NMR, DLPNO-MP2 response, X2C  
  Van Anh Tran           : RI-MP2 g-tensors                              
  Willem Van den Heuvel  : Paramagnetic NMR                              
  Zikuan Wang            : NOTCH, Electric field optimization            
  Frank Wennmohs         : Technical directorship and infrastructure     
  Hang Xu                : AUTO-CI-Response properties                   
                                                                         
[FACCTs GmbH]                                                            
  Markus Bursch, Nicolas Foglia, Miquel Garcia-Rates, Ingolf Harden, Hagen Neugebauer, Anastasios Papadopoulos, 
  Christoph Riplinger, Bernardo de Souza, Georgi L. Stoychev                                                    
                                                                 
  APM, various basis sets, CI-OPT, improved COSX, DLPNO-Multilevel,           
  DOCKER, DRACO, updates on ESD, Fragmentator, GOAT, IRC, LR-CPCM, L-BFGS, MBIS, meta-GGA TD-DFT gradient, ML-optimized integration grids, 
  MM, NACMEs, nearIR, NEB, NEB-TS, NL-DFT gradient (VV10), 2- and 3-layer-ONIOM, interface openCOSMO-RS, QMMM,   
  Crystal-QMMM, RESP, rigid body optimization, SF, symmetry and pop. for TD-DFT, various functionals, SOLVATOR                                   
                                                                         
[Other institutions]                                                     
  V. Asgeirsson          : NEB                                           
  Christoph Bannwarth    : sTDA-DFT, sTD-DFT, PBEh-3c, B97-3c, D3        
  Giovanni Bistoni       : ETS/NOCV, ADLD/ADEX, COVALED                  
  Martin Brehm           : Molecular dynamics                            
  Ronald Cardenas        : ETS/NOCV                                      
  Martina Colucci        : COVALED                                       
  Sebastian Ehlert       : rSCAN, r2SCAN, r2SCAN-3c, D4, dhf basis sets  
  Marvin Friede          : D4 for Fr, Ra, Ac-Lr                          
  Lars Goerigk           : TD-DFT with DH, B97 family of functionals     
  Stefan Grimme          : VdW corrections, initial TS optimization, DFT functionals, gCP, sTDA/sTD-DF 
  Waldemar Hujo          : DFT-NL                                        
  H. Jonsson             : NEB                                           
  Holger Kruse           : gCP                                           
  Marcel Mueller         : wB97X-3c, vDZP basis set                      
  Hagen Neugebauer       : wr2SCAN, Native XTB                           
  Gianluca Regni         : ADLD/ADEX                                     
  Tobias Risthaus        : pre 6.0 range-separated hybrid DFT and stability analysis
  Lukas Wittmann         : regularized MP2, r2SCAN double-hybrids, wr2SCAN        
                                                                         
We gratefully acknowledge several colleagues who have allowed us to      
interface, adapt or use parts of their codes:                            
  Ed Valeev, F. Pavosevic, A. Kumar             : LibInt (2-el integral package), F12 methods 
  Garnet Chan, S. Sharma, J. Yang, R. Olivares  : DMRG                   
  Ulf Ekstrom                                   : XCFun DFT Library      
  Mihaly Kallay                                 : mrcc  (arbitrary order and MRCC methods)
  Frank Weinhold                                : gennbo (NPA and NBO analysis)           
  Simon Mueller                                 : openCOSMO-RS                            
  Christopher J. Cramer and Donald G. Truhlar   : smd solvation model                     
  S Lehtola, MJT Oliveira, MAL Marques          : LibXC Library                           
  Liviu Ungur et al                             : ANISO software                          


 Your calculation uses the libint2 library for the computation of 2-el integrals
 For citations please refer to: http://libint.valeyev.net

 Your ORCA version has been built with support for libXC version: 7.0.0
 For citations please refer to: https://libxc.gitlab.io

 This ORCA versions uses:
   CBLAS   interface :  Fast vector & matrix operations
   LAPACKE interface :  Fast linear algebra routines
   SCALAPACK package :  Parallel linear algebra routines
   Shared memory     :  Shared parallel matrices
   BLAS/LAPACK       :  OpenBLAS 0.3.29  USE64BITINT DYNAMIC_ARCH NO_AFFINITY Zen SINGLE_THREADED
        Core in use  :  Zen
   Copyright (c) 2011-2014, The OpenBLAS Project


  ***********************************
  * Starting time: Thu Aug 14 16:00:34 2025
  * Host name:     gadolinium01
  * Process ID:    853735
  * Working dir.:  /local/scratch/mehlhorn/61916
  ***********************************



***************************************
The coordinates will be read from file: start.xyz
***************************************


Your calculation utilizes the atom-pairwise dispersion correction
with the Becke-Johnson damping scheme (D3BJ)


Warning: RI is on but no J-basis has been assigned. Assigning Def2/J (nothing to worry about!)
================================================================================

cite the ECPs for Zr [Def2-ECP] as follows:
Ce-Yb(ecp-28): M. Dolg, H. Stoll, H.Preuss, J. Chem. Phys., 1989, 90, 1730-1734.
Y-Cd(ecp-28), Hf-Hg(ecp-46): D. Andrae,U. Haeussermann, M. Dolg, H. Stoll, H. Preuss, Theor. Chim. Acta, 1990, 77, 123-141.
In-Sb(ecp-28), Tl-Bi(ecp-46): B. Metz, H. Stoll, M. Dolg, J. Chem. Phys., 2000, 113, 2563-2569.
Te-Xe(ecp-28), Po-Rn(ecp-46): K. A. Peterson, D. Figgen, E. Goll, H. Stoll, M. Dolg, J. Chem. Phys., 2003, 119, 11113-11123.
Rb(ecp-28), Cs(ecp-46): T. Leininger, A. Nicklass, W. Kuechle, H. Stoll, M. Dolg, A. Bergner, Chem. Phys. Lett., 1996, 255, 274-280.
Sr(ecp-28), Ba(ecp-46): M. Kaupp, P. V. Schleyer, H. Stoll and H. Preuss, J. Chem. Phys., 1991, 94, 1360-1366.
La(ecp-46): M. Dolg, H. Stoll, A. Savin, H. Preuss, Theor. Chim. Acta, 1989, 75, 173-194.
Lu(ecp-28): X. Cao, M. Dolg, J. Chem. Phys., 2001, 115, 7348-7355.

ECP parameters for Zr [Def2-ECP] have been obtained from:
TURBOMOLE (7.0.2)

----- Orbital basis set information -----
Your calculation utilizes the basis: def2-TZVP
   F. Weigend and R. Ahlrichs, Phys. Chem. Chem. Phys. 7, 3297 (2005).

----- AuxJ basis set information -----
Your calculation utilizes the auxiliary basis: def2/J
   H-Rn: F. Weigend, Phys. Chem. Chem. Phys. 8, 1057 (2006).
   Fr-Lr: K. Eichkorn, F. Weigend, O. Treutler, R. Ahlrichs; Theor. Chem. Acc. 97, 119 (1997).

================================================================================
                                        WARNINGS
                       Please study these warnings very carefully!
================================================================================


WARNING: Geometry Optimization
  ===> : Switching off AutoStart
         For restart on a previous wavefunction, please use MOREAD

================================================================================
                                       INPUT FILE
================================================================================
NAME = run.inp
|  1> # Geometry optimization for UiO-66-dehydrox SBU
|  2> 
|  3> %pal nprocs 64 end
|  4> 
|  5> ! PBE 	# functional used for the MOF calculations later (non-expensive)
|  6> ! RKS	# closed shell for SBU
|  7> ! D3  # better geometries at low cost
|  8> ! def2-TZVP # Ahlrichs basis set triple zeta with core potentials and auxilarry basis set for coulomb integrals
|  9> ! Freq 	# Frequency analysis to check the stabiltity of the structures
| 10> 
| 11> ! NoPop # population analysis not necessary	
| 12> 
| 13> ! RI 		# speed up calculation 
| 14> ! DEFGRID3 # dense Grid
| 15> ! TightSCF # tight SCF criteria as basis for Geom.-Opt.
| 16> ! TightOpt # tight convergence criteria for geometry optimizations
| 17> 
| 18> ! SmallPrint
| 19> 
| 20> 
| 21> * xyzFile 0 1 start.xyz # no spin
| 22> 
| 23>                          ****END OF INPUT****
================================================================================

                       *****************************
                       * Geometry Optimization Run *
                       *****************************

Geometry optimization settings:
Update method            Update   .... BFGS
Choice of coordinates    CoordSys .... (2022) Redundant Internals
Initial Hessian          InHess   .... Almloef's Model
Max. no of cycles        MaxIter  .... 180

Convergence Tolerances:
Energy Change            TolE     ....  1.0000e-06 Eh
Max. Gradient            TolMAXG  ....  1.0000e-04 Eh/bohr
RMS Gradient             TolRMSG  ....  3.0000e-05 Eh/bohr
Max. Displacement        TolMAXD  ....  1.0000e-03 bohr
RMS Displacement         TolRMSD  ....  6.0000e-04 bohr
Strict Convergence                .... False

------------------------------------------------------------------------------
                        ORCA OPTIMIZATION COORDINATE SETUP
------------------------------------------------------------------------------

The optimization will be done in redundant internal coordinates (2022)
Making redundant internal coordinates   ...  (2022 redundants) done
Evaluating the initial hessian          ...  (Almloef) done
Evaluating the coordinates              ...  done
Calculating the B-matrix                .... done
Calculating the G-matrix                .... done
The number of degrees of freedom        ....  894

    -----------------------------------------------------------------
                    Redundant Internal Coordinates


    -----------------------------------------------------------------
         Definition                    Initial Value    Approx d2E/dq
    -----------------------------------------------------------------
      1. B(Zr  2,Zr  1)                  3.4597         0.031904   
      2. B(Zr  3,Zr  0)                  3.4597         0.031904   
      3. B(Zr  4,Zr  3)                  3.4590         0.031992   
      4. B(Zr  4,Zr  1)                  3.4585         0.032046   
      5. B(Zr  5,Zr  0)                  3.4585         0.032046   
      6. B(Zr  5,Zr  2)                  3.4590         0.031992   
      7. B(O   6,Zr  0)                  2.2203         0.268155   
      8. B(O   6,Zr  3)                  2.0729         0.460741   
      9. B(O   6,Zr  5)                  2.0564         0.489549   
     10. B(O   7,Zr  4)                  2.0564         0.489549   
     11. B(O   7,Zr  1)                  2.2203         0.268155   
     12. B(O   7,Zr  2)                  2.0729         0.460741   
     13. B(O   8,Zr  5)                  2.0726         0.461292   
     14. B(O   8,Zr  2)                  2.2211         0.267325   
     15. B(O   8,Zr  1)                  2.0570         0.488448   
     16. B(O   9,Zr  4)                  2.0726         0.461292   
     17. B(O   9,Zr  3)                  2.2211         0.267325   
     18. B(O   9,Zr  0)                  2.0570         0.488448   
     19. B(O  10,Zr  3)                  2.0566         0.489142   
     20. B(O  10,Zr  4)                  2.2206         0.267774   
     21. B(O  10,Zr  1)                  2.0728         0.460928   
     22. B(O  11,Zr  5)                  2.2206         0.267773   
     23. B(O  11,Zr  2)                  2.0566         0.489142   
     24. B(O  11,Zr  0)                  2.0728         0.460928   
     25. B(O  12,Zr  0)                  2.2132         0.275156   
     26. B(O  13,Zr  0)                  2.2252         0.263351   
     27. B(O  14,Zr  0)                  2.2258         0.262704   
     28. B(O  15,Zr  0)                  2.2648         0.227653   
     29. B(O  16,Zr  1)                  2.2648         0.227653   
     30. B(O  17,Zr  1)                  2.2258         0.262704   
     31. B(O  18,Zr  1)                  2.2252         0.263350   
     32. B(O  19,Zr  1)                  2.2132         0.275156   
     33. B(O  20,Zr  2)                  2.2252         0.263327   
     34. B(O  21,Zr  2)                  2.2647         0.227749   
     35. B(O  22,Zr  2)                  2.2129         0.275486   
     36. B(O  23,Zr  2)                  2.2252         0.263309   
     37. B(O  24,Zr  3)                  2.2252         0.263309   
     38. B(O  25,Zr  3)                  2.2129         0.275486   
     39. B(O  26,Zr  3)                  2.2647         0.227749   
     40. B(O  27,Zr  3)                  2.2252         0.263327   
     41. B(O  28,Zr  4)                  2.2137         0.274672   
     42. B(O  29,Zr  4)                  2.2254         0.263103   
     43. B(O  30,Zr  4)                  2.2250         0.263565   
     44. B(O  31,Zr  4)                  2.2650         0.227541   
     45. B(O  32,Zr  5)                  2.2650         0.227541   
     46. B(O  33,Zr  5)                  2.2250         0.263565   
     47. B(O  34,Zr  5)                  2.2254         0.263103   
     48. B(O  35,Zr  5)                  2.2137         0.274672   
     49. B(C  36,O  33)                  1.2634         0.890960   
     50. B(C  36,O  12)                  1.2672         0.878560   
     51. B(C  37,O  25)                  1.2672         0.878538   
     52. B(C  37,O  13)                  1.2634         0.891015   
     53. B(C  38,O  21)                  1.2597         0.903179   
     54. B(C  38,O  14)                  1.2735         0.858443   
     55. B(C  39,O  29)                  1.2736         0.858291   
     56. B(C  39,O  15)                  1.2596         0.903476   
     57. B(C  40,O  34)                  1.2736         0.858291   
     58. B(C  40,O  16)                  1.2596         0.903476   
     59. B(C  41,O  26)                  1.2597         0.903179   
     60. B(C  41,O  17)                  1.2735         0.858443   
     61. B(C  42,O  22)                  1.2672         0.878538   
     62. B(C  42,O  18)                  1.2634         0.891015   
     63. B(C  43,O  19)                  1.2672         0.878560   
     64. B(C  43,O  30)                  1.2634         0.890960   
     65. B(C  44,O  35)                  1.2672         0.878532   
     66. B(C  44,O  20)                  1.2635         0.890732   
     67. B(C  45,O  31)                  1.2596         0.903443   
     68. B(C  45,O  23)                  1.2736         0.858235   
     69. B(C  46,O  32)                  1.2596         0.903443   
     70. B(C  46,O  24)                  1.2736         0.858235   
     71. B(C  47,O  28)                  1.2672         0.878532   
     72. B(C  47,O  27)                  1.2635         0.890732   
     73. B(H  48,C  41)                  1.1077         0.337458   
     74. B(H  49,C  42)                  1.1067         0.338687   
     75. B(H  50,C  38)                  1.1077         0.337458   
     76. B(H  51,C  37)                  1.1067         0.338687   
     77. B(H  52,C  43)                  1.1067         0.338693   
     78. B(H  53,C  47)                  1.1067         0.338679   
     79. B(H  54,C  39)                  1.1077         0.337459   
     80. B(H  55,C  45)                  1.1077         0.337454   
     81. B(H  56,C  40)                  1.1077         0.337459   
     82. B(H  57,C  46)                  1.1077         0.337454   
     83. B(H  58,C  36)                  1.1067         0.338693   
     84. B(H  59,C  44)                  1.1067         0.338679   
     85. A(O  13,Zr  0,O  14)          128.7904         0.397575   
     86. A(O  12,Zr  0,O  13)           75.8953         0.400826   
     87. A(O  12,Zr  0,O  15)          121.5535         0.390713   
     88. A(Zr  5,Zr  0,O  11)           37.8149         0.332564   
     89. A(Zr  3,Zr  0,Zr  5)           64.8972         0.237985   
     90. A(Zr  3,Zr  0,O  14)          153.4771         0.303245   
     91. A(Zr  5,Zr  0,O  15)          163.5262         0.296621   
     92. A(O  13,Zr  0,O  15)           78.9362         0.387733   
     93. A(O   6,Zr  0,O  13)           82.1766         0.399012   
     94. A(O   9,Zr  0,O  11)           99.1191         0.492039   
     95. A(Zr  3,Zr  0,O  11)           91.4859         0.332319   
     96. A(O   6,Zr  0,O  15)          141.1553         0.388958   
     97. A(O   9,Zr  0,O  14)          121.2116         0.443881   
     98. A(O  14,Zr  0,O  15)           70.5114         0.387567   
     99. A(Zr  5,Zr  0,O  13)          110.4577         0.303580   
    100. A(O  11,Zr  0,O  12)           84.5049         0.442944   
    101. A(Zr  5,Zr  0,O  14)          110.1414         0.303461   
    102. A(Zr  5,Zr  0,O  12)           74.5968         0.305721   
    103. A(O  11,Zr  0,O  15)          133.8492         0.428083   
    104. A(Zr  5,Zr  0,O   9)           91.4803         0.335782   
    105. A(O   6,Zr  0,O  11)           70.1373         0.440885   
    106. A(O   6,Zr  0,O  14)          144.4093         0.398840   
    107. A(Zr  3,Zr  0,O  13)           74.1185         0.303365   
    108. A(Zr  3,Zr  0,O  15)          106.7421         0.296412   
    109. A(O   9,Zr  0,O  15)           75.0922         0.432563   
    110. A(O  12,Zr  0,O  14)           86.2134         0.400653   
    111. A(Zr  3,Zr  0,O   6)           34.8845         0.304244   
    112. A(O   9,Zr  0,O  12)          152.4111         0.447620   
    113. A(O  11,Zr  0,O  13)          147.1913         0.439449   
    114. A(Zr  5,Zr  0,O   6)           34.4634         0.304460   
    115. A(Zr  3,Zr  0,O   9)           37.6605         0.335533   
    116. A(O  11,Zr  0,O  14)           74.6434         0.439254   
    117. A(O   6,Zr  0,O   9)           70.3908         0.445535   
    118. A(O   6,Zr  0,O  12)           85.5230         0.402105   
    119. A(O   9,Zr  0,O  13)           87.3536         0.444079   
    120. A(Zr  3,Zr  0,O  12)          115.3692         0.305503   
    121. A(Zr  4,Zr  1,O  19)           74.5968         0.305721   
    122. A(O   8,Zr  1,O  16)           75.0922         0.432563   
    123. A(O   7,Zr  1,O  18)           82.1766         0.399012   
    124. A(O  17,Zr  1,O  19)           86.2134         0.400653   
    125. A(O  16,Zr  1,O  17)           70.5114         0.387567   
    126. A(Zr  4,Zr  1,O  16)          163.5262         0.296621   
    127. A(Zr  4,Zr  1,O  10)           37.8149         0.332564   
    128. A(O   7,Zr  1,O  10)           70.1373         0.440885   
    129. A(O   8,Zr  1,O  10)           99.1191         0.492039   
    130. A(Zr  2,Zr  1,O   8)           37.6605         0.335533   
    131. A(Zr  4,Zr  1,O  18)          110.4577         0.303580   
    132. A(O  10,Zr  1,O  16)          133.8492         0.428083   
    133. A(O   7,Zr  1,O  17)          144.4093         0.398840   
    134. A(Zr  2,Zr  1,O  16)          106.7421         0.296412   
    135. A(O  10,Zr  1,O  17)           74.6434         0.439254   
    136. A(Zr  4,Zr  1,O  17)          110.1414         0.303461   
    137. A(O   8,Zr  1,O  18)           87.3536         0.444079   
    138. A(Zr  2,Zr  1,O  10)           91.4859         0.332319   
    139. A(O  17,Zr  1,O  18)          128.7904         0.397575   
    140. A(Zr  2,Zr  1,O  19)          115.3692         0.305503   
    141. A(O  10,Zr  1,O  18)          147.1913         0.439449   
    142. A(O  16,Zr  1,O  18)           78.9362         0.387733   
    143. A(O   7,Zr  1,O  19)           85.5230         0.402105   
    144. A(Zr  4,Zr  1,O   7)           34.4634         0.304460   
    145. A(O   8,Zr  1,O  17)          121.2116         0.443881   
    146. A(Zr  2,Zr  1,O  18)           74.1184         0.303365   
    147. A(Zr  4,Zr  1,O   8)           91.4803         0.335782   
    148. A(Zr  2,Zr  1,Zr  4)           64.8972         0.237985   
    149. A(O  18,Zr  1,O  19)           75.8953         0.400826   
    150. A(Zr  2,Zr  1,O   7)           34.8845         0.304243   
    151. A(O   7,Zr  1,O  16)          141.1553         0.388958   
    152. A(Zr  2,Zr  1,O  17)          153.4771         0.303245   
    153. A(O  10,Zr  1,O  19)           84.5049         0.442944   
    154. A(O   7,Zr  1,O   8)           70.3908         0.445534   
    155. A(O   8,Zr  1,O  19)          152.4111         0.447621   
    156. A(O  16,Zr  1,O  19)          121.5535         0.390713   
    157. A(O   8,Zr  2,O  20)           82.1183         0.398789   
    158. A(Zr  1,Zr  2,O  20)          110.4362         0.303360   
    159. A(Zr  5,Zr  2,O  11)           37.6617         0.335766   
    160. A(Zr  5,Zr  2,O   8)           34.8984         0.304226   
    161. A(O   7,Zr  2,O  23)           74.6580         0.439404   
    162. A(O  21,Zr  2,O  23)           70.5509         0.387751   
    163. A(O  22,Zr  2,O  23)           86.1859         0.400899   
    164. A(Zr  1,Zr  2,O   8)           34.4611         0.304093   
    165. A(O  11,Zr  2,O  23)          121.1858         0.444180   
    166. A(O   8,Zr  2,O  22)           85.4765         0.401970   
    167. A(O  11,Zr  2,O  22)          152.4511         0.447833   
    168. A(Zr  1,Zr  2,Zr  5)           64.8564         0.237927   
    169. A(Zr  1,Zr  2,O  21)          163.4815         0.296432   
    170. A(O   7,Zr  2,O   8)           70.0963         0.440606   
    171. A(O  20,Zr  2,O  23)          128.8611         0.397729   
    172. A(O   8,Zr  2,O  23)          144.3698         0.398784   
    173. A(Zr  5,Zr  2,O   7)           91.3597         0.332448   
    174. A(O   8,Zr  2,O  21)          141.1677         0.388776   
    175. A(Zr  5,Zr  2,O  23)          153.4183         0.303490   
    176. A(Zr  1,Zr  2,O  23)          110.0969         0.303357   
    177. A(O  21,Zr  2,O  22)          121.6029         0.390824   
    178. A(Zr  5,Zr  2,O  20)           74.1387         0.303494   
    179. A(Zr  5,Zr  2,O  22)          115.3920         0.305696   
    180. A(O   7,Zr  2,O  21)          133.8303         0.428084   
    181. A(Zr  1,Zr  2,O  22)           74.5884         0.305562   
    182. A(Zr  1,Zr  2,O  11)           91.4300         0.335613   
    183. A(O   7,Zr  2,O  11)           98.9741         0.492131   
    184. A(Zr  5,Zr  2,O  21)          106.7516         0.296561   
    185. A(O   8,Zr  2,O  11)           70.4203         0.445399   
    186. A(O  20,Zr  2,O  21)           78.9816         0.387756   
    187. A(O  11,Zr  2,O  20)           87.4001         0.444186   
    188. A(O   7,Zr  2,O  20)          147.1594         0.439409   
    189. A(Zr  1,Zr  2,O   7)           37.7759         0.332296   
    190. A(O  20,Zr  2,O  22)           75.9359         0.400904   
    191. A(O  11,Zr  2,O  21)           75.0992         0.432706   
    192. A(O   7,Zr  2,O  22)           84.5328         0.443008   
    193. A(O   6,Zr  3,O  10)           98.9741         0.492131   
    194. A(O   9,Zr  3,O  10)           70.4203         0.445399   
    195. A(Zr  4,Zr  3,O  10)           37.6617         0.335766   
    196. A(O  24,Zr  3,O  25)           86.1859         0.400899   
    197. A(O  26,Zr  3,O  27)           78.9816         0.387756   
    198. A(O   9,Zr  3,O  25)           85.4765         0.401970   
    199. A(Zr  0,Zr  3,O  27)          110.4362         0.303360   
    200. A(O  24,Zr  3,O  26)           70.5509         0.387751   
    201. A(O  25,Zr  3,O  27)           75.9359         0.400904   
    202. A(O  24,Zr  3,O  27)          128.8611         0.397729   
    203. A(O   9,Zr  3,O  27)           82.1183         0.398789   
    204. A(O   6,Zr  3,O  27)          147.1594         0.439409   
    205. A(Zr  4,Zr  3,O  27)           74.1388         0.303494   
    206. A(O  10,Zr  3,O  27)           87.4001         0.444186   
    207. A(O   9,Zr  3,O  26)          141.1677         0.388776   
    208. A(O  25,Zr  3,O  26)          121.6029         0.390824   
    209. A(O  10,Zr  3,O  26)           75.0992         0.432706   
    210. A(Zr  4,Zr  3,O   6)           91.3597         0.332448   
    211. A(O   6,Zr  3,O  26)          133.8303         0.428084   
    212. A(Zr  4,Zr  3,O  26)          106.7516         0.296561   
    213. A(Zr  0,Zr  3,O  26)          163.4815         0.296432   
    214. A(O   6,Zr  3,O   9)           70.0963         0.440606   
    215. A(O  10,Zr  3,O  25)          152.4512         0.447833   
    216. A(O   6,Zr  3,O  25)           84.5328         0.443008   
    217. A(Zr  4,Zr  3,O   9)           34.8984         0.304227   
    218. A(Zr  4,Zr  3,O  25)          115.3920         0.305696   
    219. A(Zr  0,Zr  3,O  25)           74.5884         0.305562   
    220. A(O  10,Zr  3,O  24)          121.1858         0.444180   
    221. A(O   9,Zr  3,O  24)          144.3698         0.398784   
    222. A(Zr  0,Zr  3,O   9)           34.4611         0.304093   
    223. A(O   6,Zr  3,O  24)           74.6580         0.439404   
    224. A(Zr  4,Zr  3,O  24)          153.4183         0.303490   
    225. A(Zr  0,Zr  3,O  24)          110.0969         0.303357   
    226. A(Zr  0,Zr  3,O  10)           91.4300         0.335613   
    227. A(Zr  0,Zr  3,O   6)           37.7759         0.332296   
    228. A(Zr  0,Zr  3,Zr  4)           64.8564         0.237927   
    229. A(Zr  1,Zr  4,Zr  3)           64.8679         0.238077   
    230. A(O   9,Zr  4,O  10)           70.1509         0.440835   
    231. A(O   7,Zr  4,O  10)           70.4159         0.445601   
    232. A(Zr  3,Zr  4,O  10)           34.4629         0.304308   
    233. A(O  10,Zr  4,O  28)           85.4927         0.401879   
    234. A(O   9,Zr  4,O  29)           74.6650         0.439437   
    235. A(O  28,Zr  4,O  30)           75.9510         0.400759   
    236. A(O  30,Zr  4,O  31)           78.9104         0.387755   
    237. A(O  29,Zr  4,O  31)           70.5206         0.387637   
    238. A(O   7,Zr  4,O  31)           75.1056         0.432700   
    239. A(O  28,Zr  4,O  31)          121.5795         0.390559   
    240. A(O  10,Zr  4,O  31)          141.1239         0.388828   
    241. A(O   9,Zr  4,O  31)          133.8786         0.428106   
    242. A(Zr  3,Zr  4,O  31)          163.5090         0.296519   
    243. A(Zr  1,Zr  4,O  31)          106.7032         0.296598   
    244. A(O  29,Zr  4,O  30)          128.8295         0.397738   
    245. A(O  10,Zr  4,O  30)           82.1215         0.398970   
    246. A(O   9,Zr  4,O  30)          147.1850         0.439576   
    247. A(O   7,Zr  4,O  30)           87.4491         0.444325   
    248. A(Zr  3,Zr  4,O  30)          110.4421         0.303538   
    249. A(Zr  1,Zr  4,O  30)           74.1399         0.303620   
    250. A(O  28,Zr  4,O  29)           86.2379         0.400636   
    251. A(O  10,Zr  4,O  29)          144.4442         0.398847   
    252. A(O   7,Zr  4,O  29)          121.0905         0.444184   
    253. A(Zr  3,Zr  4,O  29)          110.1738         0.303452   
    254. A(Zr  1,Zr  4,O  29)          153.3872         0.303535   
    255. A(O   9,Zr  4,O  28)           84.4887         0.442866   
    256. A(O   7,Zr  4,O  28)          152.4924         0.447660   
    257. A(Zr  3,Zr  4,O  28)           74.5967         0.305551   
    258. A(O   7,Zr  4,O   9)           98.9869         0.492316   
    259. A(Zr  1,Zr  4,O  28)          115.4218         0.305634   
    260. A(Zr  3,Zr  4,O   9)           37.8153         0.332514   
    261. A(Zr  1,Zr  4,O   9)           91.4338         0.332607   
    262. A(Zr  3,Zr  4,O   7)           91.4025         0.335813   
    263. A(Zr  1,Zr  4,O   7)           37.6595         0.335907   
    264. A(Zr  1,Zr  4,O  10)           34.9104         0.304391   
    265. A(O  11,Zr  5,O  35)           85.4927         0.401879   
    266. A(O  34,Zr  5,O  35)           86.2379         0.400636   
    267. A(O  33,Zr  5,O  35)           75.9510         0.400759   
    268. A(O  32,Zr  5,O  35)          121.5795         0.390559   
    269. A(O   8,Zr  5,O  35)           84.4887         0.442866   
    270. A(O   6,Zr  5,O  35)          152.4924         0.447660   
    271. A(Zr  2,Zr  5,O  35)           74.5967         0.305551   
    272. A(O  33,Zr  5,O  34)          128.8295         0.397738   
    273. A(O  32,Zr  5,O  34)           70.5206         0.387637   
    274. A(O  11,Zr  5,O  34)          144.4442         0.398847   
    275. A(Zr  0,Zr  5,O  35)          115.4218         0.305634   
    276. A(O  32,Zr  5,O  33)           78.9104         0.387755   
    277. A(O   6,Zr  5,O  34)          121.0905         0.444184   
    278. A(Zr  2,Zr  5,O  34)          110.1738         0.303452   
    279. A(Zr  0,Zr  5,O  34)          153.3872         0.303535   
    280. A(O  11,Zr  5,O  33)           82.1215         0.398970   
    281. A(O   8,Zr  5,O  33)          147.1851         0.439576   
    282. A(O   6,Zr  5,O  33)           87.4491         0.444325   
    283. A(Zr  0,Zr  5,O  33)           74.1399         0.303620   
    284. A(O  11,Zr  5,O  32)          141.1239         0.388828   
    285. A(O   8,Zr  5,O  32)          133.8786         0.428106   
    286. A(O   6,Zr  5,O  32)           75.1056         0.432700   
    287. A(Zr  2,Zr  5,O  32)          163.5090         0.296518   
    288. A(Zr  0,Zr  5,O  32)          106.7032         0.296598   
    289. A(Zr  2,Zr  5,O   6)           91.4025         0.335813   
    290. A(Zr  0,Zr  5,O   6)           37.6595         0.335907   
    291. A(Zr  0,Zr  5,Zr  2)           64.8679         0.238077   
    292. A(O   8,Zr  5,O  34)           74.6650         0.439437   
    293. A(O   8,Zr  5,O  11)           70.1509         0.440835   
    294. A(O   6,Zr  5,O  11)           70.4159         0.445601   
    295. A(Zr  2,Zr  5,O  11)           34.4629         0.304308   
    296. A(Zr  0,Zr  5,O  11)           34.9105         0.304391   
    297. A(O   6,Zr  5,O   8)           98.9869         0.492316   
    298. A(Zr  2,Zr  5,O  33)          110.4421         0.303538   
    299. A(Zr  2,Zr  5,O   8)           37.8153         0.332514   
    300. A(Zr  0,Zr  5,O   8)           91.4338         0.332607   
    301. A(Zr  3,O   6,Zr  5)          128.0341         0.492207   
    302. A(Zr  0,O   6,Zr  5)          107.8771         0.445716   
    303. A(Zr  0,O   6,Zr  3)          107.3396         0.440853   
    304. A(Zr  2,O   7,Zr  4)          128.0341         0.492207   
    305. A(Zr  1,O   7,Zr  4)          107.8770         0.445716   
    306. A(Zr  1,O   7,Zr  2)          107.3396         0.440853   
    307. A(Zr  1,O   8,Zr  2)          107.8784         0.445285   
    308. A(Zr  2,O   8,Zr  5)          107.2862         0.440702   
    309. A(Zr  1,O   8,Zr  5)          127.9021         0.492111   
    310. A(Zr  3,O   9,Zr  4)          107.2862         0.440702   
    311. A(Zr  0,O   9,Zr  4)          127.9021         0.492111   
    312. A(Zr  0,O   9,Zr  3)          107.8784         0.445285   
    313. A(Zr  3,O  10,Zr  4)          107.8754         0.445534   
    314. A(Zr  1,O  10,Zr  4)          107.2746         0.440772   
    315. A(Zr  1,O  10,Zr  3)          127.9079         0.492168   
    316. A(Zr  2,O  11,Zr  5)          107.8754         0.445534   
    317. A(Zr  0,O  11,Zr  5)          107.2746         0.440772   
    318. A(Zr  0,O  11,Zr  2)          127.9079         0.492168   
    319. A(Zr  0,O  12,C  36)          131.9818         0.442783   
    320. A(Zr  0,O  13,C  37)          132.2498         0.440407   
    321. A(Zr  0,O  14,C  38)          136.2477         0.437264   
    322. A(Zr  0,O  15,C  39)          128.1243         0.430081   
    323. A(Zr  1,O  16,C  40)          128.1243         0.430081   
    324. A(Zr  1,O  17,C  41)          136.2477         0.437263   
    325. A(Zr  1,O  18,C  42)          132.2498         0.440407   
    326. A(Zr  1,O  19,C  43)          131.9818         0.442783   
    327. A(Zr  2,O  20,C  44)          132.2399         0.440375   
    328. A(Zr  2,O  21,C  38)          128.1341         0.430088   
    329. A(Zr  2,O  22,C  42)          132.0027         0.442877   
    330. A(Zr  2,O  23,C  45)          136.2796         0.437426   
    331. A(Zr  3,O  24,C  46)          136.2796         0.437426   
    332. A(Zr  3,O  25,C  37)          132.0027         0.442877   
    333. A(Zr  3,O  26,C  41)          128.1341         0.430088   
    334. A(Zr  3,O  27,C  47)          132.2399         0.440375   
    335. A(Zr  4,O  28,C  47)          131.9716         0.442639   
    336. A(Zr  4,O  29,C  39)          136.2303         0.437369   
    337. A(Zr  4,O  30,C  43)          132.2377         0.440467   
    338. A(Zr  4,O  31,C  45)          128.1456         0.430040   
    339. A(Zr  5,O  32,C  46)          128.1456         0.430040   
    340. A(Zr  5,O  33,C  36)          132.2377         0.440467   
    341. A(Zr  5,O  34,C  40)          136.2303         0.437369   
    342. A(Zr  5,O  35,C  44)          131.9716         0.442640   
    343. A(O  12,C  36,O  33)          126.9151         0.487684   
    344. A(O  33,C  36,H  58)          116.6397         0.369209   
    345. A(O  12,C  36,H  58)          116.4452         0.368321   
    346. A(O  13,C  37,O  25)          126.9202         0.487687   
    347. A(O  25,C  37,H  51)          116.4405         0.368319   
    348. A(O  13,C  37,H  51)          116.6392         0.369212   
    349. A(O  14,C  38,O  21)          127.4027         0.486824   
    350. A(O  21,C  38,H  50)          116.6187         0.369842   
    351. A(O  14,C  38,H  50)          115.9700         0.366631   
    352. A(O  15,C  39,O  29)          127.3949         0.486838   
    353. A(O  29,C  39,H  54)          115.9735         0.366620   
    354. A(O  15,C  39,H  54)          116.6231         0.369863   
    355. A(O  16,C  40,O  34)          127.3949         0.486838   
    356. A(O  34,C  40,H  56)          115.9735         0.366620   
    357. A(O  16,C  40,H  56)          116.6231         0.369863   
    358. A(O  17,C  41,O  26)          127.4027         0.486824   
    359. A(O  26,C  41,H  48)          116.6187         0.369842   
    360. A(O  17,C  41,H  48)          115.9700         0.366631   
    361. A(O  18,C  42,O  22)          126.9202         0.487687   
    362. A(O  22,C  42,H  49)          116.4405         0.368319   
    363. A(O  18,C  42,H  49)          116.6392         0.369212   
    364. A(O  30,C  43,H  52)          116.6397         0.369209   
    365. A(O  19,C  43,H  52)          116.4452         0.368321   
    366. A(O  19,C  43,O  30)          126.9151         0.487684   
    367. A(O  35,C  44,H  59)          116.4439         0.368317   
    368. A(O  20,C  44,H  59)          116.6298         0.369190   
    369. A(O  20,C  44,O  35)          126.9263         0.487658   
    370. A(O  31,C  45,H  55)          116.6188         0.369860   
    371. A(O  23,C  45,H  55)          115.9651         0.366615   
    372. A(O  23,C  45,O  31)          127.4075         0.486828   
    373. A(O  32,C  46,H  57)          116.6188         0.369860   
    374. A(O  24,C  46,H  57)          115.9651         0.366615   
    375. A(O  24,C  46,O  32)          127.4075         0.486828   
    376. A(O  28,C  47,H  53)          116.4439         0.368317   
    377. A(O  27,C  47,H  53)          116.6298         0.369190   
    378. A(O  27,C  47,O  28)          126.9263         0.487658   
    379. D(O   7,Zr  2,Zr  1,O  10)    -50.8405         0.010000   
    380. D(Zr  5,Zr  2,Zr  1,O  19)    164.2042         0.010000   
    381. D(O   8,Zr  2,Zr  1,Zr  4)    130.8225         0.010000   
    382. D(O   7,Zr  2,Zr  1,O  19)     33.7821         0.010000   
    383. D(O   7,Zr  2,Zr  1,Zr  4)    -23.0724         0.010000   
    384. D(O   7,Zr  2,Zr  1,O  16)    172.1494         0.010000   
    385. D(Zr  5,Zr  2,Zr  1,O   8)    -23.4728         0.010000   
    386. D(Zr  5,Zr  2,Zr  1,Zr  4)    107.3497         0.010000   
    387. D(O   7,Zr  2,Zr  1,O  17)   -108.0706         0.010000   
    388. D(Zr  5,Zr  2,Zr  1,O  17)     22.3516         0.010000   
    389. D(O   7,Zr  2,Zr  1,O   8)   -153.8949         0.010000   
    390. D(Zr  5,Zr  2,Zr  1,O   7)    130.4221         0.010000   
    391. D(Zr  5,Zr  2,Zr  1,O  10)     79.5816         0.010000   
    392. D(O   7,Zr  2,Zr  1,O  18)     99.2430         0.010000   
    393. D(Zr  5,Zr  2,Zr  1,O  16)    -57.4285         0.010000   
    394. D(Zr  5,Zr  2,Zr  1,O  18)   -130.3349         0.010000   
    395. D(O   6,Zr  3,Zr  0,O  11)     50.8405         0.010000   
    396. D(O   6,Zr  3,Zr  0,O  13)    -99.2430         0.010000   
    397. D(O   6,Zr  3,Zr  0,Zr  5)     23.0724         0.010000   
    398. D(O   6,Zr  3,Zr  0,O  12)    -33.7821         0.010000   
    399. D(O   6,Zr  3,Zr  0,O   9)    153.8949         0.010000   
    400. D(O   9,Zr  3,Zr  0,Zr  5)   -130.8225         0.010000   
    401. D(Zr  4,Zr  3,Zr  0,O   6)   -130.4221         0.010000   
    402. D(Zr  4,Zr  3,Zr  0,O  11)    -79.5816         0.010000   
    403. D(Zr  4,Zr  3,Zr  0,Zr  5)   -107.3497         0.010000   
    404. D(Zr  4,Zr  3,Zr  0,O   9)     23.4728         0.010000   
    405. D(Zr  4,Zr  3,Zr  0,O  15)     57.4285         0.010000   
    406. D(Zr  4,Zr  3,Zr  0,O  13)    130.3349         0.010000   
    407. D(O   6,Zr  3,Zr  0,O  15)   -172.1494         0.010000   
    408. D(O   6,Zr  3,Zr  0,O  14)    108.0706         0.010000   
    409. D(Zr  4,Zr  3,Zr  0,O  12)   -164.2042         0.010000   
    410. D(Zr  4,Zr  3,Zr  0,O  14)    -22.3515         0.010000   
    411. D(O   7,Zr  4,Zr  3,O   6)     51.8975         0.010000   
    412. D(Zr  1,Zr  4,Zr  3,Zr  0)    107.3058         0.010000   
    413. D(O   7,Zr  4,Zr  3,O   9)    102.9035         0.010000   
    414. D(O   7,Zr  4,Zr  1,O  17)    175.0500         0.010000   
    415. D(Zr  3,Zr  4,Zr  1,O  18)   -167.5453         0.010000   
    416. D(Zr  1,Zr  4,Zr  3,O  27)   -130.3952         0.010000   
    417. D(Zr  1,Zr  4,Zr  3,O  10)    -23.4807         0.010000   
    418. D(O   7,Zr  4,Zr  3,O  24)     -5.1458         0.010000   
    419. D(Zr  1,Zr  4,Zr  3,O  25)    164.0930         0.010000   
    420. D(O   7,Zr  4,Zr  3,O  26)    -85.0362         0.010000   
    421. D(Zr  1,Zr  4,Zr  3,O  24)     22.4566         0.010000   
    422. D(O   9,Zr  4,Zr  1,Zr  2)    -79.5710         0.010000   
    423. D(O   7,Zr  4,Zr  3,O  10)    -51.0831         0.010000   
    424. D(Zr  3,Zr  4,Zr  1,O  16)    -44.9149         0.010000   
    425. D(O   7,Zr  4,Zr  1,O  16)     85.7854         0.010000   
    426. D(O   7,Zr  4,Zr  1,O  19)   -104.9711         0.010000   
    427. D(Zr  1,Zr  4,Zr  3,O  26)    -57.4338         0.010000   
    428. D(Zr  3,Zr  4,Zr  1,O  10)     23.2016         0.010000   
    429. D(O   7,Zr  4,Zr  1,O  10)    153.9019         0.010000   
    430. D(Zr  1,Zr  4,Zr  3,O   6)     79.4999         0.010000   
    431. D(O   7,Zr  4,Zr  3,O  25)    136.4906         0.010000   
    432. D(O   7,Zr  4,Zr  3,Zr  0)     79.7034         0.010000   
    433. D(O   7,Zr  4,Zr  1,O  18)    -36.8450         0.010000   
    434. D(Zr  3,Zr  4,Zr  1,Zr  2)   -107.3670         0.010000   
    435. D(Zr  3,Zr  4,Zr  1,O  17)     44.3497         0.010000   
    436. D(Zr  3,Zr  4,Zr  1,O  19)    124.3286         0.010000   
    437. D(O   7,Zr  4,Zr  1,O   8)     50.8823         0.010000   
    438. D(O   7,Zr  4,Zr  1,Zr  2)     23.3333         0.010000   
    439. D(Zr  3,Zr  4,Zr  1,O   8)    -79.8180         0.010000   
    440. D(Zr  1,Zr  4,Zr  3,O   9)    130.5059         0.010000   
    441. D(O   7,Zr  4,Zr  3,O  27)   -157.9976         0.010000   
    442. D(Zr  3,Zr  4,Zr  1,O   7)   -130.7003         0.010000   
    443. D(O   6,Zr  5,Zr  2,O  23)      5.1457         0.010000   
    444. D(O   6,Zr  5,Zr  2,O  22)   -136.4906         0.010000   
    445. D(O   6,Zr  5,Zr  2,O  20)    157.9976         0.010000   
    446. D(Zr  0,Zr  5,Zr  2,O  23)    -22.4566         0.010000   
    447. D(Zr  0,Zr  5,Zr  2,O  20)    130.3952         0.010000   
    448. D(Zr  0,Zr  5,Zr  2,O  22)   -164.0930         0.010000   
    449. D(O   6,Zr  5,Zr  2,Zr  1)    -79.7034         0.010000   
    450. D(O   6,Zr  5,Zr  2,O   7)    -51.8975         0.010000   
    451. D(O   6,Zr  5,Zr  2,O   8)   -102.9035         0.010000   
    452. D(Zr  0,Zr  5,Zr  2,O   7)    -79.4999         0.010000   
    453. D(O   8,Zr  5,Zr  0,Zr  3)     79.5710         0.010000   
    454. D(O   6,Zr  5,Zr  2,O  11)     51.0831         0.010000   
    455. D(O   6,Zr  5,Zr  0,O  12)    104.9711         0.010000   
    456. D(O   6,Zr  5,Zr  0,O  14)   -175.0500         0.010000   
    457. D(Zr  2,Zr  5,Zr  0,O   9)     79.8180         0.010000   
    458. D(Zr  2,Zr  5,Zr  0,O  15)     44.9149         0.010000   
    459. D(Zr  0,Zr  5,Zr  2,O   8)   -130.5059         0.010000   
    460. D(Zr  2,Zr  5,Zr  0,O  14)    -44.3497         0.010000   
    461. D(Zr  0,Zr  5,Zr  2,O  11)     23.4807         0.010000   
    462. D(Zr  0,Zr  5,Zr  2,O  21)     57.4338         0.010000   
    463. D(O   6,Zr  5,Zr  0,O   9)    -50.8823         0.010000   
    464. D(O   6,Zr  5,Zr  2,O  21)     85.0361         0.010000   
    465. D(O   6,Zr  5,Zr  0,Zr  3)    -23.3333         0.010000   
    466. D(Zr  2,Zr  5,Zr  0,O  12)   -124.3286         0.010000   
    467. D(Zr  0,Zr  5,Zr  2,Zr  1)   -107.3057         0.010000   
    468. D(Zr  2,Zr  5,Zr  0,Zr  3)    107.3670         0.010000   
    469. D(O   6,Zr  5,Zr  0,O  11)   -153.9019         0.010000   
    470. D(Zr  2,Zr  5,Zr  0,O  11)    -23.2016         0.010000   
    471. D(Zr  2,Zr  5,Zr  0,O   6)    130.7003         0.010000   
    472. D(O   6,Zr  5,Zr  0,O  13)     36.8450         0.010000   
    473. D(Zr  2,Zr  5,Zr  0,O  13)    167.5453         0.010000   
    474. D(O   6,Zr  5,Zr  0,O  15)    -85.7854         0.010000   
    475. D(Zr  3,O   6,Zr  5,O   8)     49.9415         0.010000   
    476. D(Zr  3,O   6,Zr  5,Zr  2)     87.1749         0.010000   
    477. D(Zr  3,O   6,Zr  5,Zr  0)    130.5338         0.010000   
    478. D(Zr  0,O   6,Zr  5,O  32)    146.2444         0.010000   
    479. D(Zr  0,O   6,Zr  3,O   9)     15.3551         0.010000   
    480. D(Zr  5,O   6,Zr  3,O   9)   -115.3775         0.010000   
    481. D(Zr  0,O   6,Zr  5,Zr  2)    -43.3588         0.010000   
    482. D(Zr  0,O   6,Zr  5,O   8)    -80.5922         0.010000   
    483. D(Zr  5,O   6,Zr  3,Zr  0)   -130.7326         0.010000   
    484. D(Zr  0,O   6,Zr  3,O  26)    158.5668         0.010000   
    485. D(Zr  0,O   6,Zr  5,O  35)     14.7544         0.010000   
    486. D(Zr  0,O   6,Zr  3,O  25)    -71.8015         0.010000   
    487. D(Zr  0,O   6,Zr  3,O  24)   -159.3351         0.010000   
    488. D(Zr  0,O   6,Zr  3,O  27)    -18.5594         0.010000   
    489. D(Zr  0,O   6,Zr  5,O  34)   -158.0421         0.010000   
    490. D(Zr  5,O   6,Zr  0,Zr  3)    141.1615         0.010000   
    491. D(Zr  5,O   6,Zr  3,Zr  4)    -87.1541         0.010000   
    492. D(Zr  0,O   6,Zr  5,O  11)    -15.4987         0.010000   
    493. D(Zr  3,O   6,Zr  0,O  14)   -133.1603         0.010000   
    494. D(Zr  3,O   6,Zr  0,O  15)     12.0370         0.010000   
    495. D(Zr  3,O   6,Zr  0,O  13)     73.3875         0.010000   
    496. D(Zr  3,O   6,Zr  0,O  12)    149.7382         0.010000   
    497. D(Zr  5,O   6,Zr  0,O  11)     16.6649         0.010000   
    498. D(Zr  3,O   6,Zr  0,O  11)   -124.4966         0.010000   
    499. D(Zr  5,O   6,Zr  0,O   9)    124.5790         0.010000   
    500. D(Zr  3,O   6,Zr  0,Zr  5)   -141.1615         0.010000   
    501. D(Zr  0,O   6,Zr  5,O  33)     67.0442         0.010000   
    502. D(Zr  3,O   6,Zr  0,O   9)    -16.5825         0.010000   
    503. D(Zr  0,O   6,Zr  3,O  10)     80.6466         0.010000   
    504. D(Zr  0,O   6,Zr  3,Zr  4)     43.5784         0.010000   
    505. D(Zr  2,O   7,Zr  1,Zr  4)    141.1615         0.010000   
    506. D(Zr  2,O   7,Zr  4,O   9)    -49.9415         0.010000   
    507. D(Zr  2,O   7,Zr  4,Zr  1)   -130.5338         0.010000   
    508. D(Zr  1,O   7,Zr  4,O  31)   -146.2443         0.010000   
    509. D(Zr  1,O   7,Zr  4,O  30)    -67.0442         0.010000   
    510. D(Zr  1,O   7,Zr  4,O  28)    -14.7544         0.010000   
    511. D(Zr  1,O   7,Zr  4,O  10)     15.4987         0.010000   
    512. D(Zr  1,O   7,Zr  4,O   9)     80.5922         0.010000   
    513. D(Zr  1,O   7,Zr  4,Zr  3)     43.3588         0.010000   
    514. D(Zr  4,O   7,Zr  2,O   8)    115.3775         0.010000   
    515. D(Zr  4,O   7,Zr  2,Zr  5)     87.1541         0.010000   
    516. D(Zr  4,O   7,Zr  2,Zr  1)    130.7326         0.010000   
    517. D(Zr  1,O   7,Zr  2,O  23)    159.3351         0.010000   
    518. D(Zr  1,O   7,Zr  2,O  22)     71.8015         0.010000   
    519. D(Zr  1,O   7,Zr  2,O  21)   -158.5668         0.010000   
    520. D(Zr  1,O   7,Zr  2,O  20)     18.5594         0.010000   
    521. D(Zr  1,O   7,Zr  2,O  11)    -80.6465         0.010000   
    522. D(Zr  1,O   7,Zr  2,O   8)    -15.3551         0.010000   
    523. D(Zr  4,O   7,Zr  1,O  10)    -16.6649         0.010000   
    524. D(Zr  4,O   7,Zr  1,Zr  2)   -141.1615         0.010000   
    525. D(Zr  2,O   7,Zr  1,O  19)   -149.7382         0.010000   
    526. D(Zr  2,O   7,Zr  1,O  18)    -73.3875         0.010000   
    527. D(Zr  4,O   7,Zr  1,O   8)   -124.5790         0.010000   
    528. D(Zr  1,O   7,Zr  4,O  29)    158.0421         0.010000   
    529. D(Zr  2,O   7,Zr  1,O  17)    133.1603         0.010000   
    530. D(Zr  2,O   7,Zr  1,O  16)    -12.0370         0.010000   
    531. D(Zr  2,O   7,Zr  1,O  10)    124.4966         0.010000   
    532. D(Zr  2,O   7,Zr  4,Zr  3)    -87.1749         0.010000   
    533. D(Zr  2,O   7,Zr  1,O   8)     16.5825         0.010000   
    534. D(Zr  1,O   7,Zr  2,Zr  5)    -43.5784         0.010000   
    535. D(Zr  2,O   8,Zr  5,O   6)     80.5981         0.010000   
    536. D(Zr  2,O   8,Zr  5,Zr  0)     43.5174         0.010000   
    537. D(Zr  1,O   8,Zr  5,O  35)    157.5907         0.010000   
    538. D(Zr  1,O   8,Zr  5,O  33)   -149.2545         0.010000   
    539. D(Zr  1,O   8,Zr  5,O  32)     28.0141         0.010000   
    540. D(Zr  1,O   8,Zr  5,O  11)   -115.2240         0.010000   
    541. D(Zr  1,O   8,Zr  5,O   6)    -49.9250         0.010000   
    542. D(Zr  1,O   8,Zr  5,Zr  2)   -130.5231         0.010000   
    543. D(Zr  1,O   8,Zr  5,Zr  0)    -87.0057         0.010000   
    544. D(Zr  5,O   8,Zr  2,O  11)    -16.5241         0.010000   
    545. D(Zr  5,O   8,Zr  2,Zr  1)   -140.9326         0.010000   
    546. D(Zr  1,O   8,Zr  2,O  23)      7.8465         0.010000   
    547. D(Zr  1,O   8,Zr  2,O  22)    -69.1550         0.010000   
    548. D(Zr  1,O   8,Zr  2,O  21)    153.1100         0.010000   
    549. D(Zr  1,O   8,Zr  2,O  20)   -145.5551         0.010000   
    550. D(Zr  1,O   8,Zr  2,O  11)    124.4085         0.010000   
    551. D(Zr  1,O   8,Zr  2,O   7)     16.6586         0.010000   
    552. D(Zr  5,O   8,Zr  2,O   7)   -124.2740         0.010000   
    553. D(Zr  1,O   8,Zr  2,Zr  5)    140.9326         0.010000   
    554. D(Zr  5,O   8,Zr  1,O   7)    114.8079         0.010000   
    555. D(Zr  5,O   8,Zr  1,Zr  4)     87.0284         0.010000   
    556. D(Zr  5,O   8,Zr  1,Zr  2)    130.3027         0.010000   
    557. D(Zr  2,O   8,Zr  1,O  19)     15.1077         0.010000   
    558. D(Zr  2,O   8,Zr  1,O  18)     67.1403         0.010000   
    559. D(Zr  2,O   8,Zr  1,O  17)   -158.0082         0.010000   
    560. D(Zr  1,O   8,Zr  5,O  34)     69.9917         0.010000   
    561. D(Zr  2,O   8,Zr  1,O  16)    146.3922         0.010000   
    562. D(Zr  2,O   8,Zr  1,O  10)    -80.5030         0.010000   
    563. D(Zr  2,O   8,Zr  1,O   7)    -15.4948         0.010000   
    564. D(Zr  2,O   8,Zr  1,Zr  4)    -43.2743         0.010000   
    565. D(Zr  3,O   9,Zr  4,O   7)    -80.5981         0.010000   
    566. D(Zr  0,O   9,Zr  4,O  31)    -28.0141         0.010000   
    567. D(Zr  0,O   9,Zr  4,O  30)    149.2545         0.010000   
    568. D(Zr  0,O   9,Zr  4,O  29)    -69.9917         0.010000   
    569. D(Zr  0,O   9,Zr  4,O  28)   -157.5907         0.010000   
    570. D(Zr  0,O   9,Zr  4,O  10)    115.2240         0.010000   
    571. D(Zr  0,O   9,Zr  4,O   7)     49.9250         0.010000   
    572. D(Zr  0,O   9,Zr  4,Zr  3)    130.5231         0.010000   
    573. D(Zr  4,O   9,Zr  3,O  10)     16.5241         0.010000   
    574. D(Zr  4,O   9,Zr  3,O   6)    124.2740         0.010000   
    575. D(Zr  4,O   9,Zr  3,Zr  0)    140.9326         0.010000   
    576. D(Zr  0,O   9,Zr  3,O  27)    145.5551         0.010000   
    577. D(Zr  0,O   9,Zr  3,O  26)   -153.1100         0.010000   
    578. D(Zr  0,O   9,Zr  3,O  25)     69.1550         0.010000   
    579. D(Zr  0,O   9,Zr  3,O  24)     -7.8465         0.010000   
    580. D(Zr  0,O   9,Zr  3,O  10)   -124.4085         0.010000   
    581. D(Zr  0,O   9,Zr  3,O   6)    -16.6586         0.010000   
    582. D(Zr  0,O   9,Zr  3,Zr  4)   -140.9326         0.010000   
    583. D(Zr  4,O   9,Zr  0,O   6)   -114.8079         0.010000   
    584. D(Zr  0,O   9,Zr  4,Zr  1)     87.0057         0.010000   
    585. D(Zr  4,O   9,Zr  0,Zr  5)    -87.0284         0.010000   
    586. D(Zr  4,O   9,Zr  0,Zr  3)   -130.3027         0.010000   
    587. D(Zr  3,O   9,Zr  0,O  15)   -146.3922         0.010000   
    588. D(Zr  3,O   9,Zr  0,O  14)    158.0082         0.010000   
    589. D(Zr  3,O   9,Zr  0,O  13)    -67.1403         0.010000   
    590. D(Zr  3,O   9,Zr  0,O  12)    -15.1077         0.010000   
    591. D(Zr  3,O   9,Zr  0,O  11)     80.5030         0.010000   
    592. D(Zr  3,O   9,Zr  4,Zr  1)    -43.5174         0.010000   
    593. D(Zr  3,O   9,Zr  0,O   6)     15.4948         0.010000   
    594. D(Zr  3,O   9,Zr  0,Zr  5)     43.2743         0.010000   
    595. D(Zr  3,O  10,Zr  4,O   9)     16.6119         0.010000   
    596. D(Zr  3,O  10,Zr  4,O   7)    124.3522         0.010000   
    597. D(Zr  3,O  10,Zr  4,Zr  1)    140.9274         0.010000   
    598. D(Zr  1,O  10,Zr  4,O  31)     12.2651         0.010000   
    599. D(Zr  1,O  10,Zr  4,O  30)     73.5131         0.010000   
    600. D(Zr  1,O  10,Zr  4,O  29)   -132.9869         0.010000   
    601. D(Zr  1,O  10,Zr  4,O  28)    149.9264         0.010000   
    602. D(Zr  1,O  10,Zr  4,O   7)    -16.5752         0.010000   
    603. D(Zr  1,O  10,Zr  4,Zr  3)   -140.9274         0.010000   
    604. D(Zr  4,O  10,Zr  3,O   6)    -80.4858         0.010000   
    605. D(Zr  1,O  10,Zr  3,O  27)   -162.6032         0.010000   
    606. D(Zr  1,O  10,Zr  3,O  26)    -83.3165         0.010000   
    607. D(Zr  1,O  10,Zr  3,O  25)    145.2040         0.010000   
    608. D(Zr  1,O  10,Zr  3,O  24)    -27.6369         0.010000   
    609. D(Zr  1,O  10,Zr  3,O   9)    114.8401         0.010000   
    610. D(Zr  1,O  10,Zr  3,O   6)     49.7998         0.010000   
    611. D(Zr  1,O  10,Zr  3,Zr  4)    130.2856         0.010000   
    612. D(Zr  4,O  10,Zr  3,Zr  0)    -43.2844         0.010000   
    613. D(Zr  1,O  10,Zr  3,Zr  0)     87.0012         0.010000   
    614. D(Zr  4,O  10,Zr  1,O   7)     15.3480         0.010000   
    615. D(Zr  4,O  10,Zr  1,Zr  2)     43.4807         0.010000   
    616. D(Zr  1,O  10,Zr  4,O   9)   -124.3155         0.010000   
    617. D(Zr  3,O  10,Zr  1,O  19)    157.6259         0.010000   
    618. D(Zr  3,O  10,Zr  1,O  18)   -149.3199         0.010000   
    619. D(Zr  3,O  10,Zr  1,O  17)     70.0550         0.010000   
    620. D(Zr  3,O  10,Zr  1,O  16)     28.0902         0.010000   
    621. D(Zr  3,O  10,Zr  1,O   8)    -49.9571         0.010000   
    622. D(Zr  3,O  10,Zr  1,O   7)   -115.1612         0.010000   
    623. D(Zr  3,O  10,Zr  1,Zr  4)   -130.5092         0.010000   
    624. D(Zr  3,O  10,Zr  1,Zr  2)    -87.0285         0.010000   
    625. D(Zr  2,O  11,Zr  0,O  15)    -28.0901         0.010000   
    626. D(Zr  2,O  11,Zr  0,O  14)    -70.0550         0.010000   
    627. D(Zr  2,O  11,Zr  0,O  13)    149.3199         0.010000   
    628. D(Zr  2,O  11,Zr  0,O  12)   -157.6259         0.010000   
    629. D(Zr  2,O  11,Zr  0,O   9)     49.9571         0.010000   
    630. D(Zr  2,O  11,Zr  0,O   6)    115.1612         0.010000   
    631. D(Zr  2,O  11,Zr  0,Zr  5)    130.5092         0.010000   
    632. D(Zr  5,O  11,Zr  0,Zr  3)    -43.4807         0.010000   
    633. D(Zr  2,O  11,Zr  0,Zr  3)     87.0285         0.010000   
    634. D(Zr  2,O  11,Zr  5,O   8)    -16.6119         0.010000   
    635. D(Zr  2,O  11,Zr  5,O   6)   -124.3522         0.010000   
    636. D(Zr  2,O  11,Zr  5,Zr  0)   -140.9274         0.010000   
    637. D(Zr  0,O  11,Zr  5,O  35)   -149.9264         0.010000   
    638. D(Zr  0,O  11,Zr  5,O  34)    132.9869         0.010000   
    639. D(Zr  0,O  11,Zr  5,O  32)    -12.2650         0.010000   
    640. D(Zr  0,O  11,Zr  5,O   8)    124.3155         0.010000   
    641. D(Zr  0,O  11,Zr  5,O   6)     16.5752         0.010000   
    642. D(Zr  0,O  11,Zr  5,Zr  2)    140.9274         0.010000   
    643. D(Zr  5,O  11,Zr  2,O   7)     80.4858         0.010000   
    644. D(Zr  5,O  11,Zr  2,Zr  1)     43.2844         0.010000   
    645. D(Zr  0,O  11,Zr  2,O  23)     27.6369         0.010000   
    646. D(Zr  0,O  11,Zr  2,O  22)   -145.2040         0.010000   
    647. D(Zr  0,O  11,Zr  2,O  21)     83.3165         0.010000   
    648. D(Zr  0,O  11,Zr  5,O  33)    -73.5131         0.010000   
    649. D(Zr  0,O  11,Zr  2,O  20)    162.6032         0.010000   
    650. D(Zr  0,O  11,Zr  2,O   8)   -114.8401         0.010000   
    651. D(Zr  0,O  11,Zr  2,O   7)    -49.7998         0.010000   
    652. D(Zr  0,O  11,Zr  2,Zr  5)   -130.2856         0.010000   
    653. D(Zr  0,O  11,Zr  2,Zr  1)    -87.0012         0.010000   
    654. D(Zr  5,O  11,Zr  0,O   6)    -15.3480         0.010000   
    655. D(C  36,O  12,Zr  0,O  15)   -172.7013         0.010000   
    656. D(C  36,O  12,Zr  0,O  14)   -108.3596         0.010000   
    657. D(C  36,O  12,Zr  0,O  13)    120.0354         0.010000   
    658. D(C  36,O  12,Zr  0,O  11)    -33.4453         0.010000   
    659. D(C  36,O  12,Zr  0,O   9)     65.7435         0.010000   
    660. D(C  36,O  12,Zr  0,O   6)     36.9914         0.010000   
    661. D(C  36,O  12,Zr  0,Zr  5)      3.7378         0.010000   
    662. D(C  36,O  12,Zr  0,Zr  3)     55.5928         0.010000   
    663. D(C  37,O  13,Zr  0,O  15)    109.1104         0.010000   
    664. D(C  37,O  13,Zr  0,O  14)    162.7195         0.010000   
    665. D(C  37,O  13,Zr  0,O  12)   -124.0976         0.010000   
    666. D(C  37,O  13,Zr  0,O  11)    -68.9868         0.010000   
    667. D(C  37,O  13,Zr  0,O   9)     33.7879         0.010000   
    668. D(C  37,O  13,Zr  0,O   6)    -36.7753         0.010000   
    669. D(C  37,O  13,Zr  0,Zr  5)    -56.8057         0.010000   
    670. D(C  37,O  13,Zr  0,Zr  3)     -2.0389         0.010000   
    671. D(C  38,O  14,Zr  0,O  15)   -151.8610         0.010000   
    672. D(C  38,O  14,Zr  0,O  13)    151.2052         0.010000   
    673. D(C  38,O  14,Zr  0,O  12)     82.7071         0.010000   
    674. D(C  38,O  14,Zr  0,O  11)     -2.6270         0.010000   
    675. D(C  38,O  14,Zr  0,O   9)    -94.1038         0.010000   
    676. D(C  38,O  14,Zr  0,O   6)      5.8215         0.010000   
    677. D(C  38,O  14,Zr  0,Zr  5)     10.6341         0.010000   
    678. D(C  38,O  14,Zr  0,Zr  3)    -63.2827         0.010000   
    679. D(C  39,O  15,Zr  0,O  14)     97.1694         0.010000   
    680. D(C  39,O  15,Zr  0,O  13)   -124.5570         0.010000   
    681. D(C  39,O  15,Zr  0,O  12)    169.7400         0.010000   
    682. D(C  39,O  15,Zr  0,O  11)     54.0134         0.010000   
    683. D(C  39,O  15,Zr  0,O   9)    -34.3638         0.010000   
    684. D(C  39,O  15,Zr  0,O   6)    -62.1988         0.010000   
    685. D(C  39,O  15,Zr  0,Zr  5)      1.9297         0.010000   
    686. D(C  39,O  15,Zr  0,Zr  3)    -55.0440         0.010000   
    687. D(C  40,O  16,Zr  1,O  19)   -169.7400         0.010000   
    688. D(C  40,O  16,Zr  1,O  18)    124.5570         0.010000   
    689. D(C  40,O  16,Zr  1,O  17)    -97.1695         0.010000   
    690. D(C  40,O  16,Zr  1,O  10)    -54.0135         0.010000   
    691. D(C  40,O  16,Zr  1,O   8)     34.3638         0.010000   
    692. D(C  40,O  16,Zr  1,O   7)     62.1988         0.010000   
    693. D(C  40,O  16,Zr  1,Zr  4)     -1.9298         0.010000   
    694. D(C  40,O  16,Zr  1,Zr  2)     55.0440         0.010000   
    695. D(C  41,O  17,Zr  1,O  19)    -82.7071         0.010000   
    696. D(C  41,O  17,Zr  1,O  18)   -151.2052         0.010000   
    697. D(C  41,O  17,Zr  1,O  16)    151.8610         0.010000   
    698. D(C  41,O  17,Zr  1,O  10)      2.6270         0.010000   
    699. D(C  41,O  17,Zr  1,O   8)     94.1037         0.010000   
    700. D(C  41,O  17,Zr  1,O   7)     -5.8215         0.010000   
    701. D(C  41,O  17,Zr  1,Zr  4)    -10.6341         0.010000   
    702. D(C  41,O  17,Zr  1,Zr  2)     63.2826         0.010000   
    703. D(C  42,O  18,Zr  1,O  19)    124.0977         0.010000   
    704. D(C  42,O  18,Zr  1,O  17)   -162.7195         0.010000   
    705. D(C  42,O  18,Zr  1,O  16)   -109.1104         0.010000   
    706. D(C  42,O  18,Zr  1,O  10)     68.9868         0.010000   
    707. D(C  42,O  18,Zr  1,O   8)    -33.7879         0.010000   
    708. D(C  42,O  18,Zr  1,O   7)     36.7753         0.010000   
    709. D(C  42,O  18,Zr  1,Zr  4)     56.8057         0.010000   
    710. D(C  42,O  18,Zr  1,Zr  2)      2.0390         0.010000   
    711. D(C  43,O  19,Zr  1,O  18)   -120.0354         0.010000   
    712. D(C  43,O  19,Zr  1,O  17)    108.3596         0.010000   
    713. D(C  43,O  19,Zr  1,O  16)    172.7013         0.010000   
    714. D(C  43,O  19,Zr  1,O  10)     33.4453         0.010000   
    715. D(C  43,O  19,Zr  1,O   8)    -65.7435         0.010000   
    716. D(C  43,O  19,Zr  1,O   7)    -36.9914         0.010000   
    717. D(C  43,O  19,Zr  1,Zr  4)     -3.7379         0.010000   
    718. D(C  43,O  19,Zr  1,Zr  2)    -55.5929         0.010000   
    719. D(C  44,O  20,Zr  2,O  23)    162.7662         0.010000   
    720. D(C  44,O  20,Zr  2,O  22)   -124.0875         0.010000   
    721. D(C  44,O  20,Zr  2,O  21)    109.1037         0.010000   
    722. D(C  44,O  20,Zr  2,O  11)     33.7827         0.010000   
    723. D(C  44,O  20,Zr  2,O   8)    -36.8043         0.010000   
    724. D(C  44,O  20,Zr  2,O   7)    -68.7847         0.010000   
    725. D(C  44,O  20,Zr  2,Zr  5)     -2.0323         0.010000   
    726. D(C  44,O  20,Zr  2,Zr  1)    -56.7754         0.010000   
    727. D(C  38,O  21,Zr  2,O  23)     97.1608         0.010000   
    728. D(C  38,O  21,Zr  2,O  22)    169.6976         0.010000   
    729. D(C  38,O  21,Zr  2,O  20)   -124.5375         0.010000   
    730. D(C  38,O  21,Zr  2,O  11)    -34.3088         0.010000   
    731. D(C  38,O  21,Zr  2,O   8)    -62.2278         0.010000   
    732. D(C  38,O  21,Zr  2,O   7)     53.8752         0.010000   
    733. D(C  38,O  21,Zr  2,Zr  5)    -54.9875         0.010000   
    734. D(C  38,O  21,Zr  2,Zr  1)      1.9430         0.010000   
    735. D(C  42,O  22,Zr  2,O  23)   -108.4484         0.010000   
    736. D(C  42,O  22,Zr  2,O  21)   -172.8009         0.010000   
    737. D(C  42,O  22,Zr  2,O  20)    119.8723         0.010000   
    738. D(C  42,O  22,Zr  2,O  11)     65.4177         0.010000   
    739. D(C  42,O  22,Zr  2,O   8)     36.8791         0.010000   
    740. D(C  42,O  22,Zr  2,O   7)    -33.5184         0.010000   
    741. D(C  42,O  22,Zr  2,Zr  5)     55.3904         0.010000   
    742. D(C  42,O  22,Zr  2,Zr  1)      3.6126         0.010000   
    743. D(C  45,O  23,Zr  2,O  22)     82.6099         0.010000   
    744. D(C  45,O  23,Zr  2,O  21)   -151.9032         0.010000   
    745. D(C  45,O  23,Zr  2,O  20)    151.1104         0.010000   
    746. D(C  45,O  23,Zr  2,O  11)    -94.0784         0.010000   
    747. D(C  45,O  23,Zr  2,O   8)      5.8304         0.010000   
    748. D(C  45,O  23,Zr  2,O   7)     -2.7598         0.010000   
    749. D(C  45,O  23,Zr  2,Zr  5)    -63.2002         0.010000   
    750. D(C  45,O  23,Zr  2,Zr  1)     10.5488         0.010000   
    751. D(C  46,O  24,Zr  3,O  27)   -151.1104         0.010000   
    752. D(C  46,O  24,Zr  3,O  26)    151.9033         0.010000   
    753. D(C  46,O  24,Zr  3,O  25)    -82.6099         0.010000   
    754. D(C  46,O  24,Zr  3,O  10)     94.0784         0.010000   
    755. D(C  46,O  24,Zr  3,O   9)     -5.8303         0.010000   
    756. D(C  46,O  24,Zr  3,O   6)      2.7598         0.010000   
    757. D(C  46,O  24,Zr  3,Zr  4)     63.2003         0.010000   
    758. D(C  46,O  24,Zr  3,Zr  0)    -10.5487         0.010000   
    759. D(C  37,O  25,Zr  3,O  27)   -119.8723         0.010000   
    760. D(C  37,O  25,Zr  3,O  26)    172.8009         0.010000   
    761. D(C  37,O  25,Zr  3,O  24)    108.4484         0.010000   
    762. D(C  37,O  25,Zr  3,O  10)    -65.4176         0.010000   
    763. D(C  37,O  25,Zr  3,O   9)    -36.8791         0.010000   
    764. D(C  37,O  25,Zr  3,O   6)     33.5184         0.010000   
    765. D(C  37,O  25,Zr  3,Zr  4)    -55.3903         0.010000   
    766. D(C  37,O  25,Zr  3,Zr  0)     -3.6126         0.010000   
    767. D(C  41,O  26,Zr  3,O  27)    124.5375         0.010000   
    768. D(C  41,O  26,Zr  3,O  25)   -169.6976         0.010000   
    769. D(C  41,O  26,Zr  3,O  24)    -97.1608         0.010000   
    770. D(C  41,O  26,Zr  3,O  10)     34.3089         0.010000   
    771. D(C  41,O  26,Zr  3,O   9)     62.2279         0.010000   
    772. D(C  41,O  26,Zr  3,O   6)    -53.8752         0.010000   
    773. D(C  41,O  26,Zr  3,Zr  4)     54.9875         0.010000   
    774. D(C  41,O  26,Zr  3,Zr  0)     -1.9429         0.010000   
    775. D(C  47,O  27,Zr  3,O  26)   -109.1036         0.010000   
    776. D(C  47,O  27,Zr  3,O  25)    124.0875         0.010000   
    777. D(C  47,O  27,Zr  3,O  24)   -162.7662         0.010000   
    778. D(C  47,O  27,Zr  3,O  10)    -33.7826         0.010000   
    779. D(C  47,O  27,Zr  3,O   9)     36.8043         0.010000   
    780. D(C  47,O  27,Zr  3,O   6)     68.7847         0.010000   
    781. D(C  47,O  27,Zr  3,Zr  4)      2.0323         0.010000   
    782. D(C  47,O  27,Zr  3,Zr  0)     56.7754         0.010000   
    783. D(C  47,O  28,Zr  4,O  31)   -172.7627         0.010000   
    784. D(C  47,O  28,Zr  4,O  30)    119.9782         0.010000   
    785. D(C  47,O  28,Zr  4,O  29)   -108.4018         0.010000   
    786. D(C  47,O  28,Zr  4,O  10)     36.9864         0.010000   
    787. D(C  47,O  28,Zr  4,O   9)    -33.4670         0.010000   
    788. D(C  47,O  28,Zr  4,O   7)     65.4204         0.010000   
    789. D(C  47,O  28,Zr  4,Zr  3)      3.7219         0.010000   
    790. D(C  47,O  28,Zr  4,Zr  1)     55.5000         0.010000   
    791. D(C  39,O  29,Zr  4,O  31)   -151.9882         0.010000   
    792. D(C  39,O  29,Zr  4,O  30)    151.1452         0.010000   
    793. D(C  39,O  29,Zr  4,O  28)     82.5659         0.010000   
    794. D(C  39,O  29,Zr  4,O  10)      5.7119         0.010000   
    795. D(C  39,O  29,Zr  4,O   9)     -2.7438         0.010000   
    796. D(C  39,O  29,Zr  4,O   7)    -94.1068         0.010000   
    797. D(C  39,O  29,Zr  4,Zr  3)     10.4891         0.010000   
    798. D(C  39,O  29,Zr  4,Zr  1)    -63.4434         0.010000   
    799. D(C  43,O  30,Zr  4,O  31)    109.0069         0.010000   
    800. D(C  43,O  30,Zr  4,O  29)    162.5679         0.010000   
    801. D(C  43,O  30,Zr  4,O  28)   -124.1843         0.010000   
    802. D(C  43,O  30,Zr  4,O  10)    -36.8870         0.010000   
    803. D(C  43,O  30,Zr  4,O   9)    -68.9872         0.010000   
    804. D(C  43,O  30,Zr  4,O   7)     33.6891         0.010000   
    805. D(C  43,O  30,Zr  4,Zr  3)    -56.8576         0.010000   
    806. D(C  43,O  30,Zr  4,Zr  1)     -2.1031         0.010000   
    807. D(C  45,O  31,Zr  4,O  30)   -124.6251         0.010000   
    808. D(C  45,O  31,Zr  4,O  29)     97.0388         0.010000   
    809. D(C  45,O  31,Zr  4,O  28)    169.6336         0.010000   
    810. D(C  45,O  31,Zr  4,O  10)    -62.3786         0.010000   
    811. D(C  45,O  31,Zr  4,O   9)     53.8669         0.010000   
    812. D(C  45,O  31,Zr  4,O   7)    -34.3271         0.010000   
    813. D(C  45,O  31,Zr  4,Zr  3)      1.6534         0.010000   
    814. D(C  45,O  31,Zr  4,Zr  1)    -55.0863         0.010000   
    815. D(C  46,O  32,Zr  5,O  35)   -169.6335         0.010000   
    816. D(C  46,O  32,Zr  5,O  34)    -97.0388         0.010000   
    817. D(C  46,O  32,Zr  5,O  33)    124.6251         0.010000   
    818. D(C  46,O  32,Zr  5,O  11)     62.3786         0.010000   
    819. D(C  46,O  32,Zr  5,O   8)    -53.8669         0.010000   
    820. D(C  46,O  32,Zr  5,O   6)     34.3271         0.010000   
    821. D(C  46,O  32,Zr  5,Zr  2)     -1.6534         0.010000   
    822. D(C  46,O  32,Zr  5,Zr  0)     55.0863         0.010000   
    823. D(C  36,O  33,Zr  5,O  35)    124.1843         0.010000   
    824. D(C  36,O  33,Zr  5,O  34)   -162.5679         0.010000   
    825. D(C  36,O  33,Zr  5,O  32)   -109.0069         0.010000   
    826. D(C  36,O  33,Zr  5,O  11)     36.8870         0.010000   
    827. D(C  36,O  33,Zr  5,O   8)     68.9872         0.010000   
    828. D(C  36,O  33,Zr  5,O   6)    -33.6891         0.010000   
    829. D(C  36,O  33,Zr  5,Zr  2)     56.8576         0.010000   
    830. D(C  36,O  33,Zr  5,Zr  0)      2.1031         0.010000   
    831. D(C  40,O  34,Zr  5,O  35)    -82.5659         0.010000   
    832. D(C  40,O  34,Zr  5,O  33)   -151.1453         0.010000   
    833. D(C  40,O  34,Zr  5,O  32)    151.9882         0.010000   
    834. D(C  40,O  34,Zr  5,O  11)     -5.7119         0.010000   
    835. D(C  40,O  34,Zr  5,O   8)      2.7438         0.010000   
    836. D(C  40,O  34,Zr  5,O   6)     94.1067         0.010000   
    837. D(C  40,O  34,Zr  5,Zr  2)    -10.4892         0.010000   
    838. D(C  40,O  34,Zr  5,Zr  0)     63.4433         0.010000   
    839. D(C  44,O  35,Zr  5,O  34)    108.4018         0.010000   
    840. D(C  44,O  35,Zr  5,O  33)   -119.9781         0.010000   
    841. D(C  44,O  35,Zr  5,O  32)    172.7627         0.010000   
    842. D(C  44,O  35,Zr  5,O  11)    -36.9864         0.010000   
    843. D(C  44,O  35,Zr  5,O   8)     33.4670         0.010000   
    844. D(C  44,O  35,Zr  5,O   6)    -65.4204         0.010000   
    845. D(C  44,O  35,Zr  5,Zr  2)     -3.7218         0.010000   
    846. D(C  44,O  35,Zr  5,Zr  0)    -55.5000         0.010000   
    847. D(H  58,C  36,O  33,Zr  5)    179.7426         0.062887   
    848. D(O  12,C  36,O  33,Zr  5)     -0.2494         0.062887   
    849. D(H  58,C  36,O  12,Zr  0)    176.2359         0.060917   
    850. D(O  33,C  36,O  12,Zr  0)     -3.7721         0.060917   
    851. D(H  51,C  37,O  25,Zr  3)   -176.3610         0.060914   
    852. D(O  13,C  37,O  25,Zr  3)      3.6414         0.060914   
    853. D(H  51,C  37,O  13,Zr  0)   -179.7464         0.062896   
    854. D(O  25,C  37,O  13,Zr  0)      0.2512         0.062896   
    855. D(H  50,C  38,O  21,Zr  2)    172.5311         0.064865   
    856. D(O  14,C  38,O  21,Zr  2)     -8.5852         0.064865   
    857. D(H  50,C  38,O  14,Zr  0)   -144.9087         0.057804   
    858. D(O  21,C  38,O  14,Zr  0)     36.2014         0.057804   
    859. D(H  54,C  39,O  29,Zr  4)   -144.7875         0.057781   
    860. D(O  15,C  39,O  29,Zr  4)     36.3222         0.057781   
    861. D(H  54,C  39,O  15,Zr  0)    172.5390         0.064914   
    862. D(O  29,C  39,O  15,Zr  0)     -8.5769         0.064914   
    863. D(H  56,C  40,O  34,Zr  5)    144.7875         0.057781   
    864. D(O  16,C  40,O  34,Zr  5)    -36.3221         0.057781   
    865. D(H  56,C  40,O  16,Zr  1)   -172.5389         0.064914   
    866. D(O  34,C  40,O  16,Zr  1)      8.5770         0.064914   
    867. D(H  48,C  41,O  26,Zr  3)   -172.5311         0.064865   
    868. D(O  17,C  41,O  26,Zr  3)      8.5852         0.064865   
    869. D(H  48,C  41,O  17,Zr  1)    144.9086         0.057804   
    870. D(O  26,C  41,O  17,Zr  1)    -36.2014         0.057804   
    871. D(H  49,C  42,O  22,Zr  2)    176.3610         0.060914   
    872. D(O  18,C  42,O  22,Zr  2)     -3.6414         0.060914   
    873. D(H  49,C  42,O  18,Zr  1)    179.7464         0.062896   
    874. D(O  22,C  42,O  18,Zr  1)     -0.2512         0.062896   
    875. D(H  52,C  43,O  30,Zr  4)   -179.7426         0.062887   
    876. D(O  19,C  43,O  30,Zr  4)      0.2494         0.062887   
    877. D(H  52,C  43,O  19,Zr  1)   -176.2359         0.060917   
    878. D(O  30,C  43,O  19,Zr  1)      3.7721         0.060917   
    879. D(H  59,C  44,O  35,Zr  5)   -176.2109         0.060913   
    880. D(O  20,C  44,O  35,Zr  5)      3.8020         0.060913   
    881. D(H  59,C  44,O  20,Zr  2)   -179.8276         0.062850   
    882. D(O  35,C  44,O  20,Zr  2)      0.1595         0.062850   
    883. D(H  55,C  45,O  31,Zr  4)    172.6361         0.064909   
    884. D(O  23,C  45,O  31,Zr  4)     -8.4779         0.064909   
    885. D(H  55,C  45,O  23,Zr  2)   -144.9039         0.057773   
    886. D(O  31,C  45,O  23,Zr  2)     36.2038         0.057773   
    887. D(O  24,C  46,O  32,Zr  5)      8.4779         0.064909   
    888. D(H  57,C  46,O  24,Zr  3)    144.9038         0.057773   
    889. D(O  32,C  46,O  24,Zr  3)    -36.2039         0.057773   
    890. D(H  57,C  46,O  32,Zr  5)   -172.6361         0.064909   
    891. D(H  53,C  47,O  28,Zr  4)    176.2108         0.060913   
    892. D(O  27,C  47,O  28,Zr  4)     -3.8020         0.060913   
    893. D(H  53,C  47,O  27,Zr  3)    179.8276         0.062850   
    894. D(O  28,C  47,O  27,Zr  3)     -0.1595         0.062850   
    -----------------------------------------------------------------

Number of atoms                         .... 60
Number of degrees of freedom            .... 894


         *************************************************************
         *                GEOMETRY OPTIMIZATION CYCLE   1            *
         *************************************************************
---------------------------------
CARTESIAN COORDINATES (ANGSTROEM)
---------------------------------
  Zr    -0.173596    2.058785    1.469921
  Zr     0.173596   -2.058785   -1.469921
  Zr     1.726886   -1.127536    1.477942
  Zr    -1.726886    1.127536   -1.477942
  Zr     1.730081    1.028837   -1.543420
  Zr    -1.730081   -1.028837    1.543420
  O     -1.747317    0.780102    0.565545
  O      1.747317   -0.780102   -0.565545
  O     -0.135724   -1.914093    0.558551
  O      0.135724    1.914093   -0.558551
  O     -0.141999   -0.077916   -1.992478
  O      0.142000    0.077916    1.992478
  O     -1.478386    2.100602    3.257151
  O     -1.649811    3.663548    1.026161
  O      1.533719    2.090619    2.897659
  O      1.201118    3.786530    0.965454
  O     -1.201118   -3.786530   -0.965454
  O     -1.533719   -2.090619   -2.897659
  O      1.649810   -3.663548   -1.026161
  O      1.478386   -2.100602   -3.257151
  O      1.111398   -2.473727    3.139401
  O      2.447574    0.046228    3.275662
  O      2.610319   -3.083919    0.940276
  O      3.734375   -0.269910    1.046600
  O     -3.734375    0.269910   -1.046600
[...]

---------------
SCF CONVERGENCE
---------------

  Last Energy change         ...    2.1314e-07  Tolerance :   1.0000e-08
  Last MAX-Density change    ...    4.5613e-05  Tolerance :   1.0000e-07
  Last RMS-Density change    ...    3.1951e-06  Tolerance :   5.0000e-09
  Last DIIS Error            ...    9.4577e-05  Tolerance :   5.0000e-07
  Last Orbital Gradient      ...    1.8667e-06  Tolerance :   1.0000e-05
  Last Orbital Rotation      ...    7.8070e-06  Tolerance :   1.0000e-05


----------------
ORBITAL ENERGIES
----------------

  NO   OCC          E(Eh)            E(eV) 
   0   2.0000     -18.773752      -510.8598 
   1   2.0000     -18.773751      -510.8597 
   2   2.0000     -18.773720      -510.8589 
   3   2.0000     -18.773719      -510.8589 
   4   2.0000     -18.773677      -510.8577 
   5   2.0000     -18.773677      -510.8577 
   6   2.0000     -18.772929      -510.8374 
   7   2.0000     -18.772928      -510.8373 
   8   2.0000     -18.772927      -510.8373 
   9   2.0000     -18.772925      -510.8373 
  10   2.0000     -18.772905      -510.8367 
  11   2.0000     -18.772903      -510.8367 
  12   2.0000     -18.767053      -510.6775 
  13   2.0000     -18.767053      -510.6775 
  14   2.0000     -18.767035      -510.6770 
  15   2.0000     -18.767034      -510.6770 
  16   2.0000     -18.767022      -510.6766 
  17   2.0000     -18.767021      -510.6766 
  18   2.0000     -18.766887      -510.6730 
  19   2.0000     -18.766887      -510.6730 
  20   2.0000     -18.766877      -510.6727 
  21   2.0000     -18.766877      -510.6727 
  22   2.0000     -18.766871      -510.6725 
  23   2.0000     -18.766871      -510.6725 
  24   2.0000     -18.732494      -509.7371 
  25   2.0000     -18.732492      -509.7370 
  26   2.0000     -18.732481      -509.7367 
  27   2.0000     -18.732477      -509.7366 
  28   2.0000     -18.732428      -509.7353 
  29   2.0000     -18.732425      -509.7352 
  30   2.0000     -10.021214      -272.6911 
  31   2.0000     -10.021213      -272.6911 
  32   2.0000     -10.021200      -272.6907 
  33   2.0000     -10.021200      -272.6907 
  34   2.0000     -10.021167      -272.6898 
  35   2.0000     -10.021166      -272.6898 
  36   2.0000     -10.014246      -272.5015 
  37   2.0000     -10.014243      -272.5014 
  38   2.0000     -10.014242      -272.5014 
  39   2.0000     -10.014242      -272.5014 
  40   2.0000     -10.014237      -272.5012 
  41   2.0000     -10.014237      -272.5012 
  42   2.0000      -2.033220       -55.3267 
  43   2.0000      -2.032688       -55.3123 
  44   2.0000      -2.032646       -55.3111 
  45   2.0000      -2.032271       -55.3009 
  46   2.0000      -2.032219       -55.2995 
  47   2.0000      -2.032170       -55.2982 
  48   2.0000      -1.222209       -33.2580 
  49   2.0000      -1.218596       -33.1597 
  50   2.0000      -1.218585       -33.1594 
  51   2.0000      -1.215402       -33.0728 
  52   2.0000      -1.215348       -33.0713 
  53   2.0000      -1.215328       -33.0708 
  54   2.0000      -1.210843       -32.9487 
  55   2.0000      -1.209301       -32.9067 
  56   2.0000      -1.209256       -32.9055 
  57   2.0000      -1.209140       -32.9024 
  58   2.0000      -1.209100       -32.9013 
  59   2.0000      -1.207961       -32.8703 
  60   2.0000      -1.205472       -32.8026 
  61   2.0000      -1.205464       -32.8023 
  62   2.0000      -1.204193       -32.7678 
  63   2.0000      -1.203790       -32.7568 
  64   2.0000      -1.203761       -32.7560 
  65   2.0000      -1.203695       -32.7542 
  66   2.0000      -1.008309       -27.4375 
  67   2.0000      -1.006483       -27.3878 
  68   2.0000      -1.006430       -27.3864 
  69   2.0000      -1.006066       -27.3765 
  70   2.0000      -1.006016       -27.3751 
  71   2.0000      -1.005156       -27.3517 
  72   2.0000      -1.000174       -27.2161 
  73   2.0000      -0.999628       -27.2013 
  74   2.0000      -0.997690       -27.1485 
  75   2.0000      -0.997676       -27.1481 
  76   2.0000      -0.997448       -27.1419 
  77   2.0000      -0.997433       -27.1415 
  78   2.0000      -0.927832       -25.2476 
  79   2.0000      -0.927353       -25.2346 
  80   2.0000      -0.927309       -25.2334 
  81   2.0000      -0.926143       -25.2016 
  82   2.0000      -0.926104       -25.2006 
  83   2.0000      -0.924823       -25.1657 
  84   2.0000      -0.920936       -25.0599 
  85   2.0000      -0.920926       -25.0597 
  86   2.0000      -0.920144       -25.0384 
  87   2.0000      -0.920134       -25.0381 
  88   2.0000      -0.917359       -24.9626 
  89   2.0000      -0.917246       -24.9595 
  90   2.0000      -0.834833       -22.7170 
  91   2.0000      -0.826471       -22.4894 
  92   2.0000      -0.826410       -22.4878 
  93   2.0000      -0.818631       -22.2761 
  94   2.0000      -0.818562       -22.2742 
  95   2.0000      -0.817020       -22.2322 
  96   2.0000      -0.565656       -15.3923 
  97   2.0000      -0.563790       -15.3415 
  98   2.0000      -0.563736       -15.3400 
  99   2.0000      -0.561311       -15.2740 
 100   2.0000      -0.559959       -15.2373 
 101   2.0000      -0.559928       -15.2364 
 102   2.0000      -0.557904       -15.1813 
 103   2.0000      -0.556752       -15.1500 
 104   2.0000      -0.551365       -15.0034 
 105   2.0000      -0.551364       -15.0034 
 106   2.0000      -0.550579       -14.9820 
 107   2.0000      -0.550576       -14.9819 
 108   2.0000      -0.470436       -12.8012 
 109   2.0000      -0.470398       -12.8002 
 110   2.0000      -0.469761       -12.7828 
 111   2.0000      -0.467924       -12.7329 
 112   2.0000      -0.467907       -12.7324 
 113   2.0000      -0.467651       -12.7254 
 114   2.0000      -0.466065       -12.6823 
 115   2.0000      -0.466050       -12.6819 
 116   2.0000      -0.462144       -12.5756 
 117   2.0000      -0.461188       -12.5496 
 118   2.0000      -0.461180       -12.5493 
 119   2.0000      -0.459560       -12.5053 
 120   2.0000      -0.457984       -12.4624 
 121   2.0000      -0.457307       -12.4439 
 122   2.0000      -0.457291       -12.4435 
 123   2.0000      -0.455445       -12.3933 
 124   2.0000      -0.455430       -12.3929 
 125   2.0000      -0.454528       -12.3683 
 126   2.0000      -0.444215       -12.0877 
 127   2.0000      -0.444198       -12.0872 
 128   2.0000      -0.442958       -12.0535 
 129   2.0000      -0.442933       -12.0528 
 130   2.0000      -0.440482       -11.9861 
 131   2.0000      -0.440284       -11.9807 
 132   2.0000      -0.422880       -11.5072 
 133   2.0000      -0.418048       -11.3757 
 134   2.0000      -0.417994       -11.3742 
 135   2.0000      -0.416915       -11.3448 
 136   2.0000      -0.407090       -11.0775 
 137   2.0000      -0.407060       -11.0767 
 138   2.0000      -0.405558       -11.0358 
 139   2.0000      -0.400587       -10.9005 
 140   2.0000      -0.400567       -10.9000 
 141   2.0000      -0.400330       -10.8935 
 142   2.0000      -0.397964       -10.8291 
 143   2.0000      -0.397931       -10.8283 
 144   2.0000      -0.363354        -9.8874 
 145   2.0000      -0.363180        -9.8826 
 146   2.0000      -0.360067        -9.7979 
 147   2.0000      -0.360049        -9.7974 
 148   2.0000      -0.352646        -9.5960 
 149   2.0000      -0.352618        -9.5952 
 150   2.0000      -0.352556        -9.5935 
 151   2.0000      -0.329784        -8.9739 
 152   2.0000      -0.329719        -8.9721 
 153   2.0000      -0.326000        -8.8709 
 154   2.0000      -0.325612        -8.8603 
 155   2.0000      -0.325519        -8.8578 
 156   2.0000      -0.318322        -8.6620 
 157   2.0000      -0.318269        -8.6605 
 158   2.0000      -0.310795        -8.4572 
 159   2.0000      -0.304693        -8.2911 
 160   2.0000      -0.304645        -8.2898 
 161   2.0000      -0.303471        -8.2579 
 162   2.0000      -0.299690        -8.1550 
 163   2.0000      -0.296440        -8.0665 
 164   2.0000      -0.296409        -8.0657 
 165   2.0000      -0.295069        -8.0292 
 166   2.0000      -0.292327        -7.9546 
 167   2.0000      -0.292311        -7.9542 
 168   2.0000      -0.287929        -7.8349 
 169   2.0000      -0.287908        -7.8344 
 170   2.0000      -0.287531        -7.8241 
 171   2.0000      -0.286318        -7.7911 
 172   2.0000      -0.282991        -7.7006 
 173   2.0000      -0.281651        -7.6641 
 174   2.0000      -0.281641        -7.6638 
 175   2.0000      -0.280374        -7.6294 
 176   2.0000      -0.279077        -7.5941 
 177   2.0000      -0.279049        -7.5933 
 178   2.0000      -0.278541        -7.5795 
 179   2.0000      -0.278521        -7.5789 
 180   2.0000      -0.276569        -7.5258 
 181   2.0000      -0.272950        -7.4273 
 182   2.0000      -0.272121        -7.4048 
 183   2.0000      -0.272110        -7.4045 
 184   2.0000      -0.269352        -7.3294 
 185   2.0000      -0.268927        -7.3179 
 186   2.0000      -0.268925        -7.3178 
 187   2.0000      -0.268470        -7.3054 
 188   2.0000      -0.268455        -7.3050 
 189   2.0000      -0.266868        -7.2619 
 190   2.0000      -0.265900        -7.2355 
 191   2.0000      -0.261962        -7.1284 
 192   2.0000      -0.261951        -7.1280 
 193   2.0000      -0.256400        -6.9770 
 194   2.0000      -0.256392        -6.9768 
 195   2.0000      -0.232794        -6.3346 
 196   2.0000      -0.232710        -6.3324 
 197   2.0000      -0.228022        -6.2048 
 198   0.0000      -0.111502        -3.0341 
 199   0.0000      -0.109592        -2.9821 
 200   0.0000      -0.081208        -2.2098 
 201   0.0000      -0.081185        -2.2092 
 202   0.0000      -0.076930        -2.0934 
 203   0.0000      -0.076872        -2.0918 
 204   0.0000      -0.073583        -2.0023 
 205   0.0000      -0.073496        -1.9999 
 206   0.0000      -0.064950        -1.7674 
 207   0.0000      -0.061917        -1.6848 
 208   0.0000      -0.061911        -1.6847 
*Only the first 10 virtual orbitals were printed.
-------
TIMINGS
-------

Total SCF time: 0 days 0 hours 0 min 31 sec 

Total time                  ....      31.640 sec
Sum of individual times     ....      27.597 sec  ( 87.2%)

SCF preparation             ....       2.123 sec  (  6.7%)
Fock matrix formation       ....      17.078 sec  ( 54.0%)
  Startup                   ....       0.479 sec  (  2.8% of F)
  Split-RI-J                ....       8.340 sec  ( 48.8% of F)
  XC integration            ....       8.641 sec  ( 50.6% of F)
    XC Preparation          ....       0.000 sec  (  0.0% of XC)
    Basis function eval.    ....       1.563 sec  ( 18.1% of XC)
    Density eval.           ....       3.784 sec  ( 43.8% of XC)
    XC-Functional eval.     ....       0.064 sec  (  0.7% of XC)
    XC-Potential eval.      ....       1.863 sec  ( 21.6% of XC)
Diagonalization             ....       0.000 sec  (  0.0%)
Density matrix formation    ....       1.365 sec  (  4.3%)
Total Energy calculation    ....       0.455 sec  (  1.4%)
Population analysis         ....       0.000 sec  (  0.0%)
Orbital Transformation      ....       0.963 sec  (  3.0%)
Orbital Orthonormalization  ....       0.000 sec  (  0.0%)
DIIS solution               ....       1.048 sec  (  3.3%)
SOSCF solution              ....       4.564 sec  ( 14.4%)
Finished LeanSCF after  32.0 sec

Maximum memory used throughout the entire LEANSCF-calculation: 217.9 MB


           ************************************************************
           *        Program running with 64 parallel MPI-processes    *
           *              working on a common directory               *
           ************************************************************

------------------------------------------------------------------------------
                         ORCA PROPERTY INTEGRAL CALCULATIONS
------------------------------------------------------------------------------

GBWName                                   ... run.gbw
Number of atoms                           ...     60
Number of basis functions                 ...   1614
Max core memory                           ...   4096 MB

Dipole integrals                          ... YES
Quadrupole integrals                      ...  NO
Linear momentum integrals                 ...  NO
Angular momentum integrals                ...  NO
Higher moments length integrals           ...  NO
Higher moments velocity integrals         ...  NO
Kinetic energy integrals                  ...  NO
GIAO right hand sides                     ...  NO
GIAO dipole derivative integrals          ...  NO
SOC integrals                             ...  NO
EPR diamagnetic integrals (GIAO)          ...  NO
EPR gauge integrals                       ...  NO
Field gradient integrals                  ...  NO (   0 nuclei)
Spin-dipole/Fermi contact integrals       ...  NO (   0 nuclei)
Contact density integrals                 ...  NO (   0 nuclei)
Nucleus-orbit integrals                   ...  NO (   0 nuclei)
Geometric perturbations                   ... YES (  60 nuclei)

Choice of electric origin   ... Center of mass
Position of electric origin ... (  0.0000, -0.0000, -0.0000) 
Choice of magnetic origin   ... GIAO
Position of magnetic origin ... (  0.0000,  0.0000,  0.0000) 

Calculating integrals                     ... Electric Dipole (Length)     done (  0.3 sec)
Calculating integrals                     ... Geometrical perturbation right hand sides

-----------------------
GEOMETRIC PERTURBATIONS (60 nuclei)
-----------------------

MaxCore                            ...   4096 MB
Number of batches                  ...      3

BATCH   0: Atoms    0 -   21 ( 66 perturbations)
   => H(core) and overlap derivative integrals     ... done (     4.4 sec)
   => Making and storing internal U-coefficients   ... done (     0.6 sec)
   => RI-J derivative integrals                    ... done (    34.5 sec)
   => RI-J response operators                      ... done (    10.4 sec)
   => ECP derivative integrals                     ... done (   525.2 sec)
   => XC derivative integrals                      ... done (   139.5 sec)
   => XC response operators                        ... done (    53.5 sec)
   => Completing and storing right hand sides      ... done (     0.3 sec)
BATCH   1: Atoms   22 -   43 ( 66 perturbations)
   => H(core) and overlap derivative integrals     ... done (     4.3 sec)
   => Making and storing internal U-coefficients   ... done (     0.6 sec)
   => RI-J derivative integrals                    ... done (    34.3 sec)
   => RI-J response operators                      ... done (    10.3 sec)
   => ECP derivative integrals                     ... done (   529.2 sec)
   => XC derivative integrals                      ... done (   100.2 sec)
   => XC response operators                        ... done (    49.2 sec)
   => Completing and storing right hand sides      ... done (     0.3 sec)
BATCH   2: Atoms   44 -   59 ( 48 perturbations)
   => H(core) and overlap derivative integrals     ... done (     3.1 sec)
   => Making and storing internal U-coefficients   ... done (     0.3 sec)
   => RI-J derivative integrals                    ... done (    24.0 sec)
   => RI-J response operators                      ... done (     7.7 sec)
   => ECP derivative integrals                     ... done (   386.2 sec)
   => XC derivative integrals                      ... done (    52.3 sec)
   => XC response operators                        ... done (    33.4 sec)
   => Completing and storing right hand sides      ... done (     0.1 sec)
   => Total time for right hand sides = 2026.3 sec

  geometrical perturbations done (2026.4 sec)

Property integrals calculated in 2026.9 sec

Maximum memory used throughout the entire PROPINT-calculation: 3773.2 MB


-------------------------------------------------------------------------------
                          DFT DISPERSION CORRECTION                            
                                                                               
                              DFTD3 V3.1  Rev 1                                
                          USING Becke-Johnson damping                          
-------------------------------------------------------------------------------
The PBE functional is recognized
Active option DFTDOPT                   ...         4   

molecular C6(AA) [au] = 90067.939283 


            DFT-D V3
 parameters
 s6 scaling factor         :     1.0000 
 a1 scaling factor         :     0.4289 
 s8 scaling factor         :     0.7875 
 a2 scaling factor         :     4.4407 
 ad hoc parameters k1-k3   :    16.0000     1.3333    -4.0000 

 Edisp/kcal,au: -82.511350337781  -0.131490192494 
 E6   /kcal   : -50.865658490 
 E8   /kcal   : -31.645691848 
 % E8         :  38.353137742 

-------------------------   ----------------
Dispersion correction           -0.131490192
-------------------------   ----------------


-------------------------   --------------------
FINAL SINGLE POINT ENERGY     -3004.137361726665
-------------------------   --------------------

                                *** OPTIMIZATION RUN DONE ***



           ************************************************************
           *        Program running with 64 parallel MPI-processes    *
           *              working on a common directory               *
           ************************************************************
------------------------------------------------------------------------------
                            ORCA SCF RESPONSE CALCULATION
------------------------------------------------------------------------------

GBWName                                 ... run.gbw
Number of atoms                         ...     60
Number of basis functions               ...   1614
Max core memory                         ...   4096 MB

Electric field perturbation             ...  NO
Quadrupolar field perturbation          ...  NO
Magnetic field perturbation (no GIAO)   ...  NO
Magnetic field perturbation (with GIAO) ...  NO
Linear momentum (velocity) perturbation ...  NO
Spin-orbit coupling perturbation        ...  NO
Choice of electric origin               ... Center of mass
Position of electric origin             ...     0.000000    -0.000000    -0.000000
Choice of magnetic origin               ... GIAO
Position of magnetic origin             ...     0.000000     0.000000     0.000000
Nuclear geometric perturbations         ... YES ( 180 perturbations)
Nucleus-orbit perturbations             ...  NO (   0 perturbations)
Spin-dipole/Fermi contact perturbations ...  NO (   0 perturbations)

Total number of real perturbations      ...    180
Total number of imaginary perturbations ...      0
Total number of triplet perturbations   ...      0
Total number of SOC perturbations       ...      0

Using XC Grid                  ... (run.grid_cpscf.tmp) 
Recalculating density on grid  ... (run.grho_cpscf0.tmp) done
Calculating the xc-kernel      ... (run.fxc_cpscf0.tmp) done

                                **********************
                                * REAL PERTURBATIONS *
                                **********************



-------------------
SHARK CP-SCF DRIVER
-------------------

Dimension of the orbital basis          ...   1614
Dimension of the CPSCF-problem          ... 280368
Number of operators                     ...      1
Max. number of iterations               ...    128
Convergence Tolerance                   ... 1.0e-04
Number of perturbations                 ...    180
Perturbation type                       ... REAL

----------------------------
POPLE LINEAR EQUATION SOLVER
----------------------------

  ITERATION   0: 
ORCA finished by error termination in SCF RESPONSE
Calling Command: mpirun -np 64  /home/mehlhorn/programs/orca6/orca_scfresp_mpi run.respinp.tmp run 1 run 
[file orca_tools/qcmsg.cpp, line 394]: 
  .... aborting the run

