
                                 *****************
                                 * O   R   C   A *
                                 *****************

                                            #,                                       
                                            ###                                      
                                            ####                                     
                                            #####                                    
                                            ######                                   
                                           ########,                                 
                                     ,,################,,,,,                         
                               ,,#################################,,                 
                          ,,##########################################,,             
                       ,#########################################, ''#####,          
                    ,#############################################,,   '####,        
                  ,##################################################,,,,####,       
                ,###########''''           ''''###############################       
              ,#####''   ,,,,##########,,,,          '''####'''          '####       
            ,##' ,,,,###########################,,,                        '##       
           ' ,,###''''                  '''############,,,                           
         ,,##''                                '''############,,,,        ,,,,,,###''
      ,#''                                            '''#######################'''  
     '                                                          ''''####''''         
             ,#######,   #######,   ,#######,      ##                                
            ,#'     '#,  ##    ##  ,#'     '#,    #''#        ,####,    ,#,          
            ##       ##  ##   ,#'  ##            #'  '#       #'       ,# #          
            ##       ##  #######   ##           ,######,      #####,      #          
            '#,     ,#'  ##    ##  '#,     ,#' ,#      #,     #,   #      #          
             '#######'   ##     ##  '#######'  #'      '#     '####' #    #          



                #########################################################
                #                        -***-                          #
                #          Department of theory and spectroscopy        #
                #                                                       #
                #                      Frank Neese                      #
                #                                                       #
                #     Directorship, Architecture, Infrastructure        #
                #                    SHARK, DRIVERS                     #
                #        Core code/Algorithms in most modules           #
                #                                                       #
                #        Max Planck Institute fuer Kohlenforschung      #
                #                Kaiser Wilhelm Platz 1                 #
                #                 D-45470 Muelheim/Ruhr                 #
                #                      Germany                          #
                #                                                       #
                #                  All rights reserved                  #
                #                        -***-                          #
                #########################################################


                         Program Version 6.1.0  -  RELEASE   -
                                (GIT: $679e74b$)
                          ($2025-06-10 18:02:51 +0200$)


 With contributions from (in alphabetic order):
[Max-Planck-Institut fuer Kohlenforschung]                               
  Daniel Aravena         : Magnetic Suceptibility                        
  Michael Atanasov       : Ab Initio Ligand Field Theory (pilot matlab implementation)
  Alexander A. Auer      : GIAO ZORA, VPT2 properties, NMR spectrum      
  Ute Becker             : All parallelization in ORCA, NUMFREQ, NUMCALC 
  Giovanni Bistoni       : ED, misc. LED, open-shell LED, HFLD           
  Dmytro Bykov           : pre 5.0 version of the SCF Hessian            
  Marcos Casanova-Páez   : Triplet and SCS-CIS(D). UHF-(DLPNO)-IP/EA/STEOM-CCSD. UHF-CVS-IP/STEOM-CCSD   
  Vijay G. Chilkuri      : MRCI spin determinant printing, contributions to CSF-ICE 
  Pauline Colinet        : FMM embedding                                 
  Dipayan Datta          : RHF DLPNO-CCSD density                        
  Achintya Kumar Dutta   : EOM-CC, STEOM-CC                              
  Nicolas Foglia         : Exact transition moments, OPA infrastructure, MCD improvements    
  Dmitry Ganyushin       : Spin-Orbit,Spin-Spin,Magnetic field MRCI      
  Miquel Garcia-Rates    : C-PCM and meta-GGA Hessian, CCSD/C-PCM, Gaussian charge scheme 
  Tiago L. C. Gouveia    : GS-ROHF, GS-ROCIS                             
  Yang Guo               : DLPNO-NEVPT2, F12-NEVPT2, CIM, IAO-localization        
  Andreas Hansen         : Spin unrestricted coupled pair/coupled cluster methods 
  Ingolf Harden          : AUTO-CI MPn and infrastructure                
  Benjamin Helmich-Paris : MC-RPA, TRAH-(SCF,CASSCF), AVAS, COSX integrals, SCF dyn. polar., MC-PDFT, srDFT 
  Lee Huntington         : MR-EOM, pCC                                   
  Robert Izsak           : Overlap fitted RIJCOSX, COSX-SCS-MP3, EOM     
  Riya Kayal             : Wick's Theorem for AUTO-CI, AUTO-CI UHF-CCSDT 
  Emily Kempfer          : AUTO-CI RHF CISDT and CCSDT, approximate NEVPT4
  Christian Kollmar      : KDIIS, OOCD, Brueckner-CCSD(T), CCSD density, CASPT2, CASPT2-K, improved NEVPT2 
  Axel Koslowski         : Symmetry handling                             
  Simone Kossmann        : meta-GGA functionals, TD-DFT gradient, OOMP2, (MP2 Hessian; deprecated post 5.0) 
  Lucas Lang             : DCDCAS, Hyperfine gauge corrections, ICE-SOC+SSC
  Marvin Lechner         : AUTO-CI (C++ implementation), FIC-MRCC        
  Spencer Leger          : CASSCF response                               
  Dagmar Lenk            : GEPOL surface, SMD, ORCA-2-JSON               
  Dimitrios Liakos       : Extrapolation schemes; Compound Job, Property file
  Dimitrios Manganas     : Further ROCIS development; embedding schemes. LFT, Crystal Embedding 
  Dimitrios Pantazis     : SARC Basis sets                               
  Anastasios Papadopoulos: AUTO-CI, single reference methods and gradients 
  Taras Petrenko         : pre 6.0 DFT Hessian and TD-DFT gradient,  ECA, NRVS 
  Petra Pikulova         : Analytic Raman intensities                    
  Peter Pinski           : DLPNO-MP2, DLPNO-MP2 Gradient                 
  Shashank Vittal Rao    : ES-AILFT, MagRelax                            
  Christoph Reimann      : Effective Core Potentials                     
  Marius Retegan         : Local ZFS, SOC                                
  Christoph Riplinger    : Optimizer, TS searches, QM/MM, DLPNO-CCSD(T), (RO)-DLPNO pert. Triples 
  Michael Roemelt        : Original ROCIS implementation, recursive CI coupling coefficients
  Masaaki Saitow         : Open-shell DLPNO-CCSD energy and density      
  Barbara Sandhoefer     : DKH picture change effects                    
  Yorick L. A. Schmerwitz: GMF and freeze-and-release deltaSCF, NEB S-IDPP initial path                    
  Kantharuban Sivalingam : CASSCF convergence/infrastructure, NEVPT2, NEVPT3, NEVPT4(SD), FIC-MRCI and CEPA variants
  Bernardo de Souza      : ESD, SOC TD-DFT                               
  Georgi L. Stoychev     : AutoAux, RI-MP2 NMR, DLPNO-MP2 response, X2C  
  Van Anh Tran           : RI-MP2 g-tensors                              
  Willem Van den Heuvel  : Paramagnetic NMR                              
  Zikuan Wang            : NOTCH, Electric field optimization            
  Frank Wennmohs         : Technical directorship and infrastructure     
  Hang Xu                : AUTO-CI-Response properties                   
                                                                         
[FACCTs GmbH]                                                            
  Markus Bursch, Nicolas Foglia, Miquel Garcia-Rates, Ingolf Harden, Hagen Neugebauer, Anastasios Papadopoulos, 
  Christoph Riplinger, Bernardo de Souza, Georgi L. Stoychev                                                    
                                                                 
  APM, various basis sets, CI-OPT, improved COSX, DLPNO-Multilevel,           
  DOCKER, DRACO, updates on ESD, Fragmentator, GOAT, IRC, LR-CPCM, L-BFGS, MBIS, meta-GGA TD-DFT gradient, ML-optimized integration grids, 
  MM, NACMEs, nearIR, NEB, NEB-TS, NL-DFT gradient (VV10), 2- and 3-layer-ONIOM, interface openCOSMO-RS, QMMM,   
  Crystal-QMMM, RESP, rigid body optimization, SF, symmetry and pop. for TD-DFT, various functionals, SOLVATOR                                   
                                                                         
[Other institutions]                                                     
  V. Asgeirsson          : NEB                                           
  Christoph Bannwarth    : sTDA-DFT, sTD-DFT, PBEh-3c, B97-3c, D3        
  Giovanni Bistoni       : ETS/NOCV, ADLD/ADEX, COVALED                  
  Martin Brehm           : Molecular dynamics                            
  Ronald Cardenas        : ETS/NOCV                                      
  Martina Colucci        : COVALED                                       
  Sebastian Ehlert       : rSCAN, r2SCAN, r2SCAN-3c, D4, dhf basis sets  
  Marvin Friede          : D4 for Fr, Ra, Ac-Lr                          
  Lars Goerigk           : TD-DFT with DH, B97 family of functionals     
  Stefan Grimme          : VdW corrections, initial TS optimization, DFT functionals, gCP, sTDA/sTD-DF 
  Waldemar Hujo          : DFT-NL                                        
  H. Jonsson             : NEB                                           
  Holger Kruse           : gCP                                           
  Marcel Mueller         : wB97X-3c, vDZP basis set                      
  Hagen Neugebauer       : wr2SCAN, Native XTB                           
  Gianluca Regni         : ADLD/ADEX                                     
  Tobias Risthaus        : pre 6.0 range-separated hybrid DFT and stability analysis
  Lukas Wittmann         : regularized MP2, r2SCAN double-hybrids, wr2SCAN        
                                                                         
We gratefully acknowledge several colleagues who have allowed us to      
interface, adapt or use parts of their codes:                            
  Ed Valeev, F. Pavosevic, A. Kumar             : LibInt (2-el integral package), F12 methods 
  Garnet Chan, S. Sharma, J. Yang, R. Olivares  : DMRG                   
  Ulf Ekstrom                                   : XCFun DFT Library      
  Mihaly Kallay                                 : mrcc  (arbitrary order and MRCC methods)
  Frank Weinhold                                : gennbo (NPA and NBO analysis)           
  Simon Mueller                                 : openCOSMO-RS                            
  Christopher J. Cramer and Donald G. Truhlar   : smd solvation model                     
  S Lehtola, MJT Oliveira, MAL Marques          : LibXC Library                           
  Liviu Ungur et al                             : ANISO software                          


 Your calculation uses the libint2 library for the computation of 2-el integrals
 For citations please refer to: http://libint.valeyev.net

 Your ORCA version has been built with support for libXC version: 7.0.0
 For citations please refer to: https://libxc.gitlab.io

 This ORCA versions uses:
   CBLAS   interface :  Fast vector & matrix operations
   LAPACKE interface :  Fast linear algebra routines
   SCALAPACK package :  Parallel linear algebra routines
   Shared memory     :  Shared parallel matrices
   BLAS/LAPACK       :  OpenBLAS 0.3.29  USE64BITINT DYNAMIC_ARCH NO_AFFINITY Zen SINGLE_THREADED
        Core in use  :  Zen
   Copyright (c) 2011-2014, The OpenBLAS Project


  ***********************************
  * Starting time: Thu Aug 14 16:00:58 2025
  * Host name:     gadolinium01
  * Process ID:    854330
  * Working dir.:  /local/scratch/mehlhorn/61916
  ***********************************

================================================================================

----- Orbital basis set information -----
Your calculation utilizes the basis: def2-SVP
   F. Weigend and R. Ahlrichs, Phys. Chem. Chem. Phys. 7, 3297 (2005).

The basis set includes element-specific modifications.

----- AuxJ basis set information -----
Your calculation utilizes the auxiliary basis: def2/J
   H-Rn: F. Weigend, Phys. Chem. Chem. Phys. 8, 1057 (2006).
   Fr-Lr: K. Eichkorn, F. Weigend, O. Treutler, R. Ahlrichs; Theor. Chem. Acc. 97, 119 (1997).

The basis set includes element-specific modifications.

================================================================================
                                        WARNINGS
                       Please study these warnings very carefully!
================================================================================

WARNING: Frozen-Core approximation turned on, but there are no core electrons.
  ===> : Turning off frozen-core approximation


WARNING: ROHF and Conv is not properly working
  ===> : Setting Mode to Direct


WARNING: Found SCFConvIgnored == true
  ===> : Will try to continue after any unconverged SCF -
         no matter how far from convergence the wavefunction might be.

         Please be very careful with your results!


WARNING: TRAH-SCF with ROHF wave function is not implemented yet
  ===> : Turning TRAH off


================================================================================
                                       INPUT FILE
================================================================================
NAME = run_atom40.inp
|  1> # input to generate an atomic fitting density for Zr
|  2> # this file is used internally by ORCA
|  3> #
|  4> # atomic ground state (Mult=3): 1s2 2s2 2p6 3s2 3p6 4s2 3d10 4p6 4d2 5s2 
|  5> #
|  6> ! ROHF def2-SVP def2/J Conv LeanSCF AODIIS SOSCF NoMulliken NoLoewdin NoMayer NoPrintMOs 
|  7> 
|  8> %output print[p_atomdensfit] 2 end
|  9> 
| 10> %scf
| 11>   guess     HCore
| 12>   maxiter    1000
| 13>   maxdisk  500000
| 14>   diismaxeq     8
| 15>   soscfstart 1e-4
| 16>   lshift  0.300000
| 17>   ignoreconv true
| 18> 
| 19>   hftyp        rohf
| 20>   rohf_case    sahf
| 21>   rohf_numop   3
| 22>   rohf_norb[1] 5,1
| 23>   rohf_nel[1]  2,2
| 24> 
| 25> end
| 26> 
| 27> %basis
| 28>   NewECP 40
| 29>     N_core 28
| 30>     lmax f
| 31>     s 4
| 32>       1       8.2000000000    150.2675911000  2
| 33>       2       4.0897278000     18.9762165000  2
| 34>       3       7.5400000000     21.0937760000  2
| 35>       4       3.7700000000      3.0806943000  2
| 36>     p 4
| 37>       1       7.1100000000     99.6221237000  2
| 38>       2       3.5967980000     14.1687333000  2
| 39>       3       7.5400000000     21.0937760000  2
| 40>       4       3.7700000000      3.0806943000  2
| 41>     d 4
| 42>       1       5.3500000000     35.0451235000  2
| 43>       2       2.4918215000      6.1112595000  2
| 44>       3       7.5400000000     21.0937760000  2
| 45>       4       3.7700000000      3.0806943000  2
| 46>     f 2
| 47>       1       7.5400000000    -21.0937760000  2
| 48>       2       3.7700000000     -3.0806943000  2
| 49>   end
| 50>   NewGTO 40
| 51>     s 2 
| 52>      1      11.0000000000     -1.2721918001
| 53>      2       9.5000000000      2.2605685160
| 54>     s 1 
| 55>      1       3.6383667759      1.0000000000
| 56>     s 1 
| 57>      1       0.7682202670      1.0000000000
| 58>     s 1 
| 59>      1       0.3403682404      1.0000000000
| 60>     s 1 
| 61>      1       0.0752612981      1.0000000000
| 62>     s 1 
| 63>      1       0.0301314047      1.0000000000
| 64>     p 4 
| 65>      1       8.6066305543      0.0424669011
| 66>      2       4.4400979958     -0.2226938137
| 67>      3       1.1281026946      0.5167410683
| 68>      4       0.5434607631      0.6022871253
| 69>     p 1 
| 70>      1       0.2502240605      1.0000000000
| 71>     p 1 
| 72>      1       0.0850000000      1.0000000000
| 73>     p 1 
| 74>      1       0.0290000000      1.0000000000
| 75>     d 3 
| 76>      1       4.5567957795     -0.0166279255
| 77>      2       1.2904939797      0.3555819112
| 78>      3       0.5164698722      0.7231156937
| 79>     d 1 
| 80>      1       0.1934979779      1.0000000000
| 81>     d 1 
| 82>      1       0.0673098100      1.0000000000
| 83>   end
| 84>   NewAuxGTO 40
| 85>     S 1
| 86>      1 1310.72 1.0
| 87>     S 1
| 88>      1  655.36 1.0
| 89>     S 1
| 90>      1  327.68 1.0
| 91>     S 1
| 92>      1  163.84 1.0
| 93>     S 1
| 94>      1   81.82 1.0
| 95>     S 1
| 96>      1   40.96 1.0
| 97>     S 1
| 98>      1   20.48 1.0
| 99>     S 1
|100>      1   10.24 1.0
|101>     S 1
|102>      1    5.12 1.0
|103>     S 1
|104>      1    2.56 1.0
|105>     S 1
|106>      1    1.28 1.0
|107>     S 1
|108>      1    0.64 1.0
|109>     S 1
|110>      1    0.32 1.0
|111>     S 1
|112>      1    0.16 1.0
|113>     S 1
|114>      1    0.08 1.0
|115>     S 1
|116>      1    0.04 1.0
|117>     S 1
|118>      1    0.02 1.0
|119>     S 1
|120>      1    0.01 1.0
|121>   end
|122> end
|123> 
|124> * xyz 0 3
|125> 40  0.0 0.0 0.0
|126> *
|127> 
|128> 
|129>                          ****END OF INPUT****
================================================================================

                       ****************************
                       * Single Point Calculation *
                       ****************************

---------------------------------
CARTESIAN COORDINATES (ANGSTROEM)
---------------------------------
  Zr     0.000000    0.000000    0.000000

----------------------------
CARTESIAN COORDINATES (A.U.)
----------------------------
  NO LB      ZA    FRAG     MASS         X           Y           Z
   0 Zr   12.0000*   0    91.220    0.000000    0.000000    0.000000
* core charge reduced due to ECP

--------------------------------
INTERNAL COORDINATES (ANGSTROEM)
--------------------------------
 Zr     0   0   0     0.000000000000     0.00000000     0.00000000

---------------------------
INTERNAL COORDINATES (A.U.)
---------------------------
 Zr     0   0   0     0.000000000000     0.00000000     0.00000000

---------------------
BASIS SET INFORMATION
---------------------
There are 1 groups of distinct atoms

 Group   1 Type Zr  : 7s7p5d contracted to 6s4p3d pattern {211111/4111/311}

Atom   0Zr   basis set group =>   1
---------------------------------
AUXILIARY/J BASIS SET INFORMATION
---------------------------------
There are 1 groups of distinct atoms

 Group   1 Type Zr  : 18s contracted to 18s pattern {111111111111111111}

Atom   0Zr   basis set group =>   1
-------------------------
ECP PARAMETER INFORMATION
-------------------------

 Group 1, Type Zr ECP (replacing 28 core electrons, lmax=3)

Atom   0Zr   ECP group =>   1

------------------------------------------------------------------------------
                             ORCA STARTUP CALCULATIONS
------------------------------------------------------------------------------
------------------------------------------------------------------------------
                   ___                                                        
                  /   \      - P O W E R E D   B Y -                         
                 /     \                                                     
                 |  |  |   _    _      __       _____    __    __             
                 |  |  |  | |  | |    /  \     |  _  \  |  |  /  |          
                  \  \/   | |  | |   /    \    | | | |  |  | /  /          
                 / \  \   | |__| |  /  /\  \   | |_| |  |  |/  /          
                |  |  |   |  __  | /  /__\  \  |    /   |      \           
                |  |  |   | |  | | |   __   |  |    \   |  |\   \          
                \     /   | |  | | |  |  |  |  | |\  \  |  | \   \       
                 \___/    |_|  |_| |__|  |__|  |_| \__\ |__|  \__/        
                                                                              
                      - O R C A' S   B I G   F R I E N D -                    
                                      &                                       
                       - I N T E G R A L  F E E D E R -                       
                                                                              
 v1 FN, 2020, v2 2021, v3 2022-2024                                           
------------------------------------------------------------------------------


----------------------
SHARK INTEGRAL PACKAGE
----------------------

Number of atoms                             ...      1
Number of basis functions                   ...     33
Number of shells                            ...     13
Maximum angular momentum                    ...      2
Integral batch strategy                     ... SHARK/LIBINT Hybrid
RI-J (if used) integral strategy            ... SPLIT-RIJ (Revised 2003 algorithm where possible)
Printlevel                                  ...      1
Contraction scheme used                     ... SEGMENTED contraction
Prescreening option                         ... SCHWARTZ
   Thresh                                   ... 1.000e-10
   Tcut                                     ... 1.000e-11
   Tpresel                                  ... 1.000e-11 
Coulomb Range Separation                    ... NOT USED
Exchange Range Separation                   ... NOT USED
Multipole approximations                    ... NOT USED
Finite Nucleus Model                        ... NOT USED
CABS basis                                  ... NOT available
Auxiliary Coulomb fitting basis             ... AVAILABLE
   # of basis functions in Aux-J            ...     18
   # of shells in Aux-J                     ...     18
   Maximum angular momentum in Aux-J        ...      0
Auxiliary J/K fitting basis                 ... NOT available
Auxiliary Correlation fitting basis         ... NOT available
Auxiliary 'external' fitting basis          ... NOT available

Checking pre-screening integrals            ... done (  0.0 sec) Dimension = 13
   => SHARK Basis and OBASIS are compatible. Storing Pre-screening
Shell pair information
Shell pair cut-off parameter TPreSel        ...   1.0e-11
Total number of shell pairs                 ...        91
Shell pairs after pre-screening             ...        91
Total number of primitive shell pairs       ...       200
Primitive shell pairs kept                  ...       200
          la=0 lb=0:     21 shell pairs
          la=1 lb=0:     24 shell pairs
          la=1 lb=1:     10 shell pairs
          la=2 lb=0:     18 shell pairs
          la=2 lb=1:     12 shell pairs
          la=2 lb=2:      6 shell pairs

Checking whether 4 symmetric matrices of dimension 33 fit in memory
:Max Core in MB      =   4096.00
 MB in use           =      1.27
 MB left             =   4094.73
 MB needed           =      0.02
 Data fit in memory  = YES
Calculating RI/J V-Matrix + Cholesky decomp.... done (  0.0 sec)
Calculating Nuclear repulsion               ... done (  0.0 sec) ENN=      0.000000000000 Eh

Diagonalization of the overlap matrix:
Smallest eigenvalue                        ... 2.006e-02
Time for diagonalization                   ...    0.043 sec
Threshold for overlap eigenvalues          ... 1.000e-07
Number of eigenvalues below threshold      ... 0
Time for construction of square roots      ...    0.000 sec
Total time needed                          ...    0.044 sec

-------------------
DFT GRID GENERATION
-------------------

General Integration Accuracy     IntAcc      ... 4.388
Radial Grid Type                 RadialGrid  ... OptM3 with GC (2021)
Angular Grid (max. ang.)         AngularGrid ... 4 (Lebedev-302)
Angular grid pruning method      GridPruning ... 4 (adaptive)
Weight generation scheme         WeightScheme... mBecke (2022)
Basis function cutoff            BFCut       ... 1.0000e-10
Integration weight cutoff        WCut        ... 1.0000e-14
Partially contracted basis set               ... off
Rotationally invariant grid construction     ... off
Angular grids for H and He will be reduced by one unit

Total number of grid points                  ...    11810
Total number of batches                      ...      185
Average number of points per batch           ...       63
Average number of grid points per atom       ...    11810
Grids setup in   0.6 sec
Initializing property integral containers    ... done (  0.0 sec)

SHARK setup successfully completed in   1.3 seconds

Maximum memory used throughout the entire STARTUP-calculation: 6.4 MB
-------------------------------------------------------------------------------
                                 ORCA GUESS
                   Start orbitals & Density for SCF / CASSCF
-------------------------------------------------------------------------------

------------
SCF SETTINGS
------------
Hamiltonian:
 Ab initio Hamiltonian  Method          .... Hartree-Fock(GTOs)


General Settings:
 Integral files         IntName         .... run_atom40
 Hartree-Fock type      HFTyp           .... ROHF
 Total Charge           Charge          ....    0
 Multiplicity           Mult            ....    3
 Number of Electrons    NEL             ....   12
 Basis Dimension        Dim             ....   33
 Nuclear Repulsion      ENuc            ....      0.0000000000 Eh

Convergence Acceleration:
 AO-DIIS                CNVDIIS         .... on
   Start iteration      DIISMaxIt       ....    12
   Startup error        DIISStart       ....  0.200000
   # of expansion vecs  DIISMaxEq       ....     8
   Bias factor          DIISBfac        ....   1.050
   Max. coefficient     DIISMaxC        ....  10.000
 MO-DIIS                CNVKDIIS        .... off
 Trust-Rad. Augm. Hess. CNVTRAH         .... off
 SOSCF                 CNVSOSCF           .... on
   Start iteration     SOSCFMaxIt         ....   150
   Startup grad/error  SOSCFStart         ....  0.000100
   Hessian update      SOSCFHessUp        .... L-BFGS
   Autom. constraints  SOSCFAutoConstrain .... off
 Level Shifting         CNVShift        .... on
   Level shift para.    LevelShift      ....    0.3000
   Turn off err/grad.   ShiftErr        ....    0.0010
 Zerner damping         CNVZerner       .... off
 Static damping         CNVDamp         .... on
   Fraction old density DampFac         ....    0.7000
   Max. Damping (<1)    DampMax         ....    0.9800
   Min. Damping (>=0)   DampMin         ....    0.0000
   Turn off err/grad.   DampErr         ....    0.1000

SCF Procedure:
 Maximum # iterations   MaxIter         ....  1000
 SCF integral mode      SCFMode         .... Direct
   Integral package                     .... SHARK and LIBINT hybrid scheme
 Reset frequency        DirectResetFreq ....    20
 Integral Threshold     Thresh          ....  1.000e-10 Eh
 Primitive CutOff       TCut            ....  1.000e-11 Eh

Convergence Tolerance:
 Convergence Check Mode ConvCheckMode   .... Total+1el-Energy
 Convergence forced     ConvForced      .... -1
 Energy Change          TolE            ....  1.000e-06 Eh
 1-El. energy change                    ....  1.000e-03 Eh
 Orbital Gradient       TolG            ....  5.000e-05
 Orbital Rotation angle TolX            ....  5.000e-05
 DIIS Error             TolErr          ....  1.000e-06


--------------------
INITIAL GUESS: HCORE
--------------------

Orthogonalizing HCORE                      ... done
Diagonalizing the Hamiltonian (no sym.)    ... done
Back transforming and storing orbitals     ... done
AVERAGE-CONFIGURATION (SAHF) CASE FOUND

-------------------
FINAL ROHF SETTINGS
-------------------
Number of operators             ... 3
  operator   0:   4 orbitals   8 electrons n(mue)= 2.000
  operator   1:   5 orbitals   2 electrons n(mue)= 0.400
  operator   2:   1 orbitals   2 electrons n(mue)= 2.000
Vector coupling coefficients a and b (Zerner convention):
   1.000    1.000    1.000           1.000    1.000    1.000 
   1.000    0.625    1.000           1.000    1.250    1.000 
   1.000    1.000    1.000           1.000    1.000    1.000 


   => ROHF data were saved in the ROHF file

Making the density                         ... done

                      -----------------
                      INTIAL GUESS DONE 
                      -----------------

             **** ENERGY FILE WAS UPDATED (run_atom40.en.tmp) ****
Finished Guess after   0.1 sec
Maximum memory used throughout the entire GUESS-calculation: 3.7 MB

-------------------------------------------------------------------------------------------
                                      ORCA LEAN-SCF
                              memory conserving SCF solver
-------------------------------------------------------------------------------------------

----------------------------------------D-I-I-S--------------------------------------------
Iteration    Energy (Eh)           Delta-E    RMSDP     MaxDP     DIISErr   Damp  Time(sec)
-------------------------------------------------------------------------------------------
               ***  Starting incremental Fock matrix formation  ***
    1    -42.9843827042274782     0.00e+00  1.10e-01  2.02e+00  6.87e-01  0.700   0.3
    2    -43.9682306277946822    -9.84e-01  7.90e-02  1.42e+00  3.96e-01  0.700   0.0
                               ***Turning on AO-DIIS***
    3    -44.5607641995527359    -5.93e-01  5.47e-02  9.91e-01  9.22e-02  0.700   0.0
    4    -44.9177830007173213    -3.57e-01  1.28e-01  2.31e+00  1.15e-01  0.000   0.0
    5    -45.5271495539089344    -6.09e-01  1.33e-03  2.90e-02  2.54e-01  0.700   0.0
    6    -45.5287229217397567    -1.57e-03  8.61e-04  1.54e-02  2.56e-01  0.700   0.0
    7    -45.5398541017888903    -1.11e-02  5.31e-04  9.96e-03  2.57e-01  0.700   0.0
    8    -45.5440389223868323    -4.18e-03  3.85e-04  7.01e-03  2.58e-01  0.700   0.0
    9    -45.5476044907574149    -3.57e-03  5.03e-04  9.29e-03  2.59e-01  0.700   0.0
   10    -45.5537422269152898    -6.14e-03  1.48e-03  3.79e-02  2.60e-01  0.700   0.0
   11    -45.5926526557761562    -3.89e-02  3.18e-04  7.65e-03  2.56e-01  0.700   0.0
   12    -45.6012447697943202    -8.59e-03  8.47e-02  1.41e+00  2.62e-01  0.700   0.0
   13    -45.5372666357362661     6.40e-02  4.66e-02  1.01e+00  4.19e-02  0.700   0.0
   14    -45.7266011143125795    -1.89e-01  1.09e-01  2.34e+00  2.67e-02  0.000   0.0
   15    -46.1784475619814359    -4.52e-01  9.08e-04  1.34e-02  9.03e-02  0.000   0.0
   16    -46.1727294871276825     5.72e-03  2.85e-05  3.25e-04  9.59e-02  0.000   0.0
   17    -46.1730217291236258    -2.92e-04  2.95e-05  3.56e-04  9.56e-02  0.000   0.0
   18    -46.1733370748398713    -3.15e-04  3.27e-05  5.09e-04  9.53e-02  0.000   0.0
   19    -46.1737147887467643    -3.78e-04  3.67e-05  5.49e-04  9.50e-02  0.000   0.0
   20    -46.1741791129440813    -4.64e-04  5.68e-04  1.01e-02  9.46e-02  0.000   0.0
               *** Restarting incremental Fock matrix formation ***
                             ****Resetting DIIS****
   21    -46.1816916243805338    -7.51e-03  2.31e-02  2.08e-01  8.74e-02  0.000   0.0
   22    -46.2107760327825403    -2.91e-02  3.96e-02  9.49e-01  5.59e-02  0.000   0.0
   23    -45.8539706572315566     3.57e-01  3.88e-03  1.01e-01  1.02e-01  0.000   0.0
   24    -45.8852470865319333    -3.13e-02  3.54e-04  9.43e-03  9.60e-02  0.700   0.0
   25    -45.8878564268538440    -2.61e-03  1.53e-03  4.06e-02  9.27e-02  0.000   0.0
   26    -45.8990987540126270    -1.12e-02  4.55e-04  1.21e-02  9.22e-02  0.000   0.0
   27    -45.9023480024592061    -3.25e-03  3.66e-04  9.75e-03  9.12e-02  0.000   0.0
   28    -45.9049392318722980    -2.59e-03  3.22e-04  8.55e-03  9.04e-02  0.000   0.0
   29    -45.9072009471574631    -2.26e-03  3.24e-03  8.17e-02  8.97e-02  0.000   0.0
   30    -45.9293564605416051    -2.22e-02  1.58e-02  3.92e-01  8.20e-02  0.000   0.0
   31    -46.0099920085841418    -8.06e-02  5.01e-03  1.02e-01  2.65e-02  0.000   0.0
   32    -46.0214021440856413    -1.14e-02  4.96e-03  9.85e-02  1.54e-02  0.000   0.0
   33    -46.0289732685663679    -7.57e-03  2.80e-03  6.54e-02  1.35e-02  0.000   0.0
   34    -46.0328376920575977    -3.86e-03  3.50e-03  8.11e-02  1.24e-02  0.000   0.0
   35    -46.0374129617605163    -4.58e-03  8.61e-03  1.82e-01  1.11e-02  0.000   0.0
   36    -46.0463132801303132    -8.90e-03  8.52e-03  1.84e-01  7.61e-03  0.000   0.0
   37    -46.0512094122986753    -4.90e-03  1.93e-03  4.51e-02  3.92e-03  0.000   0.0
   38    -46.0518705187811577    -6.61e-04  1.92e-03  4.51e-02  3.06e-03  0.000   0.0
   39    -46.0524423834959862    -5.72e-04  3.08e-03  7.30e-02  2.20e-03  0.000   0.0
   40    -46.0529741217338753    -5.32e-04  1.50e-03  3.60e-02  8.33e-04  0.000   0.0
               *** Restarting incremental Fock matrix formation ***
                             ****Resetting DIIS****
   41    -46.0530556578843573    -8.15e-05  6.34e-05  1.93e-03  2.49e-04  0.000   0.0
   42    -46.0530567958313384    -1.14e-06  9.36e-05  2.86e-03  2.16e-04  0.000   0.0
   43    -46.0530582302588769    -1.43e-06  1.26e-04  3.84e-03  1.69e-04  0.000   0.0
   44    -46.0530597937883783    -1.56e-06  2.09e-04  6.33e-03  1.29e-04  0.000   0.0
                              *** Initializing SOSCF ***
---------------------------------------S-O-S-C-F--------------------------------------
Iteration    Energy (Eh)           Delta-E    RMSDP     MaxDP     MaxGrad    Time(sec)
--------------------------------------------------------------------------------------
   45    -46.0530614912904213    -1.70e-06  1.24e-04  3.69e-03  9.05e-05     0.0
               *** Restarting incremental Fock matrix formation ***
   46    -46.0530620228609138    -5.32e-07  3.96e-05  8.95e-04  6.41e-05     0.0
   47    -46.0530622272493986    -2.04e-07  1.23e-04  2.75e-03  4.80e-05     0.0
                 **** Energy Check signals convergence ****

               *****************************************************
               *                     SUCCESS                       *
               *           SCF CONVERGED AFTER  47 CYCLES          *
               *****************************************************

             **** ENERGY FILE WAS UPDATED (run_atom40.en.tmp) ****

----------------
TOTAL SCF ENERGY
----------------

Total Energy       :        -46.05306250917341 Eh           -1253.16754 eV

Components:
Nuclear Repulsion  :          0.00000000000000 Eh               0.00000 eV
Electronic Energy  :        -46.05306250917341 Eh           -1253.16754 eV
One Electron Energy:        -74.89835502007369 Eh           -2038.08785 eV
Two Electron Energy:         28.84529251090029 Eh             784.92031 eV

Virial components:
Potential Energy   :        -60.51600839364883 Eh           -1646.72431 eV
Kinetic Energy     :         14.46294588447542 Eh             393.55677 eV
Virial Ratio       :          4.18421038680695

---------------
SCF CONVERGENCE
---------------

  Last Energy change         ...    2.0439e-07  Tolerance :   1.0000e-06
  Last MAX-Density change    ...    2.7547e-03  Tolerance :   1.0000e-05
  Last RMS-Density change    ...    1.2345e-04  Tolerance :   1.0000e-06
  Last DIIS Error            ...    9.0515e-05  Tolerance :   1.0000e-06
  Last Orbital Gradient      ...    4.7964e-05  Tolerance :   5.0000e-05
  Last Orbital Rotation      ...    1.3165e-03  Tolerance :   5.0000e-05


----------------
ORBITAL ENERGIES
----------------

  NO   OCC          E(Eh)            E(eV) 
   0   2.0000      -2.805885       -76.3520 
   1   2.0000      -1.768249       -48.1165 
   2   2.0000      -1.768249       -48.1165 
   3   2.0000      -1.756681       -47.8017 
   4   0.4000      -0.401715       -10.9312 
   5   0.4000      -0.460879       -12.5411 
   6   0.4000      -0.438158       -11.9229 
   7   0.4000      -0.223141        -6.0720 
   8   0.4000      -0.223141        -6.0720 
   9   2.0000      -0.155415        -4.2290 
  10   0.0000      -0.093410        -2.5418 
  11   0.0000      -0.082016        -2.2318 
  12   0.0000      -0.082017        -2.2318 
  13   0.0000       0.090125         2.4524 
  14   0.0000       0.124081         3.3764 
  15   0.0000       0.124082         3.3764 
  16   0.0000       0.142711         3.8834 
  17   0.0000       0.171580         4.6689 
  18   0.0000       0.178768         4.8645 
  19   0.0000       0.183269         4.9870 
  20   0.0000       0.188221         5.1218 
*Only the first 10 virtual orbitals were printed.

Warning: MO coefficients are modified such that the real solid harmonic m components
have the correct order within each shell (0, +1, -1, +2, -2, ...) and all s orbitals
come before all p orbitals etc. (with increasing orbital energy within each block of given angular momentum).

CleanUpVectors: The p-vectors have cracked symmetry
CleanUpVectors: The p-vectors have cracked symmetry
CleanUpVectors: The p-vectors have cracked symmetry
CleanUpVectors: The d-vectors have cracked symmetry at i=5
CleanUpVectors: The d-vectors have cracked symmetry at i=6
CleanUpVectors: The p-vectors have cracked symmetry
CleanUpVectors: The p-vectors have cracked symmetry
CleanUpVectors: The p-vectors have cracked symmetry
CleanUpVectors: The d-vectors have cracked symmetry at i=10
CleanUpVectors: The d-vectors have cracked symmetry at i=11
CleanUpVectors: The d-vectors have cracked symmetry at i=12
CleanUpVectors: The p-vectors have cracked symmetry
CleanUpVectors: The p-vectors have cracked symmetry
CleanUpVectors: The p-vectors have cracked symmetry
CleanUpVectors: The d-vectors have cracked symmetry at i=17
CleanUpVectors: The d-vectors have cracked symmetry at i=18
CleanUpVectors: The d-vectors have cracked symmetry at i=19
CleanUpVectors: The d-vectors have cracked symmetry at i=20
CleanUpVectors: The d-vectors have cracked symmetry at i=21
CleanUpVectors: The d-vectors have cracked symmetry at i=22
CleanUpVectors: The d-vectors have cracked symmetry at i=23
CleanUpVectors: The d-vectors have cracked symmetry at i=24
CleanUpVectors: The d-vectors have cracked symmetry at i=25
CleanUpVectors: The d-vectors have cracked symmetry at i=26
CleanUpVectors: The p-vectors have cracked symmetry
CleanUpVectors: The p-vectors have cracked symmetry
CleanUpVectors: The p-vectors have cracked symmetry
--------------------------
ATOM BASIS FOR ELEMENT Zr
--------------------------
 NewGTO Zr
 S 7
    1         11.000000000000        -0.212499309506
    2          9.500000000000         0.377591844801
    3          3.638366775900        -0.626135575879
    4          0.768220267000         0.901682490513
    5          0.340368240400         0.374931463101
    6          0.075261298100        -0.002379485600
    7          0.030131404700         0.002553392153
 P 19
    1          8.606630554300         0.004267386291
    2          4.440097995800        -0.022377910867
    3          1.128102694600         0.051925939817
    4          0.543460763100         0.060522236260
    5          8.606630554300        -0.033834141956
    6          4.440097995800         0.177424156466
    7          1.128102694600        -0.411696879367
    8          0.543460763100        -0.479852957661
    9          8.606630554300         0.015407461263
   10          4.440097995800        -0.080795777871
   11          1.128102694600         0.187479373036
   12          0.543460763100         0.218516428373
   13          0.250224060500         0.017295625644
   14          0.250224060500        -0.137129055927
   15          0.250224060500         0.062446111978
   16          0.085000000000         0.000201588035
   17          0.085000000000        -0.001598298739
   18          0.085000000000         0.000727836573
   19          0.029000000000         0.000160823101
 S 7
    1         11.000000000000        -0.086068744763
    2          9.500000000000         0.152936290430
    3          3.638366775900        -0.268856868847
    4          0.768220267000         0.586047497679
    5          0.340368240400         0.204340979287
    6          0.075261298100        -1.110540041492
    7          0.030131404700        -0.072336562640
 S 19
    1         11.000000000000        -0.000006004535
    2          9.500000000000         0.000010669510
    3          3.638366775900        -0.000018798560
    4          0.768220267000         0.000048600173
    5          0.340368240400        -0.000007403924
    6          0.075261298100        -0.000053353577
    7          0.030131404700        -0.000004731564
    8          8.606630554300         0.000000108456
    9          4.440097995800        -0.000000408499
   10          1.128102694600         0.000000477787
   11          0.543460763100         0.000000386522
   12          8.606630554300        -0.000000434253
   13          4.440097995800         0.000001635610
   14          1.128102694600        -0.000001913034
   15          0.543460763100        -0.000001547616
   16          8.606630554300        -0.000000983513
   17          4.440097995800         0.000003704395
   18          1.128102694600        -0.000004332715
   19          0.543460763100        -0.000003505101
 S 7
    1         11.000000000000        -0.039273688620
    2          9.500000000000         0.069785753999
    3          3.638366775900        -0.127177732975
    4          0.768220267000         0.208535564687
    5          0.340368240400         0.428376241562
    6          0.075261298100        -2.242534656817
    7          0.030131404700         2.160472629413
 S 7
    1         11.000000000000        -0.290203205164
    2          9.500000000000         0.515664563145
    3          3.638366775900        -0.889820326234
    4          0.768220267000         3.509867187035
    5          0.340368240400        -3.972523307598
    6          0.075261298100         2.117566032685
    7          0.030131404700        -0.936201318482
 S 7
    1         11.000000000000        -2.296734314523
    2          9.500000000000         4.081086893201
    3          3.638366775900        -3.170381638641
    4          0.768220267000         2.031791685836
    5          0.340368240400        -1.337978621306
    6          0.075261298100         0.458993363626
    7          0.030131404700        -0.196849973708
 S 7
    1         11.000000000000        -2.618176558527
    2          9.500000000000         4.652260372273
    3          3.638366775900        -1.536747223121
    4          0.768220267000         0.680128044367
    5          0.340368240400        -0.429781531783
    6          0.075261298100         0.145922438930
    7          0.030131404700        -0.062703803223
 S 19
    1         11.000000000000        -0.007255492128
    2          9.500000000000         0.012892346163
    3          3.638366775900        -0.022875140578
    4          0.768220267000         0.043487009865
    5          0.340368240400         0.039700700613
    6          0.075261298100        -0.105873300660
    7          0.030131404700        -0.046723199352
    8          8.606630554300         0.000000070832
    9          4.440097995800        -0.000000266789
   10          1.128102694600         0.000000312041
   11          0.543460763100         0.000000252436
   12          8.606630554300        -0.000000283622
   13          4.440097995800         0.000001068262
   14          1.128102694600        -0.000001249455
   15          0.543460763100        -0.000001010790
   16          8.606630554300        -0.000000642544
   17          4.440097995800         0.000002420136
   18          1.128102694600        -0.000002830627
   19          0.543460763100        -0.000002289935
 P 19
    1          8.606630554300         0.001737487007
    2          4.440097995800        -0.009111274850
    3          1.128102694600         0.021141898022
    4          0.543460763100         0.024641921775
    5          8.606630554300        -0.013777492687
    6          4.440097995800         0.072248323050
    7          1.128102694600        -0.167645768939
    8          0.543460763100        -0.195399387502
    9          8.606630554300         0.006273998537
   10          4.440097995800        -0.032900461895
   11          1.128102694600         0.076342577931
   12          0.543460763100         0.088981028644
   13          0.250224060500         0.001131287113
   14          0.250224060500        -0.008970599461
   15          0.250224060500         0.004085034133
   16          0.085000000000        -0.094920591216
   17          0.085000000000         0.752677715490
   18          0.085000000000        -0.342754592109
   19          0.029000000000        -0.031259080625
 D 19
    1          4.440097995800         0.000000004074
    2          4.556795779500         0.001920219662
    3          1.290493979700        -0.041063172756
    4          0.516469872200        -0.083506566891
    5          4.556795779500        -0.008628250179
    6          1.290493979700         0.184511873651
    7          0.516469872200         0.375225587435
    8          4.556795779500         0.004053731772
    9          1.290493979700        -0.086687524011
   10          0.516469872200        -0.176288801781
   11          4.556795779500        -0.001473095780
   12          1.290493979700         0.031501597279
   13          0.516469872200         0.064062030862
   14          4.556795779500         0.000187668409
   15          1.290493979700        -0.004013218101
   16          0.516469872200        -0.008161329077
   17          0.193497977900        -0.082135059255
   18          0.193497977900         0.369062901338
   19          0.193497977900        -0.173393443404
 P 19
    1          8.606630554300         0.000951862112
    2          4.440097995800        -0.004991506285
    3          1.128102694600         0.011582343701
    4          0.543460763100         0.013499791133
    5          8.606630554300        -0.003808210060
    6          4.440097995800         0.019970018997
    7          1.128102694600        -0.046338642189
    8          0.543460763100        -0.054009966125
    9          8.606630554300        -0.008626306491
   10          4.440097995800         0.045235819919
   11          1.128102694600        -0.104965672471
   12          0.543460763100        -0.122342652841
   13          0.250224060500         0.022284327148
   14          0.250224060500        -0.089155138957
   15          0.250224060500        -0.201953028248
   16          0.085000000000        -0.153163343004
   17          0.085000000000         0.612775922656
   18          0.085000000000         1.388051823653
   19          0.029000000000         0.142647946048
 D 19
    1         11.000000000000        -0.000026202518
    2          9.500000000000         0.000053910977
    3          3.638366775900        -0.000295730149
    4          0.768220267000        -0.000586551991
    5          0.340368240400         0.034674224853
    6          0.075261298100        -0.525163612602
    7          0.030131404700         1.169617167400
    8          8.606630554300        -0.000000001010
    9          4.440097995800         0.000000007373
   10          1.128102694600        -0.000000033944
   11          8.606630554300        -0.000000002288
   12          4.440097995800         0.000000016707
   13          1.128102694600        -0.000000076912
   14          0.543460763100        -0.000000129156
   15          0.085000000000         0.000003931032
   16          4.556795779500        -0.002045381644
   17          1.290493979700         0.043739714501
   18          0.516469872200         0.088949614695
   19          4.556795779500        -0.000294936870
 D 19
    1         11.000000000000         0.000131374154
    2          9.500000000000        -0.000270298785
    3          3.638366775900         0.001239154642
    4          0.768220267000        -0.020784240726
    5          0.340368240400         0.041934561718
    6          0.075261298100         0.012355069676
    7          0.030131404700        -0.121331507101
    8          4.440097995800         0.000000002752
    9          8.606630554300         0.000000001521
   10          4.440097995800        -0.000000011105
   11          1.128102694600         0.000000051123
   12          8.606630554300         0.000000003450
   13          4.440097995800        -0.000000025190
   14          1.128102694600         0.000000115961
   15          0.543460763100         0.000000194730
   16          0.250224060500        -0.000000873713
   17          4.556795779500        -0.008435023531
   18          1.290493979700         0.180379794704
   19          0.516469872200         0.366822541497
 P 19
    1         11.000000000000         0.000000021374
    2          9.500000000000        -0.000000040868
    3          3.638366775900         0.000000113590
    4          0.768220267000        -0.000000977009
    5          0.340368240400         0.000001668776
    6          0.075261298100        -0.000001883886
    7          8.606630554300         0.005990541591
    8          4.440097995800        -0.031414031130
    9          1.128102694600         0.072893448345
   10          0.543460763100         0.084960898504
   11          8.606630554300        -0.023966959580
   12          4.440097995800         0.125681259839
   13          1.128102694600        -0.291632117640
   14          0.543460763100        -0.339911573811
   15          8.606630554300        -0.054289636265
   16          4.440097995800         0.284691508705
   17          1.128102694600        -0.660601172076
   18          0.543460763100        -0.769963150419
   19          0.250224060500        -0.246169985775
 end
-------------------------------------------
RADIAL EXPECTATION VALUES <R**-3> TO <R**3>
-------------------------------------------
   0 :     0.000008     0.891011     0.897213     1.230671     1.669753     2.494300
   1 :     0.765289     0.743474     0.814503     1.371856     2.098526     3.572070
   2 :     0.765289     0.743474     0.814503     1.371856     2.098526     3.572069
   3 :     0.762666     0.741283     0.812813     1.378808     2.135706     3.754790
   4 :     0.004946     0.169581     0.352329     3.393469    12.948306    55.114251
   5 :     0.342245     0.407735     0.584490     2.030951     4.865734    68.199549
   6 :     0.337815     0.403676     0.580008     2.066147     5.110355    70.400839
   7 :     0.066097     0.108017     0.282203     4.202166    19.921840   105.254654
   8 :     0.066098     0.108018     0.282204     4.202156    19.921770   105.254252
   9 :     0.057864     0.095207     0.260922     4.628913    24.529655   146.451075
  10 :     0.282983     0.350487     0.533800     2.308658     6.546304   112.611763
  11 :     0.279299     0.346377     0.529494     2.342347     6.785666   119.863794
  12 :     0.279299     0.346377     0.529494     2.342349     6.785677   119.864075
  13 :     0.000074     0.055315     0.187445     6.508395    46.645460   358.795368
  14 :     0.023492     0.045336     0.171937     7.140548    56.617342   478.560894
  15 :     0.023492     0.045336     0.171938     7.140545    56.617312   478.560638
  16 :     0.033436     0.058924     0.192965     6.719692    51.989963   436.470710
  17 :     0.045025     0.076601     0.229330     5.157367    28.818436   848.930746
  18 :     0.076841     0.109926     0.261621     4.947889    27.471456   811.914477
  19 :     0.049353     0.081002     0.233521     5.127762    28.619665   837.855375
  20 :     0.083820     0.117075     0.268586     4.895909    27.092504   799.922938
  21 :     0.083820     0.117075     0.268585     4.895910    27.092510   799.923102
  22 :     0.344804     0.356981     0.494506     2.947230    11.652371   284.633683
  23 :     0.372250     0.380904     0.512905     2.879001    11.318781   277.237736
  24 :     0.339693     0.352558     0.490700     2.972303    11.841302   290.900437
  25 :     0.368954     0.377866     0.510247     2.897291    11.458364   281.977080
  26 :     0.368954     0.377866     0.510247     2.897291    11.458360   281.976964
  27 :     0.301232     0.317599     0.467442     3.135736    13.977139    83.574150
  28 :     0.301233     0.317600     0.467443     3.135729    13.977099    83.574003
  29 :     0.302145     0.319012     0.469386     3.122882    13.959452    84.284789
  30 :     0.000185     0.478929     0.573477     2.660868    10.702871    60.454208
  31 :     0.000000     4.100791     1.787455     0.727680     0.957228     3.154769
  32 :     0.000000    41.190602     5.102421     0.277866     0.152342     0.337793
Making the total density                ... o.k.
Making exponents                        ... done
Making rho(0)                           ... done (         0.000303387)
Integral calculation                    ... Solving the equation system             ... done
atomic density will be written to file run_atom40.adf

-------
TIMINGS
-------

Total SCF time: 0 days 0 hours 0 min 1 sec 

Total time                  ....       1.303 sec
Sum of individual times     ....       1.232 sec  ( 94.5%)

SCF preparation             ....       0.054 sec  (  4.1%)
Fock matrix formation       ....       1.035 sec  ( 79.4%)
  Startup                   ....       0.004 sec  (  0.3% of F)
  Coulomb+Exchange Fock     ....       1.018 sec  ( 98.3% of F)
Diagonalization             ....       0.000 sec  (  0.0%)
Density matrix formation    ....       0.034 sec  (  2.6%)
Total Energy calculation    ....       0.004 sec  (  0.3%)
Population analysis         ....       0.000 sec  (  0.0%)
Orbital Transformation      ....       0.002 sec  (  0.1%)
Orbital Orthonormalization  ....       0.000 sec  (  0.0%)
DIIS solution               ....       0.099 sec  (  7.6%)
SOSCF solution              ....       0.004 sec  (  0.3%)
Finished LeanSCF after   1.4 sec

Maximum memory used throughout the entire LEANSCF-calculation: 6.0 MB

-------------------------   --------------------
FINAL SINGLE POINT ENERGY       -46.053062509173
-------------------------   --------------------


------------------------------------------------------------------------------
                              ORCA PROPERTY CALCULATIONS
------------------------------------------------------------------------------

GBWName                                 ... run_atom40.gbw
Number of atoms                         ...      1
Number of basis functions               ...     33
Max core memory                         ...   4096 MB

Electric properties:
Dipole moment                           ... YES
Quadrupole moment                       ...  NO
Static polarizability (Dipole/Dipole)   ...  NO
Static polarizability (Dipole/Quad.)    ...  NO
Static polarizability (Quad./Quad.)     ...  NO
Static polarizability (Velocity)        ...  NO
Static hyperpolarizability              ...  NO

Atomic electric properties:
Dipole moment                           ...  NO
Quadrupole moment                       ...  NO
Static polarizability                   ...  NO

Choice of electric origin               ... Center of mass
Position of electric origin             ...     0.000000     0.000000     0.000000

General magnetic properties:
Magnetizability                         ...  NO

EPR properties:
g-Tensor (aka g-matrix)                 ...  NO
Zero-Field splitting spin-orbit         ...  NO
Zero-field splitting spin-spin          ...  NO
Hyperfine couplings                     ...  NO (   0 nuclei)
Quadrupole couplings                    ...  NO (   0 nuclei)
Contact density                         ...  NO (   0 nuclei)

NMR properties:
Chemical shifts                         ...  NO (   0 nuclei)
Spin-rotation constants                 ...  NO (   0 nuclei)
Spin-spin couplings                     ...  NO (   0 nuclei,    0 pairs)

Choice of magnetic origin               ... GIAO
Position of magnetic origin             ...     0.000000     0.000000     0.000000

Properties with geometric perturbations:
SCF Hessian                             ...  NO
IR spectrum                             ...  NO
VCD spectrum                            ...  NO
X-ray spectroscopy properties:
SCF XES/XAS/RIXS spectra                ...  NO

SCF SOC stabilization energy            ...  NO
Diagonal Born-Oppenheimer correction    ...  NO

-------------
DIPOLE MOMENT
-------------

Method             : SCF
Type of density    : Electron Density
Multiplicity       :   3
Irrep              :   0
Energy             :   -46.0530625091734080 Eh
Basis              : AO
                                X                 Y                 Z
Electronic contribution:      0.000001690       0.000003844      -0.000000410
Nuclear contribution   :      0.000000000       0.000000000       0.000000000
                        -----------------------------------------
Total Dipole Moment    :      0.000001690       0.000003844      -0.000000410
                        -----------------------------------------
Magnitude (a.u.)       :      0.000004219
Magnitude (Debye)      :      0.000010725



--------------------
Rotational spectrum 
--------------------
 
Rotational constants in cm-1:             0.000000             0.000000             0.000000 
Rotational constants in MHz :             0.000000             0.000000             0.000000 

Dipole components along the rotational axes: 
x,y,z [a.u.] :     0.000002     0.000004    -0.000000 
x,y,z [Debye]:     0.000004     0.000010    -0.000001 

 

Dipole moment calculation done in   0.0 sec 

Maximum memory used throughout the entire PROP-calculation: 1.6 MB

--------------------------------
SUGGESTED CITATIONS FOR THIS RUN
--------------------------------

Below you find a list of papers that are relevant to this ORCA run
We neither can nor want to force you to cite these papers, but we appreciate if you do
You receive ORCA, which is the product of decades of hard work by many enthusiastic individuals, for free
The only thing we kindly ask in return is that you cite our papers,
We deeply appreciate it, if you show your appreciation for ORCA by not just citing the generic ORCA reference.

Please note that relegating all ORCA citations to the supporting information does *not* help us.
SI sections are not indexed - citations you put there will not count into any citation statistics
But we need these citations in order to attract the funding resources that allow us to do what we are doing

Therefore, if you are a happy ORCA user, please consider citing a few of the papers listed below in the main body of your paper

In addition to the list printed below, the program has created the file run_atom40.bibtex that contains the list in bibtex format
You can import this file easily into all common literature databanks and citation aid programs


List of essential papers. We consider these as the minimum necessary citations

  1. Neese, F.
     Software update: the ORCA program system, version 6.0
     WIRES Comput. Molec. Sci. 2025 15(1), e70019
     doi.org/10.1002/wcms.7019

List of papers to cite with high priority. The work reported in these papers was absolutely
necessary for this run to complete.
Our perspective: the developers of density functionals and basis sets usually get cited in chemistry papers
Good! But without the algorithms to do something with them, the functionals or basis sets would not do anything.
Hence, in our opinion, the algorithm design and method developments papers are equally worthy of getting cited

  1. Neese, F.
     The SHARK Integral Generation and Digestion System
     J. Comp. Chem. 2022 44(3), 381
     doi.org/10.1002/jcc.26942

List of suggested additional citations. These are papers that are important in the 'surrounding' of 
of this run, or papers that preceded the highly important papers. If you like your results we are grateful for a citation.

  1. Neese, F.
     The ORCA program system
     WIRES Comput. Molec. Sci. 2012 2(1), 73-78
     doi.org/10.1002/wcms.81
  2. Neese, F.
     Software update: the ORCA program system, version 4.0
     WIRES Comput. Molec. Sci. 2018 8(1), 1-6
     doi.org/10.1002/wcms.1327
  3. Neese, F.; Wennmohs, F.; Becker, U.; Riplinger, C.
     The ORCA quantum chemistry program package
     J. Chem. Phys. 2020 152(22), 224108
     doi.org/10.1063/5.0004608
  4. Neese, F.
     Software update: The ORCA program system—Version 5.0
     WIRES Comput. Molec. Sci. 2022 12(1), e1606
     doi.org/10.1002/wcms.1606

List of optional additional citations

  1. Neese, F.
     Approximate second-order SCF convergence for spin unrestricted wavefunctions
     Chem. Phys. Lett. 2000 325(1-3), 93-98
     doi.org/10.1016/s0009-2614(00)00662-x

Timings for individual modules:

Sum of individual times          ...        3.754 sec (=   0.063 min)
Startup calculation              ...        1.475 sec (=   0.025 min)  39.3 %
SCF iterations                   ...        1.946 sec (=   0.032 min)  51.8 %
Property calculations            ...        0.334 sec (=   0.006 min)   8.9 %
                             ****ORCA TERMINATED NORMALLY****
TOTAL RUN TIME: 0 days 0 hours 0 minutes 3 seconds 993 msec
