
                                 *****************
                                 * O   R   C   A *
                                 *****************

                                            #,                                       
                                            ###                                      
                                            ####                                     
                                            #####                                    
                                            ######                                   
                                           ########,                                 
                                     ,,################,,,,,                         
                               ,,#################################,,                 
                          ,,##########################################,,             
                       ,#########################################, ''#####,          
                    ,#############################################,,   '####,        
                  ,##################################################,,,,####,       
                ,###########''''           ''''###############################       
              ,#####''   ,,,,##########,,,,          '''####'''          '####       
            ,##' ,,,,###########################,,,                        '##       
           ' ,,###''''                  '''############,,,                           
         ,,##''                                '''############,,,,        ,,,,,,###''
      ,#''                                            '''#######################'''  
     '                                                          ''''####''''         
             ,#######,   #######,   ,#######,      ##                                
            ,#'     '#,  ##    ##  ,#'     '#,    #''#        ,####,    ,#,          
            ##       ##  ##   ,#'  ##            #'  '#       #'       ,# #          
            ##       ##  #######   ##           ,######,      #####,      #          
            '#,     ,#'  ##    ##  '#,     ,#' ,#      #,     #,   #      #          
             '#######'   ##     ##  '#######'  #'      '#     '####' #    #          



                #########################################################
                #                        -***-                          #
                #          Department of theory and spectroscopy        #
                #                                                       #
                #                      Frank Neese                      #
                #                                                       #
                #     Directorship, Architecture, Infrastructure        #
                #                    SHARK, DRIVERS                     #
                #        Core code/Algorithms in most modules           #
                #                                                       #
                #        Max Planck Institute fuer Kohlenforschung      #
                #                Kaiser Wilhelm Platz 1                 #
                #                 D-45470 Muelheim/Ruhr                 #
                #                      Germany                          #
                #                                                       #
                #                  All rights reserved                  #
                #                        -***-                          #
                #########################################################


                         Program Version 6.1.0  -  RELEASE   -
                                (GIT: $679e74b$)
                          ($2025-06-10 18:02:51 +0200$)


 With contributions from (in alphabetic order):
[Max-Planck-Institut fuer Kohlenforschung]                               
  Daniel Aravena         : Magnetic Suceptibility                        
  Michael Atanasov       : Ab Initio Ligand Field Theory (pilot matlab implementation)
  Alexander A. Auer      : GIAO ZORA, VPT2 properties, NMR spectrum      
  Ute Becker             : All parallelization in ORCA, NUMFREQ, NUMCALC 
  Giovanni Bistoni       : ED, misc. LED, open-shell LED, HFLD           
  Dmytro Bykov           : pre 5.0 version of the SCF Hessian            
  Marcos Casanova-Páez   : Triplet and SCS-CIS(D). UHF-(DLPNO)-IP/EA/STEOM-CCSD. UHF-CVS-IP/STEOM-CCSD   
  Vijay G. Chilkuri      : MRCI spin determinant printing, contributions to CSF-ICE 
  Pauline Colinet        : FMM embedding                                 
  Dipayan Datta          : RHF DLPNO-CCSD density                        
  Achintya Kumar Dutta   : EOM-CC, STEOM-CC                              
  Nicolas Foglia         : Exact transition moments, OPA infrastructure, MCD improvements    
  Dmitry Ganyushin       : Spin-Orbit,Spin-Spin,Magnetic field MRCI      
  Miquel Garcia-Rates    : C-PCM and meta-GGA Hessian, CCSD/C-PCM, Gaussian charge scheme 
  Tiago L. C. Gouveia    : GS-ROHF, GS-ROCIS                             
  Yang Guo               : DLPNO-NEVPT2, F12-NEVPT2, CIM, IAO-localization        
  Andreas Hansen         : Spin unrestricted coupled pair/coupled cluster methods 
  Ingolf Harden          : AUTO-CI MPn and infrastructure                
  Benjamin Helmich-Paris : MC-RPA, TRAH-(SCF,CASSCF), AVAS, COSX integrals, SCF dyn. polar., MC-PDFT, srDFT 
  Lee Huntington         : MR-EOM, pCC                                   
  Robert Izsak           : Overlap fitted RIJCOSX, COSX-SCS-MP3, EOM     
  Riya Kayal             : Wick's Theorem for AUTO-CI, AUTO-CI UHF-CCSDT 
  Emily Kempfer          : AUTO-CI RHF CISDT and CCSDT, approximate NEVPT4
  Christian Kollmar      : KDIIS, OOCD, Brueckner-CCSD(T), CCSD density, CASPT2, CASPT2-K, improved NEVPT2 
  Axel Koslowski         : Symmetry handling                             
  Simone Kossmann        : meta-GGA functionals, TD-DFT gradient, OOMP2, (MP2 Hessian; deprecated post 5.0) 
  Lucas Lang             : DCDCAS, Hyperfine gauge corrections, ICE-SOC+SSC
  Marvin Lechner         : AUTO-CI (C++ implementation), FIC-MRCC        
  Spencer Leger          : CASSCF response                               
  Dagmar Lenk            : GEPOL surface, SMD, ORCA-2-JSON               
  Dimitrios Liakos       : Extrapolation schemes; Compound Job, Property file
  Dimitrios Manganas     : Further ROCIS development; embedding schemes. LFT, Crystal Embedding 
  Dimitrios Pantazis     : SARC Basis sets                               
  Anastasios Papadopoulos: AUTO-CI, single reference methods and gradients 
  Taras Petrenko         : pre 6.0 DFT Hessian and TD-DFT gradient,  ECA, NRVS 
  Petra Pikulova         : Analytic Raman intensities                    
  Peter Pinski           : DLPNO-MP2, DLPNO-MP2 Gradient                 
  Shashank Vittal Rao    : ES-AILFT, MagRelax                            
  Christoph Reimann      : Effective Core Potentials                     
  Marius Retegan         : Local ZFS, SOC                                
  Christoph Riplinger    : Optimizer, TS searches, QM/MM, DLPNO-CCSD(T), (RO)-DLPNO pert. Triples 
  Michael Roemelt        : Original ROCIS implementation, recursive CI coupling coefficients
  Masaaki Saitow         : Open-shell DLPNO-CCSD energy and density      
  Barbara Sandhoefer     : DKH picture change effects                    
  Yorick L. A. Schmerwitz: GMF and freeze-and-release deltaSCF, NEB S-IDPP initial path                    
  Kantharuban Sivalingam : CASSCF convergence/infrastructure, NEVPT2, NEVPT3, NEVPT4(SD), FIC-MRCI and CEPA variants
  Bernardo de Souza      : ESD, SOC TD-DFT                               
  Georgi L. Stoychev     : AutoAux, RI-MP2 NMR, DLPNO-MP2 response, X2C  
  Van Anh Tran           : RI-MP2 g-tensors                              
  Willem Van den Heuvel  : Paramagnetic NMR                              
  Zikuan Wang            : NOTCH, Electric field optimization            
  Frank Wennmohs         : Technical directorship and infrastructure     
  Hang Xu                : AUTO-CI-Response properties                   
                                                                         
[FACCTs GmbH]                                                            
  Markus Bursch, Nicolas Foglia, Miquel Garcia-Rates, Ingolf Harden, Hagen Neugebauer, Anastasios Papadopoulos, 
  Christoph Riplinger, Bernardo de Souza, Georgi L. Stoychev                                                    
                                                                 
  APM, various basis sets, CI-OPT, improved COSX, DLPNO-Multilevel,           
  DOCKER, DRACO, updates on ESD, Fragmentator, GOAT, IRC, LR-CPCM, L-BFGS, MBIS, meta-GGA TD-DFT gradient, ML-optimized integration grids, 
  MM, NACMEs, nearIR, NEB, NEB-TS, NL-DFT gradient (VV10), 2- and 3-layer-ONIOM, interface openCOSMO-RS, QMMM,   
  Crystal-QMMM, RESP, rigid body optimization, SF, symmetry and pop. for TD-DFT, various functionals, SOLVATOR                                   
                                                                         
[Other institutions]                                                     
  V. Asgeirsson          : NEB                                           
  Christoph Bannwarth    : sTDA-DFT, sTD-DFT, PBEh-3c, B97-3c, D3        
  Giovanni Bistoni       : ETS/NOCV, ADLD/ADEX, COVALED                  
  Martin Brehm           : Molecular dynamics                            
  Ronald Cardenas        : ETS/NOCV                                      
  Martina Colucci        : COVALED                                       
  Sebastian Ehlert       : rSCAN, r2SCAN, r2SCAN-3c, D4, dhf basis sets  
  Marvin Friede          : D4 for Fr, Ra, Ac-Lr                          
  Lars Goerigk           : TD-DFT with DH, B97 family of functionals     
  Stefan Grimme          : VdW corrections, initial TS optimization, DFT functionals, gCP, sTDA/sTD-DF 
  Waldemar Hujo          : DFT-NL                                        
  H. Jonsson             : NEB                                           
  Holger Kruse           : gCP                                           
  Marcel Mueller         : wB97X-3c, vDZP basis set                      
  Hagen Neugebauer       : wr2SCAN, Native XTB                           
  Gianluca Regni         : ADLD/ADEX                                     
  Tobias Risthaus        : pre 6.0 range-separated hybrid DFT and stability analysis
  Lukas Wittmann         : regularized MP2, r2SCAN double-hybrids, wr2SCAN        
                                                                         
We gratefully acknowledge several colleagues who have allowed us to      
interface, adapt or use parts of their codes:                            
  Ed Valeev, F. Pavosevic, A. Kumar             : LibInt (2-el integral package), F12 methods 
  Garnet Chan, S. Sharma, J. Yang, R. Olivares  : DMRG                   
  Ulf Ekstrom                                   : XCFun DFT Library      
  Mihaly Kallay                                 : mrcc  (arbitrary order and MRCC methods)
  Frank Weinhold                                : gennbo (NPA and NBO analysis)           
  Simon Mueller                                 : openCOSMO-RS                            
  Christopher J. Cramer and Donald G. Truhlar   : smd solvation model                     
  S Lehtola, MJT Oliveira, MAL Marques          : LibXC Library                           
  Liviu Ungur et al                             : ANISO software                          


 Your calculation uses the libint2 library for the computation of 2-el integrals
 For citations please refer to: http://libint.valeyev.net

 Your ORCA version has been built with support for libXC version: 7.0.0
 For citations please refer to: https://libxc.gitlab.io

 This ORCA versions uses:
   CBLAS   interface :  Fast vector & matrix operations
   LAPACKE interface :  Fast linear algebra routines
   SCALAPACK package :  Parallel linear algebra routines
   Shared memory     :  Shared parallel matrices
   BLAS/LAPACK       :  OpenBLAS 0.3.29  USE64BITINT DYNAMIC_ARCH NO_AFFINITY Prescott SINGLE_THREADED
        Core in use  :  Prescott
   Copyright (c) 2011-2014, The OpenBLAS Project


  ***********************************
  * Starting time: Sat Aug 16 17:36:36 2025
  * Host name:     cuda3
  * Process ID:    273660
  * Working dir.:  /local/scratch/mehlhorn/62069
  ***********************************



***************************************
The coordinates will be read from file: start.xyz
***************************************


Your calculation utilizes the geometrical counterpoise correction gCP
Please cite in your paper:
H.Kruse, S. Grimme J.Chem.Phys., 136, (2012), 154101 
   

Your calculation utilizes the atom-pairwise dispersion correction
based on EEQ partial charges (D4)


================================================================================

----- Orbital basis set information -----
Your calculation utilizes the basis: def2-mTZVPP
   Stefan Grimme, Andreas Hansen, Sebastian Ehlert, and Jan-Michael Mewes 
   J. Chem. Phys. 154, 064103 (2021). DOI: 10.1063/5.0040021

----- AuxJ basis set information -----
Your calculation utilizes the basis: def2-mTZVPP/J
   Stefan Grimme, Andreas Hansen, Sebastian Ehlert, and Jan-Michael Mewes 
   J. Chem. Phys. 154, 000000 (2021). DOI: 10.1063/5.0040021

================================================================================
                                        WARNINGS
                       Please study these warnings very carefully!
================================================================================



WARNING: SCAN, rSCAN, or r2SCAN functional requested.
  ===> : libXC variant has now been activated.



WARNING: Geometry Optimization
  ===> : Switching off AutoStart
         For restart on a previous wavefunction, please use MOREAD

================================================================================
                                       INPUT FILE
================================================================================
NAME = run.inp
|  1> # Geometry optimization for (AlH3)n cluster
|  2> 
|  3> %pal nprocs 24  end
|  4> 
|  5> %geom MaxIter 500 end
|  6> 
|  7> %elprop Polar 1 end # invoke raman
|  8> 
|  9> ! r2SCAN-3c
| 10> ! RKS	# closed shell for AlH3
| 11> ! Freq 	# Frequency analysis to check the stabiltity of the structures
| 12> 
| 13> 
| 14> ! NoPop # population analysis not necessary	
| 15> 
| 16> ! DEFGRID3
| 17> ! ExtremeSCF
| 18> ! VeryTightOpt
| 19> 
| 20> 
| 21> ! SmallPrint
| 22> 
| 23> 
| 24> * xyzFile 0 1 start.xyz # only maingroup elements H and Al so there should be no net spin
| 25> 
| 26>                          ****END OF INPUT****
================================================================================

                       *****************************
                       * Geometry Optimization Run *
                       *****************************

Geometry optimization settings:
Update method            Update   .... BFGS
Choice of coordinates    CoordSys .... (2022) Redundant Internals
Initial Hessian          InHess   .... Almloef's Model
Max. no of cycles        MaxIter  .... 500

Convergence Tolerances:
Energy Change            TolE     ....  2.0000e-07 Eh
Max. Gradient            TolMAXG  ....  3.0000e-05 Eh/bohr
RMS Gradient             TolRMSG  ....  8.0000e-06 Eh/bohr
Max. Displacement        TolMAXD  ....  2.0000e-04 bohr
RMS Displacement         TolRMSD  ....  1.0000e-04 bohr
Strict Convergence                .... False

------------------------------------------------------------------------------
                        ORCA OPTIMIZATION COORDINATE SETUP
------------------------------------------------------------------------------

The optimization will be done in redundant internal coordinates (2022)
Making redundant internal coordinates   ...  (2022 redundants) done
Evaluating the initial hessian          ...  (Almloef) done
Evaluating the coordinates              ...  done
Calculating the B-matrix                .... done
Calculating the G-matrix                .... done
The number of degrees of freedom        ....  117

    -----------------------------------------------------------------
                    Redundant Internal Coordinates


    -----------------------------------------------------------------
         Definition                    Initial Value    Approx d2E/dq
    -----------------------------------------------------------------
      1. B(Al  1,Al  0)                  3.0622         0.065912   
      2. B(H   2,Al  1)                  1.7226         0.246991   
      3. B(H   3,Al  1)                  1.5864         0.407364   
      4. B(H   4,Al  1)                  1.7227         0.246910   
      5. B(H   4,Al  0)                  1.7220         0.247542   
      6. B(H   5,Al  0)                  1.5868         0.406758   
      7. B(H   6,Al  0)                  1.7159         0.253200   
      8. B(H   7,Al  1)                  1.5864         0.407397   
      9. B(Al  8,H   6)                  1.7159         0.253137   
     10. B(Al  8,H   2)                  1.7220         0.247556   
     11. B(Al  8,Al  1)                  3.0659         0.065020   
     12. B(Al  8,Al  0)                  3.0732         0.063297   
     13. B(H   9,Al  8)                  1.5868         0.406762   
     14. B(H  10,Al  8)                  1.5874         0.405873   
     15. B(H  11,Al  0)                  1.5875         0.405806   
     16. A(H   4,Al  0,H   6)           98.0851         0.327835   
     17. A(Al  1,Al  0,H   4)           27.2634         0.303830   
     18. A(Al  1,Al  0,Al  8)           59.9608         0.281458   
     19. A(Al  8,Al  0,H  11)          103.5673         0.327070   
     20. A(H   4,Al  0,H   5)          104.4110         0.354886   
     21. A(H   6,Al  0,H  11)          106.7661         0.356107   
     22. A(Al  1,Al  0,H   5)          131.5048         0.329389   
     23. A(Al  1,Al  0,H  11)           88.7869         0.329261   
     24. A(H   5,Al  0,H  11)          128.8787         0.386360   
     25. A(H   5,Al  0,H   6)          105.8828         0.356249   
     26. A(H   4,Al  0,Al  8)           74.2358         0.301871   
     27. A(Al  1,Al  0,H   6)           86.3833         0.304932   
     28. A(H   5,Al  0,Al  8)          122.5105         0.327197   
     29. A(H   4,Al  0,H  11)          108.6349         0.354745   
     30. A(H   6,Al  0,Al  8)           26.4256         0.302963   
     31. A(H   2,Al  1,H   7)          104.7658         0.354846   
     32. A(H   3,Al  1,H   4)          104.7603         0.354821   
     33. A(Al  0,Al  1,H   3)          127.3478         0.329470   
     34. A(H   2,Al  1,H   4)           95.8450         0.326359   
     35. A(H   4,Al  1,Al  8)           74.4431         0.303045   
     36. A(H   3,Al  1,Al  8)           98.6375         0.328730   
     37. A(H   2,Al  1,H   3)          109.3937         0.354841   
     38. A(H   2,Al  1,Al  8)           27.1138         0.303061   
     39. A(Al  0,Al  1,Al  8)           60.1979         0.282632   
     40. A(H   7,Al  1,Al  8)          127.3487         0.328734   
     41. A(Al  0,Al  1,H   4)           27.2515         0.303706   
     42. A(H   4,Al  1,H   7)          109.3862         0.354826   
     43. A(Al  0,Al  1,H   7)           98.7251         0.329474   
     44. A(Al  0,Al  1,H   2)           74.2291         0.303722   
     45. A(H   3,Al  1,H   7)          128.0682         0.386724   
     46. A(Al  1,H   2,Al  8)          125.7617         0.326500   
     47. A(Al  0,H   4,Al  1)          125.4851         0.326479   
     48. A(Al  0,H   6,Al  8)          127.1500         0.329046   
     49. A(Al  1,Al  8,H   2)           27.1244         0.303172   
     50. A(Al  0,Al  8,H   2)           73.9129         0.301874   
     51. A(Al  0,Al  8,Al  1)           59.8412         0.280866   
     52. A(H   6,Al  8,H  10)          106.6748         0.356102   
     53. A(H   2,Al  8,H  10)          108.6589         0.354758   
     54. A(Al  1,Al  8,H  10)           89.0497         0.328531   
     55. A(Al  0,Al  8,H  10)          104.3239         0.327079   
     56. A(H   6,Al  8,H   9)          105.9660         0.356234   
     57. A(H   9,Al  8,H  10)          128.8696         0.386372   
     58. A(H   2,Al  8,H   9)          104.3829         0.354890   
     59. A(Al  1,Al  8,H   9)          131.3129         0.328649   
     60. A(Al  0,Al  8,H   9)          121.8776         0.327197   
     61. A(H   2,Al  8,H   6)           98.1226         0.327825   
     62. A(Al  1,Al  8,H   6)           86.2626         0.304255   
     63. A(Al  0,Al  8,H   6)           26.4245         0.302951   
     64. D(H   2,Al  1,Al  0,H   4)   -141.2078         0.010000   
     65. D(H   3,Al  1,Al  0,H   6)     76.9003         0.010000   
     66. D(H   3,Al  1,Al  0,H   5)    -31.1727         0.010000   
     67. D(H   3,Al  1,Al  0,Al  8)     77.3281         0.010000   
     68. D(H   2,Al  1,Al  0,Al  8)    -25.2939         0.010000   
     69. D(H   3,Al  1,Al  0,H   4)    -38.5858         0.010000   
     70. D(H   2,Al  1,Al  0,H   6)    -25.7217         0.010000   
     71. D(H   2,Al  1,Al  0,H   5)   -133.7947         0.010000   
     72. D(H   2,Al  1,Al  0,H  11)     81.1628         0.010000   
     73. D(H   3,Al  1,Al  0,H  11)   -176.2152         0.010000   
     74. D(Al  8,H   2,Al  1,H   7)    149.5196         0.010000   
     75. D(Al  8,H   2,Al  1,H   3)    -70.2339         0.010000   
     76. D(Al  8,H   2,Al  1,Al  0)     54.4382         0.010000   
     77. D(Al  8,H   2,Al  1,H   4)     37.6777         0.010000   
     78. D(Al  1,H   4,Al  0,H   5)   -174.2745         0.010000   
     79. D(Al  0,H   4,Al  1,H   7)    -70.6105         0.010000   
     80. D(Al  0,H   4,Al  1,Al  8)     54.1134         0.010000   
     81. D(Al  0,H   4,Al  1,H   3)    149.1542         0.010000   
     82. D(Al  0,H   4,Al  1,H   2)     37.3055         0.010000   
     83. D(Al  1,H   4,Al  0,H  11)     45.3204         0.010000   
     84. D(Al  1,H   4,Al  0,Al  8)    -54.0053         0.010000   
     85. D(Al  1,H   4,Al  0,H   6)    -65.4966         0.010000   
     86. D(Al  8,H   6,Al  0,H   4)     25.5189         0.010000   
     87. D(Al  8,H   6,Al  0,Al  1)      0.8321         0.010000   
     88. D(Al  8,H   6,Al  0,H   5)    133.0829         0.010000   
     89. D(Al  8,H   6,Al  0,H  11)    -86.8068         0.010000   
     90. D(Al  1,Al  8,Al  0,H  11)    -80.5199         0.010000   
     91. D(Al  1,Al  8,Al  0,H   6)    179.0407         0.010000   
     92. D(Al  1,Al  8,Al  0,H   5)    122.6300         0.010000   
     93. D(H   2,Al  8,Al  0,Al  1)     25.3464         0.010000   
     94. D(Al  1,Al  8,Al  0,H   4)     25.3487         0.010000   
     95. D(H   9,Al  8,H   6,Al  0)    131.1921         0.010000   
     96. D(H   2,Al  8,H   6,Al  0)     23.6252         0.010000   
     97. D(Al  1,Al  8,H   6,Al  0)     -0.8312         0.010000   
     98. D(H  10,Al  8,H   2,Al  1)     45.7658         0.010000   
     99. D(H   9,Al  8,H   2,Al  1)   -173.8452         0.010000   
    100. D(H   6,Al  8,H   2,Al  1)    -64.9738         0.010000   
    101. D(H   6,Al  8,Al  1,H   2)    115.9815         0.010000   
    102. D(H   6,Al  8,Al  1,Al  0)      0.4278         0.010000   
    103. D(H   2,Al  8,Al  1,H   7)    -38.0976         0.010000   
    104. D(H   2,Al  8,Al  1,H   4)   -140.8639         0.010000   
    105. D(H   2,Al  8,Al  1,H   3)    116.1210         0.010000   
    106. D(H   2,Al  8,Al  1,Al  0)   -115.5537         0.010000   
    107. D(Al  0,Al  8,Al  1,H   7)     77.4561         0.010000   
    108. D(Al  0,Al  8,Al  1,H   4)    -25.3102         0.010000   
    109. D(Al  0,Al  8,H   2,Al  1)    -54.2771         0.010000   
    110. D(Al  0,Al  8,Al  1,H   3)   -128.3254         0.010000   
    111. D(Al  0,Al  8,Al  1,H   2)    115.5537         0.010000   
    112. D(H   6,Al  8,Al  0,Al  1)   -179.0407         0.010000   
    113. D(H   2,Al  8,Al  0,H  11)    -55.1734         0.010000   
    114. D(H   2,Al  8,Al  0,H   6)   -155.6129         0.010000   
    115. D(H   2,Al  8,Al  0,H   5)    147.9764         0.010000   
    116. D(H  10,Al  8,H   6,Al  0)    -88.7155         0.010000   
    117. D(H   2,Al  8,Al  0,H   4)     50.6951         0.010000   
    -----------------------------------------------------------------

Number of atoms                         .... 12
Number of degrees of freedom            .... 117


         *************************************************************
         *                GEOMETRY OPTIMIZATION CYCLE   1            *
         *************************************************************
---------------------------------
CARTESIAN COORDINATES (ANGSTROEM)
---------------------------------
  Al    -0.229465    1.518719    2.565333
  Al     0.000121   -0.000507   -0.083536
  H      0.872783   -0.936113    1.069964
  H     -1.104267   -0.908414   -0.771134
  H     -0.863230    0.941627    1.071787
  H     -1.473542    2.184480    3.291334
  H      0.004056    0.000973    3.330927
  H      1.098729    0.903679   -0.785103
  Al     0.255690   -1.515992    2.569382
  H      1.513180   -2.162656    3.289507
  H     -1.180669   -2.143678    2.318759
  H      1.213553    2.126193    2.303140

----------------------------
CARTESIAN COORDINATES (A.U.)
----------------------------
  NO LB      ZA    FRAG     MASS         X           Y           Z
   0 Al   13.0000    0    26.982   -0.433626    2.869962    4.847776
   1 Al   13.0000    0    26.982    0.000229   -0.000959   -0.157861
   2 H     1.0000    0     1.008    1.649321   -1.768997    2.021939
   3 H     1.0000    0     1.008   -2.086762   -1.716654   -1.457233
   4 H     1.0000    0     1.008   -1.631268    1.779418    2.025385
   5 H     1.0000    0     1.008   -2.784590    4.128070    6.219720
   6 H     1.0000    0     1.008    0.007665    0.001839    6.294540
   7 H     1.0000    0     1.008    2.076297    1.707705   -1.483630
   8 Al   13.0000    0    26.982    0.483184   -2.864810    4.855428
   9 H     1.0000    0     1.008    2.859496   -4.086827    6.216267
  10 H     1.0000    0     1.008   -2.231141   -4.050964    4.381820
  11 H     1.0000    0     1.008    2.293282    4.017922    4.352305

--------------------------------
INTERNAL COORDINATES (ANGSTROEM)
--------------------------------
 Al     0   0   0     0.000000000000     0.00000000     0.00000000
 Al     1   0   0     3.062231852220     0.00000000     0.00000000
 H      2   1   0     1.722631792243    74.22913359     0.00000000
 H      2   1   3     1.586429302671   127.34776376   102.62200927
 H      1   2   3     1.722024901215    27.26343208   218.79222111
 H      1   2   3     1.586834590663   131.50484193   226.20526448
 H      1   2   3     1.715872586925    86.38332633   334.27831826
 H      2   1   3     1.586407342652    98.72509446   257.02087331
 Al     7   1   2     1.715941375183   127.14995378     0.83209086
 H      9   7   1     1.586832060228   105.96604999   131.19212961
 H      9   7   1     1.587427891101   106.67476505   271.28446731
 H      1   2   3     1.587472406968    88.78687095    81.16283218

---------------------------
INTERNAL COORDINATES (A.U.)
---------------------------
 Al     0   0   0     0.000000000000     0.00000000     0.00000000
 Al     1   0   0     5.786779559266     0.00000000     0.00000000
 H      2   1   0     3.255302316926    74.22913359     0.00000000
 H      2   1   3     2.997916912876   127.34776376   102.62200927
 H      1   2   3     3.254155459090    27.26343208   218.79222111
 H      1   2   3     2.998682796186   131.50484193   226.20526448
 H      1   2   3     3.242529269992    86.38332633   334.27831826
 H      2   1   3     2.997875414453    98.72509446   257.02087331
 Al     7   1   2     3.242659260960   127.14995378     0.83209086
 H      9   7   1     2.998678014358   105.96604999   131.19212961
 H      9   7   1     2.999803971529   106.67476505   271.28446731
 H      1   2   3     2.999888094326    88.78687095    81.16283218

---------------------
BASIS SET INFORMATION
---------------------
There are 2 groups of distinct atoms

 Group   1 Type Al  : 14s9p1d contracted to 5s4p1d pattern {73211/6111/1}
 Group   2 Type H   : 4s1p contracted to 2s1p pattern {31/1}

Atom   0Al   basis set group =>   1
Atom   1Al   basis set group =>   1
Atom   2H    basis set group =>   2
Atom   3H    basis set group =>   2
Atom   4H    basis set group =>   2
Atom   5H    basis set group =>   2
Atom   6H    basis set group =>   2
Atom   7H    basis set group =>   2
Atom   8Al   basis set group =>   1
Atom   9H    basis set group =>   2
Atom  10H    basis set group =>   2
Atom  11H    basis set group =>   2
---------------------------------
AUXILIARY/J BASIS SET INFORMATION
---------------------------------
There are 2 groups of distinct atoms

 Group   1 Type Al  : 14s5p5d contracted to 8s4p3d pattern {71111111/2111/311}
 Group   2 Type H   : 5s2p1d contracted to 3s1p1d pattern {311/2/1}

Atom   0Al   basis set group =>   1
Atom   1Al   basis set group =>   1
Atom   2H    basis set group =>   2
Atom   3H    basis set group =>   2
Atom   4H    basis set group =>   2
Atom   5H    basis set group =>   2
Atom   6H    basis set group =>   2
Atom   7H    basis set group =>   2
Atom   8Al   basis set group =>   1
Atom   9H    basis set group =>   2
Atom  10H    basis set group =>   2
Atom  11H    basis set group =>   2


           ************************************************************
           *        Program running with 24 parallel MPI-processes    *
           *              working on a common directory               *
           ************************************************************
------------------------------------------------------------------------------
                             ORCA STARTUP CALCULATIONS
                           -- RI-GTO INTEGRALS CHOSEN --
------------------------------------------------------------------------------
------------------------------------------------------------------------------
                   ___                                                        
                  /   \      - P O W E R E D   B Y -                         
                 /     \                                                     
                 |  |  |   _    _      __       _____    __    __             
                 |  |  |  | |  | |    /  \     |  _  \  |  |  /  |          
                  \  \/   | |  | |   /    \    | | | |  |  | /  /          
                 / \  \   | |__| |  /  /\  \   | |_| |  |  |/  /          
                |  |  |   |  __  | /  /__\  \  |    /   |      \           
                |  |  |   | |  | | |   __   |  |    \   |  |\   \          
                \     /   | |  | | |  |  |  |  | |\  \  |  | \   \       
                 \___/    |_|  |_| |__|  |__|  |_| \__\ |__|  \__/        
                                                                              
                      - O R C A' S   B I G   F R I E N D -                    
                                      &                                       
                       - I N T E G R A L  F E E D E R -                       
                                                                              
 v1 FN, 2020, v2 2021, v3 2022-2024                                           
------------------------------------------------------------------------------


----------------------
SHARK INTEGRAL PACKAGE
----------------------

Number of atoms                             ...     12
Number of basis functions                   ...    111
Number of shells                            ...     57
Maximum angular momentum                    ...      2
Integral batch strategy                     ... SHARK/LIBINT Hybrid
RI-J (if used) integral strategy            ... SPLIT-RIJ (Revised 2003 algorithm where possible)
Printlevel                                  ...      1
Contraction scheme used                     ... SEGMENTED contraction
Prescreening option                         ... SCHWARTZ
   Thresh                                   ... 3.000e-16
   Tcut                                     ... 3.000e-16
   Tpresel                                  ... 3.000e-16 
Coulomb Range Separation                    ... NOT USED
Exchange Range Separation                   ... NOT USED
Multipole approximations                    ... NOT USED
Finite Nucleus Model                        ... NOT USED
CABS basis                                  ... NOT available
Auxiliary Coulomb fitting basis             ... AVAILABLE
   # of basis functions in Aux-J            ...    204
   # of shells in Aux-J                     ...     90
   Maximum angular momentum in Aux-J        ...      2
Auxiliary J/K fitting basis                 ... NOT available
Auxiliary Correlation fitting basis         ... NOT available
Auxiliary 'external' fitting basis          ... NOT available

Checking pre-screening integrals            ... done (  0.0 sec) Dimension = 57
   => SHARK Basis and OBASIS are compatible. Storing Pre-screening
Shell pair information
Shell pair cut-off parameter TPreSel        ...   3.0e-16
Total number of shell pairs                 ...      1653
Shell pairs after pre-screening             ...      1584
Total number of primitive shell pairs       ...      7050
Primitive shell pairs kept                  ...      4983
          la=0 lb=0:    541 shell pairs
          la=1 lb=0:    658 shell pairs
          la=1 lb=1:    217 shell pairs
          la=2 lb=0:     99 shell pairs
          la=2 lb=1:     63 shell pairs
          la=2 lb=2:      6 shell pairs

Checking whether 4 symmetric matrices of dimension 111 fit in memory
:Max Core in MB      =   4096.00
 MB in use           =      3.43
 MB left             =   4092.57
 MB needed           =      0.19
 Data fit in memory  = YES
Calculating RI/J V-Matrix + Cholesky decomp.... done (  0.1 sec)
Calculating Nuclear repulsion               ... done (  0.0 sec) ENN=    170.928148442860 Eh

Diagonalization of the overlap matrix:
Smallest eigenvalue                        ... 9.768e-03
Time for diagonalization                   ...    0.090 sec
Threshold for overlap eigenvalues          ... 1.000e-07
Number of eigenvalues below threshold      ... 0
Time for construction of square roots      ...    0.002 sec
Total time needed                          ...    0.094 sec

-------------------
DFT GRID GENERATION
-------------------

General Integration Accuracy     IntAcc      ... 4.959
Radial Grid Type                 RadialGrid  ... OptM3 with GC (2021)
Angular Grid (max. ang.)         AngularGrid ... 6 (Lebedev-590)
Angular grid pruning method      GridPruning ... 4 (adaptive)
Weight generation scheme         WeightScheme... mBecke (2022)
Basis function cutoff            BFCut       ... 3.0000e-16
Integration weight cutoff        WCut        ... 1.0000e-14
Partially contracted basis set               ... off
Rotationally invariant grid construction     ... off
Angular grids for H and He will be reduced by one unit

Total number of grid points                  ...   128059
Total number of batches                      ...     2007
Average number of points per batch           ...       63
Average number of grid points per atom       ...    10672
Grids setup in   2.7 sec
Initializing property integral containers    ... done (  0.0 sec)

SHARK setup successfully completed in   3.6 seconds

Maximum memory used throughout the entire STARTUP-calculation: 25.0 MB


           ************************************************************
           *        Program running with 24 parallel MPI-processes    *
           *              working on a common directory               *
           ************************************************************
-------------------------------------------------------------------------------
                                 ORCA GUESS
                   Start orbitals & Density for SCF / CASSCF
-------------------------------------------------------------------------------

------------
SCF SETTINGS
------------
Hamiltonian:
 Density Functional     Method          .... DFT(GTOs)
  Functional kind                       .... Exchange
  Functional name                       .... Re-regularized SCAN exchange by Furness et al
  Functional family                     .... MGGA
  Functional refs                              
    [ 0] J. W. Furness, A. D. Kaplan, J. Ning, J. P. Perdew, and J. Sun.,  J. Phys. Chem. Lett. 11, 8208-8215 (2020), doi: 10.1021/acs.jpclett.0c02405
    [ 1] J. W. Furness, A. D. Kaplan, J. Ning, J. P. Perdew, and J. Sun.,  J. Phys. Chem. Lett. 11, 9248-9248 (2020), doi: 10.1021/acs.jpclett.0c03077
  Functional external parameters        .... 6
    Parameter  0 _c1        =  6.670000e-01 : c1 parameter        
    Parameter  1 _c2        =  8.000000e-01 : c2 parameter        
    Parameter  2 _d         =  1.240000e+00 : d parameter         
    Parameter  3 _k1        =  6.500000e-02 : k1 parameter        
    Parameter  4 _eta       =  1.000000e-03 : eta parameter       
    Parameter  5 _dp2       =  3.610000e-01 : dp2 parameter       
  Functional kind                       .... Correlation
  Functional name                       .... Re-regularized SCAN correlation by Furness et al
  Functional family                     .... MGGA
  Functional refs                              
    [ 0] J. W. Furness, A. D. Kaplan, J. Ning, J. P. Perdew, and J. Sun.,  J. Phys. Chem. Lett. 11, 8208-8215 (2020), doi: 10.1021/acs.jpclett.0c02405
    [ 1] J. W. Furness, A. D. Kaplan, J. Ning, J. P. Perdew, and J. Sun.,  J. Phys. Chem. Lett. 11, 9248-9248 (2020), doi: 10.1021/acs.jpclett.0c03077
  Functional external parameters        .... 1
    Parameter  0 _eta       =  1.000000e-03 : Regularization parameter
 Gradients option       PostSCFGGA      .... off
 RI-approximation to the Coulomb term is turned on
   Number of AuxJ basis functions       .... 204


General Settings:
 Integral files         IntName         .... run
 Hartree-Fock type      HFTyp           .... RHF
 Total Charge           Charge          ....    0
 Multiplicity           Mult            ....    1
 Number of Electrons    NEL             ....   48
 Basis Dimension        Dim             ....  111
 Nuclear Repulsion      ENuc            ....    170.9281484429 Eh

Convergence Acceleration:
 AO-DIIS                CNVDIIS         .... on
   Start iteration      DIISMaxIt       ....    12
   Startup error        DIISStart       ....  0.200000
   # of expansion vecs  DIISMaxEq       ....     5
   Bias factor          DIISBfac        ....   1.050
   Max. coefficient     DIISMaxC        ....  10.000
 MO-DIIS                CNVKDIIS        .... off
 Trust-Rad. Augm. Hess. CNVTRAH         .... auto
   Auto Start mean grad. ratio tolernc. ....  1.125000
   Auto Start start iteration           ....    50
   Auto Start num. interpolation iter.  ....    10
   Max. Number of Micro iterations      ....    24
   Max. Number of Macro iterations      .... Maxiter - #DIIS iter
   Number of Davidson start vectors     ....     2
   Converg. threshold    (grad. norm)   ....   1.000e-09
   Grad. Scal. Fac. for Micro threshold ....   0.100
   Minimum threshold for Micro iter.    ....   1.000e-02
   NR start threshold (gradient norm)   ....   1.000e-04
   Initial trust radius                 ....   0.400
   Minimum AH scaling param. (alpha)    ....   1.000
   Maximum AH scaling param. (alpha)    .... 1000.000
   Quad. conv. algorithm                .... NR
   White noise on init. David. guess    .... on
   Maximum white noise                  ....   0.010
   Pseudo random numbers                .... off
   Inactive MOs                         .... canonical
   Orbital update algorithm             .... Taylor
   Preconditioner                       .... Diag
   Full preconditioner red. dimension   ....   250
   COSX micro iterations for RIJONX calc.... off
 SOSCF                 CNVSOSCF           .... on
   Start iteration     SOSCFMaxIt         ....   150
   Startup grad/error  SOSCFStart         ....  0.003300
   Hessian update      SOSCFHessUp        .... L-BFGS
   Autom. constraints  SOSCFAutoConstrain .... off
 Level Shifting         CNVShift        .... on
   Level shift para.    LevelShift      ....    0.2500
   Turn off err/grad.   ShiftErr        ....    0.0010
 Zerner damping         CNVZerner       .... off
 Static damping         CNVDamp         .... on
   Fraction old density DampFac         ....    0.7000
   Max. Damping (<1)    DampMax         ....    0.9800
   Min. Damping (>=0)   DampMin         ....    0.0000
   Turn off err/grad.   DampErr         ....    0.1000

SCF Procedure:
 Maximum # iterations   MaxIter         ....   125
 SCF integral mode      SCFMode         .... Direct
   Integral package                     .... SHARK and LIBINT hybrid scheme
 Reset frequency        DirectResetFreq ....    20
 Integral Threshold     Thresh          ....  3.000e-16 Eh
 Primitive CutOff       TCut            ....  3.000e-16 Eh

Convergence Tolerance:
 Convergence Check Mode ConvCheckMode   .... All-Criteria
 Convergence forced     ConvForced      .... 0
 Energy Change          TolE            ....  1.000e-14 Eh
 Max Density Change     TolMaxP         ....  1.000e-14
 RMS Density Change     TolRMSP         ....  1.000e-14
 Orbital Gradient       TolG            ....  1.000e-09
 Orbital Rotation angle TolX            ....  1.000e-09
 DIIS Error             TolErr          ....  1.000e-14

------------------------------
INITIAL GUESS: MODEL POTENTIAL
------------------------------
Loading Hartree-Fock densities                     ... done
Calculating cut-offs                               ... done
Initializing the effective Hamiltonian             ... done
Setting up the integral package (SHARK)            ... done
Starting the Coulomb interaction                   ... done (   0.2 sec)
Making the grid                                    ... done (   0.1 sec)
Mapping shells                                     ... done
Starting the XC term evaluation                    ... done (   0.0 sec)
  promolecular density results
     # of electrons  =     47.996250833
     EX              =    -56.692866780
     EC              =     -1.650777587
     EX+EC           =    -58.343644367
Transforming the Hamiltonian                       ... done (   0.0 sec)
Diagonalizing the Hamiltonian                      ... done (   0.1 sec)
Back transforming the eigenvectors                 ... done (   0.0 sec)
Now organizing SCF variables                       ... done
                      ------------------
                      INITIAL GUESS DONE (   0.5 sec)
                      ------------------
             **** ENERGY FILE WAS UPDATED (run.en.tmp) ****
Finished Guess after   1.1 sec
Maximum memory used throughout the entire GUESS-calculation: 5.7 MB


           ************************************************************
           *        Program running with 24 parallel MPI-processes    *
           *              working on a common directory               *
           ************************************************************

-------------------------------------------------------------------------------------------
                                      ORCA LEAN-SCF
                              memory conserving SCF solver
-------------------------------------------------------------------------------------------

----------------------------------------D-I-I-S--------------------------------------------
Iteration    Energy (Eh)           Delta-E    RMSDP     MaxDP     DIISErr   Damp  Time(sec)
-------------------------------------------------------------------------------------------
               ***  Starting incremental Fock matrix formation  ***
    1    -732.5574620982206397     0.00e+00  5.64e-03  1.85e-02  6.47e-02  0.700   0.7
    2    -732.5685978794890616    -1.11e-02  5.14e-03  1.50e-02  4.49e-02  0.700   0.3
                               ***Turning on AO-DIIS***
    3    -732.5758367443590942    -7.24e-03  3.54e-03  1.10e-02  2.82e-02  0.700   0.3
    4    -732.5803895115625437    -4.55e-03  8.03e-03  2.95e-02  1.89e-02  0.000   0.3
                              *** Initializing SOSCF ***
---------------------------------------S-O-S-C-F--------------------------------------
Iteration    Energy (Eh)           Delta-E    RMSDP     MaxDP     MaxGrad    Time(sec)
--------------------------------------------------------------------------------------
    5    -732.5899963131321329    -9.61e-03  4.39e-04  1.65e-03  1.15e-03     0.3
               *** Restarting incremental Fock matrix formation ***
    6    -732.5900101247530074    -1.38e-05  1.53e-04  5.28e-04  1.74e-04     0.3
    7    -732.5900108131484103    -6.88e-07  4.15e-05  1.91e-04  8.29e-05     0.3
    8    -732.5900109302672263    -1.17e-07  1.66e-05  7.52e-05  1.59e-05     0.3
    9    -732.5900109364706623    -6.20e-09  4.49e-06  1.64e-05  6.17e-06     0.3
   10    -732.5900109377257650    -1.26e-09  7.92e-07  2.85e-06  1.25e-06     0.3
   11    -732.5900109377441822    -1.84e-11  2.59e-07  1.14e-06  2.65e-07     0.3
   12    -732.5900109377464560    -2.27e-12  3.22e-08  1.26e-07  3.00e-08     0.3
   13    -732.5900109377469107    -4.55e-13  1.44e-08  8.65e-08  1.79e-08     0.3
   14    -732.5900109377475928    -6.82e-13  1.47e-09  5.53e-09  1.79e-09     0.3
   15    -732.5900109377485023    -9.09e-13  0.00e+00  0.00e+00  9.50e-10     0.3
                           ***RMSP convergence achieved***
                           ***MAXP convergence achieved***
                       ***Gradient convergence achieved***
                    ***Orbital Rotation convergence achieved***
   16    -732.5900109377485023     0.00e+00  0.00e+00  0.00e+00  9.50e-10     0.2
                          ***Energy convergence achieved***

               *****************************************************
               *                     SUCCESS                       *
               *           SCF CONVERGED AFTER  16 CYCLES          *
               *****************************************************

             **** ENERGY FILE WAS UPDATED (run.en.tmp) ****

----------------
TOTAL SCF ENERGY
----------------

Total Energy       :       -732.59001093774850 Eh          -19934.78766 eV

Components:
Nuclear Repulsion  :        170.92814844286016 Eh            4651.19138 eV
Electronic Energy  :       -903.51815938060872 Eh          -24585.97904 eV
One Electron Energy:      -1356.58402885472242 Eh          -36914.52812 eV
Two Electron Energy:        453.06586947411370 Eh           12328.54908 eV

Virial components:
Potential Energy   :      -1462.80954591687123 Eh          -39805.07140 eV
Kinetic Energy     :        730.21953497912261 Eh           19870.28373 eV
Virial Ratio       :          2.00324625108625

DFT components:
N(Alpha)           :       24.000002654163 electrons
N(Beta)            :       24.000002654163 electrons
N(Total)           :       48.000005308325 electrons
E(X)               :      -57.601249802955 Eh       
E(C)               :       -1.589131262290 Eh       
E(XC)              :      -59.190381065245 Eh       

---------------
SCF CONVERGENCE
---------------

  Last Energy change         ...    0.0000e+00  Tolerance :   1.0000e-14
  Last MAX-Density change    ...    0.0000e+00  Tolerance :   1.0000e-14
  Last RMS-Density change    ...    0.0000e+00  Tolerance :   1.0000e-14
  Last DIIS Error            ...    1.1535e-03  Tolerance :   1.0000e-14
  Last Orbital Gradient      ...    9.4980e-10  Tolerance :   1.0000e-09
  Last Orbital Rotation      ...    0.0000e+00  Tolerance :   1.0000e-09


----------------
ORBITAL ENERGIES
----------------

  NO   OCC          E(Eh)            E(eV) 
   0   2.0000     -55.783015     -1517.9330 
   1   2.0000     -55.783000     -1517.9326 
   2   2.0000     -55.781868     -1517.9018 
   3   2.0000      -4.081075      -111.0517 
   4   2.0000      -4.081053      -111.0511 
   5   2.0000      -4.079872      -111.0190 
   6   2.0000      -2.621448       -71.3332 
   7   2.0000      -2.621413       -71.3323 
   8   2.0000      -2.620387       -71.3043 
   9   2.0000      -2.619579       -71.2824 
  10   2.0000      -2.619501       -71.2802 
  11   2.0000      -2.618186       -71.2445 
  12   2.0000      -2.614277       -71.1381 
  13   2.0000      -2.614253       -71.1374 
  14   2.0000      -2.613079       -71.1055 
  15   2.0000      -0.503508       -13.7011 
  16   2.0000      -0.412190       -11.2163 
  17   2.0000      -0.409646       -11.1470 
  18   2.0000      -0.327337        -8.9073 
  19   2.0000      -0.321040        -8.7359 
  20   2.0000      -0.308663        -8.3991 
  21   2.0000      -0.300272        -8.1708 
  22   2.0000      -0.288636        -7.8542 
  23   2.0000      -0.282184        -7.6786 
  24   0.0000      -0.044120        -1.2006 
  25   0.0000      -0.037718        -1.0264 
  26   0.0000      -0.037297        -1.0149 
  27   0.0000      -0.011126        -0.3027 
  28   0.0000       0.025451         0.6926 
  29   0.0000       0.037765         1.0276 
  30   0.0000       0.040092         1.0910 
  31   0.0000       0.063311         1.7228 
  32   0.0000       0.069852         1.9008 
  33   0.0000       0.105501         2.8708 
  34   0.0000       0.144506         3.9322 
*Only the first 10 virtual orbitals were printed.
-------
TIMINGS
-------

Total SCF time: 0 days 0 hours 0 min 5 sec 

Total time                  ....       5.885 sec
Sum of individual times     ....       5.546 sec  ( 94.2%)

SCF preparation             ....       0.536 sec  (  9.1%)
Fock matrix formation       ....       4.549 sec  ( 77.3%)
  Startup                   ....       0.007 sec  (  0.2% of F)
  Split-RI-J                ....       0.627 sec  ( 13.8% of F)
  XC integration            ....       3.897 sec  ( 85.7% of F)
    XC Preparation          ....       0.000 sec  (  0.0% of XC)
    Basis function eval.    ....       0.626 sec  ( 16.1% of XC)
    Density eval.           ....       1.241 sec  ( 31.9% of XC)
    XC-Functional eval.     ....       0.564 sec  ( 14.5% of XC)
    XC-Potential eval.      ....       0.759 sec  ( 19.5% of XC)
Diagonalization             ....       0.000 sec  (  0.0%)
Density matrix formation    ....       0.071 sec  (  1.2%)
Total Energy calculation    ....       0.038 sec  (  0.6%)
Population analysis         ....       0.000 sec  (  0.0%)
Orbital Transformation      ....       0.025 sec  (  0.4%)
Orbital Orthonormalization  ....       0.000 sec  (  0.0%)
DIIS solution               ....       0.153 sec  (  2.6%)
SOSCF solution              ....       0.174 sec  (  3.0%)
Finished LeanSCF after   5.9 sec

Maximum memory used throughout the entire LEANSCF-calculation: 6.0 MB


           ************************************************************
           *        Program running with 24 parallel MPI-processes    *
           *              working on a common directory               *
           ************************************************************

------------------------------------------------------------------------------
                         ORCA PROPERTY INTEGRAL CALCULATIONS
------------------------------------------------------------------------------

GBWName                                   ... run.gbw
Number of atoms                           ...     12
Number of basis functions                 ...    111
Max core memory                           ...   4096 MB

Dipole integrals                          ... YES
Quadrupole integrals                      ...  NO
Linear momentum integrals                 ...  NO
Angular momentum integrals                ...  NO
Higher moments length integrals           ...  NO
Higher moments velocity integrals         ...  NO
Kinetic energy integrals                  ...  NO
GIAO right hand sides                     ...  NO
GIAO dipole derivative integrals          ...  NO
SOC integrals                             ...  NO
EPR diamagnetic integrals (GIAO)          ...  NO
EPR gauge integrals                       ...  NO
Field gradient integrals                  ...  NO (   0 nuclei)
Spin-dipole/Fermi contact integrals       ...  NO (   0 nuclei)
Contact density integrals                 ...  NO (   0 nuclei)
Nucleus-orbit integrals                   ...  NO (   0 nuclei)
Geometric perturbations                   ...  NO (  12 nuclei)

Choice of electric origin   ... Center of mass
Position of electric origin ... (  0.0166,  0.0014,  3.1811) 
Choice of magnetic origin   ... GIAO
Position of magnetic origin ... (  0.0000,  0.0000,  0.0000) 

Calculating integrals                     ... Electric Dipole (Length)     done (  0.0 sec)

Property integrals calculated in   0.0 sec

Maximum memory used throughout the entire PROPINT-calculation: 5.9 MB


-------------------------------------------------------------------------------
                          DFT DISPERSION CORRECTION                            
                                                                               
                                DFTD4 V3.4.0                                   
-------------------------------------------------------------------------------
The R2SCAN3C composite method is recognized
Using three-body term ABC
Active option DFTDOPT                   ...         5   

-------------------------   ----------------
Dispersion correction           -0.002671775
-------------------------   ----------------

------------------   -----------------
gCP correction             0.001020898
------------------   -----------------

-------------------------   --------------------
FINAL SINGLE POINT ENERGY      -732.591661814529
-------------------------   --------------------



           ************************************************************
           *        Program running with 24 parallel MPI-processes    *
           *              working on a common directory               *
           ************************************************************
------------------------------------------------------------------------------
                         ORCA SCF GRADIENT CALCULATION
------------------------------------------------------------------------------

Nuc. rep. gradient        (SHARK) ... done (  0.0 sec)
HCore & Overlap gradient  (SHARK) ... done (  0.1 sec)
Split-RIJ-J gradient      (SHARK) ... done (  0.5 sec)
XC gradient                       ... done (  1.1 sec)
Dispersion correction             ... done (  0.2 sec)

-------------------
DISPERSION GRADIENT
-------------------

   1   Al  :   -0.000007965    0.000044641    0.000026695
   2   Al  :   -0.000000249    0.000000031   -0.000050844
   3   H   :    0.000006294   -0.000014599   -0.000008532
   4   H   :   -0.000013790   -0.000009120   -0.000038578
   5   H   :   -0.000006415    0.000014684   -0.000008575
   6   H   :   -0.000018215    0.000030807    0.000021160
   7   H   :    0.000000012    0.000000015    0.000021218
   8   H   :    0.000013407    0.000009023   -0.000038695
   9   Al  :    0.000008167   -0.000044590    0.000026877
  10   H   :    0.000018518   -0.000030719    0.000021175
  11   H   :   -0.000013717   -0.000036184    0.000014183
  12   H   :    0.000013952    0.000036010    0.000013915

Difference to translation invariance:
           :   -0.0000000000    0.0000000000   -0.0000000000

Difference to rotation invariance:
           :   -0.0000000000   -0.0000000000    0.0000000000

Norm of the Dispersion gradient    ...    0.0001400168
RMS gradient                       ...    0.0000233361
MAX gradient                       ...    0.0000508437
gCP correction                   ... done

------------------
CARTESIAN GRADIENT
------------------

   1   Al  :    0.001300156   -0.000322103   -0.000693554
   2   Al  :   -0.000003640    0.000002220    0.000711011
   3   H   :    0.002854569   -0.000642062   -0.000621186
   4   H   :   -0.001903640   -0.001467756   -0.001007224
   5   H   :   -0.002865236    0.000656804   -0.000604146
   6   H   :   -0.002182697    0.000895781    0.001074742
   7   H   :   -0.000035756   -0.000003644    0.002596556
   8   H   :    0.001901254    0.001465458   -0.001020212
   9   Al  :   -0.001286293    0.000316356   -0.000667262
  10   H   :    0.002202110   -0.000866785    0.001057354
  11   H   :   -0.002319134   -0.001184751   -0.000398506
  12   H   :    0.002338307    0.001150481   -0.000427571

Difference to translation invariance:
           :   -0.0000000000   -0.0000000000   -0.0000000000

Difference to rotation invariance:
           :    0.0000004221    0.0000005326    0.0000137539

Norm of the Cartesian gradient     ...    0.0084040253
RMS gradient                       ...    0.0014006709
MAX gradient                       ...    0.0028652360

-------
TIMINGS
-------

Total SCF gradient time     ....        1.900 sec

Densities                   ....       0.001 sec  (  0.0%)
One electron gradient       ....       0.069 sec  (  3.6%)
RI-J Coulomb gradient       ....       0.464 sec  ( 24.4%)
XC gradient                 ....       1.082 sec  ( 56.9%)

Maximum memory used throughout the entire SCFGRAD-calculation: 25.6 MB
------------------------------------------------------------------------------
                         ORCA GEOMETRY RELAXATION STEP
------------------------------------------------------------------------------

Reading the OPT-File                    .... done
Getting information on internals        .... done
Copying old internal coords+grads       .... done
Making the new internal coordinates     .... (2022 redundants) done
Validating the new internal coordinates .... (2022 redundants) done
Calculating the B-matrix                .... done
Calculating the G,G- and P matrices     .... done
Transforming gradient to internals      .... done
Projecting the internal gradient        .... done
Number of atoms                         ....  12
Number of internal coordinates          .... 117
Current Energy                          ....  -732.591661815 Eh
Current gradient norm                   ....     0.008404025 Eh/bohr
Maximum allowed component of the step   ....  0.300
Current trust radius                    ....  0.300
Evaluating the initial hessian          ....  (Almloef) done
Projecting the Hessian                  .... done
Forming the augmented Hessian           .... done
Diagonalizing the augmented Hessian     .... done
Last element of RFO vector              ....  0.999621535
Lowest eigenvalues of augmented Hessian:
 -0.000187140  0.018991932  0.022454310  0.032494243  0.059300209
Length of the computed step             ....  0.027520186
The final length of the internal step   ....  0.027520186
Converting the step to Cartesian space:
 Initial RMS(Int)=    0.0025442421
Transforming coordinates:
 Iter   0:  RMS(Cart)=    0.0043448148 RMS(Int)=    0.0025452536
done
Storing new coordinates                 .... done

                                .--------------------.
          ----------------------|Geometry convergence|-------------------------
          Item                value                   Tolerance       Converged
          ---------------------------------------------------------------------
          RMS gradient        0.0007092148            0.0000080000      NO
          MAX gradient        0.0026366781            0.0000300000      NO
          RMS step            0.0025442421            0.0001000000      NO
          MAX step            0.0064943855            0.0002000000      NO
          -------------------------------------------------------------------------
          ........................................................
          Max(Bonds)      0.0034      Max(Angles)    0.23
          Max(Dihed)        0.26      Max(Improp)    0.00
          ---------------------------------------------------------------------

The optimization has not yet converged - more geometry cycles are needed


    ---------------------------------------------------------------------------
                         Redundant Internal Coordinates
                            (Angstroem and degrees)

        Definition                    Value    dE/dq     Step     New-Value
    ----------------------------------------------------------------------------
     1. B(Al  1,Al  0)                3.0622  0.000614 -0.0024    3.0599   
     2. B(H   2,Al  1)                1.7226  0.000958 -0.0031    1.7196   
     3. B(H   3,Al  1)                1.5864  0.002602 -0.0034    1.5831   
     4. B(H   4,Al  1)                1.7227  0.001061 -0.0031    1.7196   
     5. B(H   4,Al  0)                1.7220  0.001157 -0.0031    1.7190   
     6. B(H   5,Al  0)                1.5868  0.002579 -0.0034    1.5835   
     7. B(H   6,Al  0)                1.7159  0.001236 -0.0031    1.7128   
     8. B(H   7,Al  1)                1.5864  0.002603 -0.0034    1.5830   
     9. B(Al  8,H   6)                1.7159  0.001210 -0.0031    1.7129   
    10. B(Al  8,H   2)                1.7220  0.001060 -0.0031    1.7189   
    11. B(Al  8,Al  1)                3.0659  0.000659 -0.0025    3.0635   
    12. B(Al  8,Al  0)                3.0732  0.000862 -0.0034    3.0699   
    13. B(H   9,Al  8)                1.5868  0.002578 -0.0034    1.5835   
    14. B(H  10,Al  8)                1.5874  0.002630 -0.0034    1.5840   
    15. B(H  11,Al  0)                1.5875  0.002637 -0.0034    1.5840   
    16. A(H   4,Al  0,H   6)           98.09  0.000546   -0.05     98.03   
    17. A(Al  1,Al  0,H   4)           27.26  0.000448   -0.11     27.15   
    18. A(Al  1,Al  0,Al  8)           59.96 -0.000016    0.01     59.97   
    19. A(Al  8,Al  0,H  11)          103.57  0.000137   -0.03    103.53   
    20. A(H   4,Al  0,H   5)          104.41 -0.000575    0.12    104.53   
    21. A(H   6,Al  0,H  11)          106.77  0.000173   -0.06    106.70   
    22. A(Al  1,Al  0,H   5)          131.50 -0.000132    0.00    131.51   
    23. A(Al  1,Al  0,H  11)           88.79  0.000041    0.04     88.82   
    24. A(H   5,Al  0,H  11)          128.88  0.000059   -0.01    128.87   
    25. A(H   5,Al  0,H   6)          105.88 -0.000393    0.07    105.95   
    26. A(H   4,Al  0,Al  8)           74.24  0.000217   -0.01     74.23   
    27. A(Al  1,Al  0,H   6)           86.38  0.000442   -0.07     86.31   
    28. A(H   5,Al  0,Al  8)          122.51 -0.000128    0.01    122.52   
    29. A(H   4,Al  0,H  11)          108.63  0.000336   -0.07    108.56   
    30. A(H   6,Al  0,Al  8)           26.43  0.000458   -0.08     26.35   
    31. A(H   2,Al  1,H   7)          104.77 -0.000365    0.07    104.84   
    32. A(H   3,Al  1,H   4)          104.76 -0.000411    0.08    104.84   
    33. A(Al  0,Al  1,H   3)          127.35 -0.000015   -0.04    127.31   
    34. A(H   2,Al  1,H   4)           95.84  0.000678   -0.12     95.72   
    35. A(H   4,Al  1,Al  8)           74.44  0.000280   -0.03     74.41   
    36. A(H   3,Al  1,Al  8)           98.64 -0.000094    0.04     98.68   
    37. A(H   2,Al  1,H   3)          109.39  0.000055   -0.02    109.37   
    38. A(H   2,Al  1,Al  8)           27.11  0.000391   -0.11     27.00   
    39. A(Al  0,Al  1,Al  8)           60.20  0.000045   -0.02     60.18   
    40. A(H   7,Al  1,Al  8)          127.35 -0.000035   -0.03    127.32   
    41. A(Al  0,Al  1,H   4)           27.25  0.000463   -0.11     27.14   
    42. A(H   4,Al  1,H   7)          109.39  0.000104   -0.02    109.36   
    43. A(Al  0,Al  1,H   7)           98.73 -0.000094    0.05     98.78   
    44. A(Al  0,Al  1,H   2)           74.23  0.000251   -0.04     74.19   
    45. A(H   3,Al  1,H   7)          128.07  0.000132   -0.02    128.05   
    46. A(Al  1,H   2,Al  8)          125.76 -0.000766    0.22    125.98   
    47. A(Al  0,H   4,Al  1)          125.49 -0.000910    0.23    125.71   
    48. A(Al  0,H   6,Al  8)          127.15 -0.000921    0.16    127.31   
    49. A(Al  1,Al  8,H   2)           27.12  0.000375   -0.11     27.01   
    50. A(Al  0,Al  8,H   2)           73.91  0.000176   -0.01     73.90   
    51. A(Al  0,Al  8,Al  1)           59.84 -0.000029    0.01     59.85   
    52. A(H   6,Al  8,H  10)          106.67  0.000177   -0.06    106.61   
    53. A(H   2,Al  8,H  10)          108.66  0.000168   -0.06    108.60   
    54. A(Al  1,Al  8,H  10)           89.05 -0.000053    0.03     89.08   
    55. A(Al  0,Al  8,H  10)          104.32  0.000119   -0.03    104.29   
    56. A(H   6,Al  8,H   9)          105.97 -0.000304    0.06    106.03   
    57. A(H   9,Al  8,H  10)          128.87  0.000067   -0.01    128.86   
    58. A(H   2,Al  8,H   9)          104.38 -0.000500    0.12    104.50   
    59. A(Al  1,Al  8,H   9)          131.31 -0.000128    0.00    131.31   
    60. A(Al  0,Al  8,H   9)          121.88 -0.000060    0.01    121.89   
    61. A(H   2,Al  8,H   6)           98.12  0.000540   -0.06     98.06   
    62. A(Al  1,Al  8,H   6)           86.26  0.000433   -0.07     86.19   
    63. A(Al  0,Al  8,H   6)           26.42  0.000462   -0.08     26.34   
    64. D(H   2,Al  1,Al  0,H   4)   -141.21 -0.000252   -0.01   -141.22   
    65. D(H   3,Al  1,Al  0,H   6)     76.90 -0.000100    0.07     76.97   
    66. D(H   3,Al  1,Al  0,H   5)    -31.17  0.000059    0.05    -31.12   
    67. D(H   3,Al  1,Al  0,Al  8)     77.33 -0.000086    0.07     77.40   
    68. D(H   2,Al  1,Al  0,Al  8)    -25.29 -0.000338    0.12    -25.17   
    69. D(H   3,Al  1,Al  0,H   4)    -38.59 -0.000000   -0.06    -38.65   
    70. D(H   2,Al  1,Al  0,H   6)    -25.72 -0.000351    0.12    -25.60   
    71. D(H   2,Al  1,Al  0,H   5)   -133.79 -0.000192    0.10   -133.70   
    72. D(H   2,Al  1,Al  0,H  11)     81.16 -0.000198    0.06     81.22   
    73. D(H   3,Al  1,Al  0,H  11)   -176.22  0.000053    0.01   -176.21   
    74. D(Al  8,H   2,Al  1,H   7)    149.52  0.000022   -0.05    149.47   
    75. D(Al  8,H   2,Al  1,H   3)    -70.23 -0.000071   -0.03    -70.26   
    76. D(Al  8,H   2,Al  1,Al  0)     54.44 -0.000033   -0.08     54.36   
    77. D(Al  8,H   2,Al  1,H   4)     37.68 -0.000230   -0.00     37.68   
    78. D(Al  1,H   4,Al  0,H   5)   -174.27  0.000043    0.09   -174.18   
    79. D(Al  0,H   4,Al  1,H   7)    -70.61 -0.000033   -0.05    -70.66   
    80. D(Al  0,H   4,Al  1,Al  8)     54.11 -0.000015   -0.09     54.02   
    81. D(Al  0,H   4,Al  1,H   3)    149.15  0.000058   -0.08    149.08   
    82. D(Al  0,H   4,Al  1,H   2)     37.31 -0.000132   -0.03     37.27   
    83. D(Al  1,H   4,Al  0,H  11)     45.32  0.000174    0.06     45.38   
    84. D(Al  1,H   4,Al  0,Al  8)    -54.01  0.000039    0.08    -53.93   
    85. D(Al  1,H   4,Al  0,H   6)    -65.50 -0.000336    0.17    -65.33   
    86. D(Al  8,H   6,Al  0,H   4)     25.52  0.000470   -0.14     25.38   
    87. D(Al  8,H   6,Al  0,Al  1)      0.83  0.000013   -0.00      0.83   
    88. D(Al  8,H   6,Al  0,H   5)    133.08 -0.000050   -0.01    133.07   
    89. D(Al  8,H   6,Al  0,H  11)    -86.81 -0.000151   -0.02    -86.83   
    90. D(Al  1,Al  8,Al  0,H  11)    -80.52  0.000042   -0.07    -80.59   
    91. D(Al  1,Al  8,Al  0,H   6)    179.04 -0.000015    0.00    179.04   
    92. D(Al  1,Al  8,Al  0,H   5)    122.63 -0.000132    0.00    122.63   
    93. D(H   2,Al  8,Al  0,Al  1)     25.35  0.000333   -0.13     25.22   
    94. D(Al  1,Al  8,Al  0,H   4)     25.35  0.000402   -0.13     25.22   
    95. D(H   9,Al  8,H   6,Al  0)    131.19 -0.000058   -0.01    131.18   
    96. D(H   2,Al  8,H   6,Al  0)     23.63  0.000362   -0.12     23.50   
    97. D(Al  1,Al  8,H   6,Al  0)     -0.83 -0.000013    0.00     -0.83   
    98. D(H  10,Al  8,H   2,Al  1)     45.77  0.000205    0.04     45.80   
    99. D(H   9,Al  8,H   2,Al  1)   -173.85  0.000010    0.07   -173.77   
   100. D(H   6,Al  8,H   2,Al  1)    -64.97 -0.000259    0.14    -64.83   
   101. D(H   6,Al  8,Al  1,H   2)    115.98 -0.000031    0.11    116.09   
   102. D(H   6,Al  8,Al  1,Al  0)      0.43  0.000014   -0.00      0.43   
   103. D(H   2,Al  8,Al  1,H   7)    -38.10 -0.000026   -0.03    -38.13   
   104. D(H   2,Al  8,Al  1,H   4)   -140.86 -0.000363    0.02   -140.85   
   105. D(H   2,Al  8,Al  1,H   3)    116.12  0.000017   -0.05    116.07   
   106. D(H   2,Al  8,Al  1,Al  0)   -115.55  0.000045   -0.11   -115.67   
   107. D(Al  0,Al  8,Al  1,H   7)     77.46 -0.000071    0.08     77.54   
   108. D(Al  0,Al  8,Al  1,H   4)    -25.31 -0.000408    0.13    -25.18   
   109. D(Al  0,Al  8,H   2,Al  1)    -54.28  0.000064    0.06    -54.22   
   110. D(Al  0,Al  8,Al  1,H   3)   -128.33 -0.000029    0.06   -128.26   
   111. D(Al  0,Al  8,Al  1,H   2)    115.55 -0.000045    0.11    115.67   
   112. D(H   6,Al  8,Al  0,Al  1)   -179.04  0.000015   -0.00   -179.04   
   113. D(H   2,Al  8,Al  0,H  11)    -55.17  0.000375   -0.19    -55.36   
   114. D(H   2,Al  8,Al  0,H   6)   -155.61  0.000317   -0.12   -155.74   
   115. D(H   2,Al  8,Al  0,H   5)    147.98  0.000201   -0.12    147.85   
   116. D(H  10,Al  8,H   6,Al  0)    -88.72 -0.000074   -0.02    -88.73   
   117. D(H   2,Al  8,Al  0,H   4)     50.70  0.000735   -0.26     50.44   
    ----------------------------------------------------------------------------

Geometry step timings:
Preparation and reading OPT file:      0.000 s ( 0.129 %)
Internal coordinates            :      0.000 s ( 0.167 %)
B/P matrices and projection     :      0.003 s ( 8.881 %)
Hessian update/contruction      :      0.002 s ( 5.381 %)
Making the step                 :      0.025 s (81.187 %)
Converting the step to Cartesian:      0.000 s ( 1.216 %)
Storing new data                :      0.000 s ( 0.183 %)
Checking convergence            :      0.000 s ( 0.183 %)
Final printing                  :      0.001 s ( 2.663 %)
Total time                      :      0.031 s

Time for energy+gradient        :     17.409 s
Time for complete geometry iter :     18.174 s

         *************************************************************
         *                GEOMETRY OPTIMIZATION CYCLE   2            *
         *************************************************************
---------------------------------
CARTESIAN COORDINATES (ANGSTROEM)
---------------------------------
  Al    -0.229962    1.516923    2.564715
  Al     0.000119   -0.000533   -0.082401
  H      0.868520   -0.935210    1.070487
  H     -1.102672   -0.905489   -0.768664
  H     -0.858819    0.940907    1.072206
  H     -1.471626    2.180931    3.289129
  H      0.004109    0.000953    3.326731
  H      1.097120    0.900585   -0.782796
  Al     0.256151   -1.514201    2.568662
  H      1.511179   -2.159161    3.287228
  H     -1.177453   -2.140403    2.320248
  H      1.210275    2.123007    2.304813

----------------------------
CARTESIAN COORDINATES (A.U.)
----------------------------
  NO LB      ZA    FRAG     MASS         X           Y           Z
   0 Al   13.0000    0    26.982   -0.434565    2.866568    4.846610
   1 Al   13.0000    0    26.982    0.000224   -0.001007   -0.155715
   2 H     1.0000    0     1.008    1.641265   -1.767290    2.022927
   3 H     1.0000    0     1.008   -2.083749   -1.711126   -1.452564
   4 H     1.0000    0     1.008   -1.622932    1.778057    2.026175
   5 H     1.0000    0     1.008   -2.780971    4.121362    6.215553
   6 H     1.0000    0     1.008    0.007764    0.001801    6.286611
   7 H     1.0000    0     1.008    2.073256    1.701859   -1.479269
   8 Al   13.0000    0    26.982    0.484055   -2.861425    4.854067
   9 H     1.0000    0     1.008    2.855715   -4.080223    6.211961
  10 H     1.0000    0     1.008   -2.225063   -4.044775    4.384634
  11 H     1.0000    0     1.008    2.287088    4.011902    4.355466

--------------------------------
INTERNAL COORDINATES (ANGSTROEM)
--------------------------------
 Al     0   0   0     0.000000000000     0.00000000     0.00000000
 Al     1   0   0     3.059874456971     0.00000000     0.00000000
 H      2   1   0     1.719561393667    74.18808279     0.00000000
 H      2   1   3     1.583051105668   127.31111052   102.57136700
 H      1   2   3     1.718964770448    27.15063767   218.77859830
 H      1   2   3     1.583481517395   131.50522278   226.30455209
 H      1   2   3     1.712781375494    86.31184249   334.40187076
 H      2   1   3     1.583027704572    98.77578455   256.96238961
 Al     7   1   2     1.712859095456   127.31083016     0.83047145
 H      9   7   1     1.583479847889   106.02649660   131.18320452
 H      9   7   1     1.584000351275   106.61448949   271.26820109
 H      1   2   3     1.584035726201    88.82188696    81.22269997

---------------------------
INTERNAL COORDINATES (A.U.)
---------------------------
 Al     0   0   0     0.000000000000     0.00000000     0.00000000
 Al     1   0   0     5.782324727857     0.00000000     0.00000000
 H      2   1   0     3.249500104495    74.18808279     0.00000000
 H      2   1   3     2.991533045713   127.31111052   102.57136700
 H      1   2   3     3.248372650005    27.15063767   218.77859830
 H      1   2   3     2.992346406003   131.50522278   226.30455209
 H      1   2   3     3.236687726965    86.31184249   334.40187076
 H      2   1   3     2.991488824051    98.77578455   256.96238961
 Al     7   1   2     3.236834596407   127.31083016     0.83047145
 H      9   7   1     2.992343251093   106.02649660   131.18320452
 H      9   7   1     2.993326859944   106.61448949   271.26820109
 H      1   2   3     2.993393708867    88.82188696    81.22269997



           ************************************************************
           *        Program running with 24 parallel MPI-processes    *
           *              working on a common directory               *
           ************************************************************
------------------------------------------------------------------------------
                   ___                                                        
                  /   \      - P O W E R E D   B Y -                         
                 /     \                                                     
                 |  |  |   _    _      __       _____    __    __             
                 |  |  |  | |  | |    /  \     |  _  \  |  |  /  |          
                  \  \/   | |  | |   /    \    | | | |  |  | /  /          
                 / \  \   | |__| |  /  /\  \   | |_| |  |  |/  /          
                |  |  |   |  __  | /  /__\  \  |    /   |      \           
                |  |  |   | |  | | |   __   |  |    \   |  |\   \          
                \     /   | |  | | |  |  |  |  | |\  \  |  | \   \       
                 \___/    |_|  |_| |__|  |__|  |_| \__\ |__|  \__/        
                                                                              
                      - O R C A' S   B I G   F R I E N D -                    
                                      &                                       
                       - I N T E G R A L  F E E D E R -                       
                                                                              
 v1 FN, 2020, v2 2021, v3 2022-2024                                           
------------------------------------------------------------------------------


----------------------
SHARK INTEGRAL PACKAGE
----------------------

Number of atoms                             ...     12
Number of basis functions                   ...    111
Number of shells                            ...     57
Maximum angular momentum                    ...      2
Integral batch strategy                     ... SHARK/LIBINT Hybrid
RI-J (if used) integral strategy            ... SPLIT-RIJ (Revised 2003 algorithm where possible)
Printlevel                                  ...      1
Contraction scheme used                     ... SEGMENTED contraction
Prescreening option                         ... SCHWARTZ
   Thresh                                   ... 3.000e-16
   Tcut                                     ... 3.000e-16
   Tpresel                                  ... 3.000e-16 
Coulomb Range Separation                    ... NOT USED
Exchange Range Separation                   ... NOT USED
Multipole approximations                    ... NOT USED
Finite Nucleus Model                        ... NOT USED
CABS basis                                  ... NOT available
Auxiliary Coulomb fitting basis             ... AVAILABLE
   # of basis functions in Aux-J            ...    204
   # of shells in Aux-J                     ...     90
   Maximum angular momentum in Aux-J        ...      2
Auxiliary J/K fitting basis                 ... NOT available
Auxiliary Correlation fitting basis         ... NOT available
Auxiliary 'external' fitting basis          ... NOT available

Checking pre-screening integrals            ... done (  0.0 sec) Dimension = 57
   => SHARK Basis and OBASIS are compatible. Storing Pre-screening
Shell pair information
Shell pair cut-off parameter TPreSel        ...   3.0e-16
Total number of shell pairs                 ...      1653
Shell pairs after pre-screening             ...      1584
Total number of primitive shell pairs       ...      7050
Primitive shell pairs kept                  ...      4985
          la=0 lb=0:    541 shell pairs
          la=1 lb=0:    658 shell pairs
          la=1 lb=1:    217 shell pairs
          la=2 lb=0:     99 shell pairs
          la=2 lb=1:     63 shell pairs
          la=2 lb=2:      6 shell pairs

Checking whether 4 symmetric matrices of dimension 111 fit in memory
:Max Core in MB      =   4096.00
 MB in use           =      3.52
 MB left             =   4092.48
 MB needed           =      0.19
 Data fit in memory  = YES
Calculating RI/J V-Matrix + Cholesky decomp.... done (  0.0 sec)
Calculating Nuclear repulsion               ... done (  0.0 sec) ENN=    171.148552805265 Eh

Diagonalization of the overlap matrix:
Smallest eigenvalue                        ... 9.726e-03
Time for diagonalization                   ...    0.004 sec
Threshold for overlap eigenvalues          ... 1.000e-07
Number of eigenvalues below threshold      ... 0
Time for construction of square roots      ...    0.002 sec
Total time needed                          ...    0.008 sec

-------------------
DFT GRID GENERATION
-------------------

General Integration Accuracy     IntAcc      ... 4.959
Radial Grid Type                 RadialGrid  ... OptM3 with GC (2021)
Angular Grid (max. ang.)         AngularGrid ... 6 (Lebedev-590)
Angular grid pruning method      GridPruning ... 4 (adaptive)
Weight generation scheme         WeightScheme... mBecke (2022)
Basis function cutoff            BFCut       ... 3.0000e-16
Integration weight cutoff        WCut        ... 1.0000e-14
Partially contracted basis set               ... off
Rotationally invariant grid construction     ... off
Angular grids for H and He will be reduced by one unit

Total number of grid points                  ...   128048
Total number of batches                      ...     2007
Average number of points per batch           ...       63
Average number of grid points per atom       ...    10671
Grids setup in   2.6 sec
Initializing property integral containers    ... done (  0.0 sec)

SHARK setup successfully completed in   2.7 seconds

Maximum memory used throughout the entire STARTUP-calculation: 25.1 MB


[...]
                 30         31         32         33         34         35    
      0       0.005929  -0.005110  -0.008996   0.029744   0.021666  -0.021917
      1       0.013024  -0.003079  -0.005793  -0.002463  -0.002051  -0.000582
      2       0.002879   0.003934  -0.002944  -0.010041  -0.008498   0.007113
      3      -0.000168  -0.000332   0.005357   0.000762  -0.025837  -0.027522
      4      -0.000141  -0.000167   0.008425   0.000517  -0.016615  -0.019675
      5      -0.010485  -0.013997   0.000071  -0.000963   0.000358   0.000300
      6       0.003890  -0.018590   0.012089  -0.010650   0.003329  -0.004527
      7      -0.033484   0.109756  -0.070189   0.026273  -0.032868  -0.000171
      8       0.059364  -0.194370   0.117897  -0.048345   0.052528  -0.002858
      9       0.197663   0.459034  -0.110142   0.047759   0.336931   0.370849
     10       0.140489   0.330139  -0.075277   0.035364   0.243467   0.264396
     11       0.112831   0.269495  -0.064316   0.026757   0.205168   0.218619
     12      -0.003396   0.016918   0.010071   0.010127   0.003055  -0.004622
     13       0.034121  -0.112220  -0.065934  -0.025472  -0.032369   0.000509
     14       0.060283  -0.197601  -0.110245  -0.046753  -0.051637   0.004172
     15       0.309266  -0.053267  -0.255177  -0.462264  -0.400670   0.282020
     16      -0.147343   0.026501   0.127498   0.227824   0.198164  -0.137435
     17      -0.168922   0.033435   0.135454   0.255791   0.219942  -0.153205
     18      -0.000232   0.000836   0.053420  -0.000118   0.022227  -0.008251
     19       0.001788  -0.005215  -0.339772  -0.000482  -0.093975   0.022528
     20      -0.001676   0.000322   0.000332  -0.002284  -0.000017  -0.000038
     21      -0.193106  -0.450027  -0.097871  -0.067869   0.340898   0.371821
     22      -0.137227  -0.323598  -0.066396  -0.049789   0.246304   0.265070
     23       0.114278   0.273964   0.059140   0.040454  -0.215073  -0.227277
     24      -0.005554   0.005034  -0.008683  -0.030949   0.020092  -0.022090
     25      -0.013062   0.002923  -0.006166   0.002015  -0.001589  -0.000923
     26       0.002927   0.004092   0.003024  -0.010264   0.007795  -0.007090
     27      -0.310995   0.041060  -0.268475   0.482466  -0.379210   0.286616
     28       0.141765  -0.019573   0.128326  -0.227767   0.179695  -0.133749
     29      -0.167298   0.026533  -0.140633   0.262890  -0.204871   0.153233
     30       0.473634  -0.210191   0.494622   0.351114  -0.166019   0.310578
     31       0.220154  -0.096790   0.233504   0.168505  -0.079878   0.145792
     32       0.056624  -0.024461   0.062809   0.040347  -0.015770   0.036704
     33      -0.482260   0.225133   0.491306  -0.338714  -0.186723   0.310196
     34      -0.215474   0.099657   0.222844  -0.156328  -0.086363   0.140020
     35       0.059761  -0.027478  -0.064481   0.040442   0.018977  -0.037995


-----------
IR SPECTRUM
-----------

 Mode   freq       eps      Int      T**2         TX        TY        TZ
       cm**-1   L/(mol*cm) km/mol    a.u.
----------------------------------------------------------------------------
  7:    128.21   0.000217    1.10  0.000528  ( 0.001313 -0.000042 -0.022948)
  8:    155.87   0.000122    0.61  0.000243  ( 0.015061  0.004058  0.000230)
  9:    235.18   0.000470    2.38  0.000624  (-0.000130  0.000226 -0.024973)
 10:    298.52   0.002017   10.19  0.002108  ( 0.039967 -0.022588 -0.000880)
 11:    323.97   0.000060    0.30  0.000058  (-0.000084 -0.000051  0.007593)
 12:    431.52   0.000713    3.60  0.000515  (-0.018530  0.013119 -0.000178)
 13:    444.78   0.000027    0.14  0.000019  (-0.000189  0.000119  0.004344)
 14:    456.37   0.002162   10.93  0.001479  ( 0.000198 -0.000567  0.038447)
 15:    518.40   0.000288    1.46  0.000174  (-0.011382  0.006614  0.000481)
 16:    537.56   0.012604   63.70  0.007317  ( 0.065983 -0.054430 -0.000677)
 17:    597.48   0.027115  137.03  0.014162  (-0.000371 -0.000783  0.119001)
 18:    697.57   0.126951  641.56  0.056793  ( 0.007050  0.238205  0.001325)
 19:    699.04   0.099493  502.80  0.044416  ( 0.001955 -0.001358  0.210737)
 20:    737.57   0.000618    3.12  0.000261  ( 0.000359  0.000464  0.016157)
 21:    771.08   0.038903  196.60  0.015744  (-0.071900  0.102756 -0.004012)
 22:    795.25   0.035724  180.54  0.014019  ( 0.004257  0.014672  0.117410)
 23:    799.90   0.044558  225.18  0.017384  (-0.062296 -0.115747  0.010269)
 24:   1059.56   0.043568  220.17  0.012832  (-0.012546  0.003920  0.112512)
 25:   1065.88   0.051144  258.46  0.014974  ( 0.112603 -0.046527  0.011379)
 26:   1134.02   0.000071    0.36  0.000019  (-0.001910  0.000850  0.003887)
 27:   1795.07   0.005206   26.31  0.000905  (-0.004988  0.029649  0.001029)
 28:   1860.03   0.224365  1133.85  0.037643  ( 0.000899  0.001483  0.194009)
 29:   1876.97   0.226638  1145.33  0.037681  ( 0.025966 -0.192363  0.001731)
 30:   1962.98   0.001171    5.92  0.000186  ( 0.000279 -0.000420 -0.013635)
 31:   1968.07   0.000482    2.44  0.000076  (-0.000545 -0.000125  0.008727)
 32:   1969.22   0.006272   31.69  0.000994  (-0.021820  0.022753 -0.000232)
 33:   1977.25   0.004982   25.18  0.000786  (-0.000660  0.000100 -0.028034)
 34:   1977.35   0.006402   32.35  0.001010  ( 0.023021 -0.021908 -0.000585)
 35:   1984.08   0.080234  405.47  0.012619  (-0.107167 -0.033682  0.000437)

* The epsilon (eps) is given for a Dirac delta lineshape.
** The dipole moment derivative (T) already includes vibrational overlap.

--------------
RAMAN SPECTRUM  
--------------

 Mode    freq (cm**-1)   Activity   Depolarization
-------------------------------------------------------------------
   7:       128.21      1.882334      0.534340
   8:       155.87      0.780250      0.748386
   9:       235.18      6.530645      0.749958
  10:       298.52      5.268733      0.749964
  11:       323.97     12.984849      0.365955
  12:       431.52     12.797790      0.750000
  13:       444.78     11.218799      0.749594
  14:       456.37      8.709984      0.749914
  15:       518.40      2.706400      0.749980
  16:       537.56      4.697716      0.749743
  17:       597.48      2.514232      0.234742
  18:       697.57      6.947246      0.749984
  19:       699.04     19.650464      0.743693
  20:       737.57     12.227558      0.640042
  21:       771.08      9.168685      0.749999
  22:       795.25     11.912966      0.693366
  23:       799.90      5.262522      0.748609
  24:      1059.56      6.729590      0.605127
  25:      1065.88     11.609699      0.744282
  26:      1134.02    110.971795      0.054995
  27:      1795.07      4.906493      0.750000
  28:      1860.03     15.044443      0.729834
  29:      1876.97     19.804761      0.749983
  30:      1962.98    509.302849      0.017149
  31:      1968.07     52.935618      0.080276
  32:      1969.22     11.061651      0.749504
  33:      1977.25     99.045750      0.515622
  34:      1977.35     58.333969      0.748359
  35:      1984.08     36.147975      0.749966

The first frequency considered to be a vibration is 7
The total number of vibrations considered is 29


--------------------------
THERMOCHEMISTRY AT 298.15K
--------------------------

Temperature         ...   298.15 K
Pressure            ...     1.00 atm
Total Mass          ...    90.02 AMU
Quasi RRHO          ...     True
Cut-Off Frequency   ...     1.00 cm^-1

Throughout the following assumptions are being made:
  (1) The electronic state is orbitally nondegenerate
  (2) There are no thermally accessible electronically excited states
  (3) Hindered rotations indicated by low frequency modes are not
      treated as such but are treated as vibrations and this may
      cause some error
  (4) All equations used are the standard statistical mechanics
      equations for an ideal gas
  (5) All vibrations are strictly harmonic

freq.     128.21  E(vib)   ...       0.43 
freq.     155.87  E(vib)   ...       0.40 
freq.     235.18  E(vib)   ...       0.32 
freq.     298.52  E(vib)   ...       0.26 
freq.     323.97  E(vib)   ...       0.25 
freq.     431.52  E(vib)   ...       0.18 
freq.     444.78  E(vib)   ...       0.17 
freq.     456.37  E(vib)   ...       0.16 
freq.     518.40  E(vib)   ...       0.13 
freq.     537.56  E(vib)   ...       0.12 
freq.     597.48  E(vib)   ...       0.10 
freq.     697.57  E(vib)   ...       0.07 
freq.     699.04  E(vib)   ...       0.07 
freq.     737.57  E(vib)   ...       0.06 
freq.     771.08  E(vib)   ...       0.05 
freq.     795.25  E(vib)   ...       0.05 
freq.     799.90  E(vib)   ...       0.05 
freq.    1059.56  E(vib)   ...       0.02 
freq.    1065.88  E(vib)   ...       0.02 
freq.    1134.02  E(vib)   ...       0.01 
freq.    1795.07  E(vib)   ...       0.00 
freq.    1860.03  E(vib)   ...       0.00 
freq.    1876.97  E(vib)   ...       0.00 
freq.    1962.98  E(vib)   ...       0.00 
freq.    1968.07  E(vib)   ...       0.00 
freq.    1969.22  E(vib)   ...       0.00 
freq.    1977.25  E(vib)   ...       0.00 
freq.    1977.35  E(vib)   ...       0.00 
freq.    1984.08  E(vib)   ...       0.00 

------------
INNER ENERGY
------------

The inner energy is: U= E(el) + E(ZPE) + E(vib) + E(rot) + E(trans)
    E(el)   - is the total energy from the electronic structure calculation
              = E(kin-el) + E(nuc-el) + E(el-el) + E(nuc-nuc)
    E(ZPE)  - the the zero temperature vibrational energy from the frequency calculation
    E(vib)  - the the finite temperature correction to E(ZPE) due to population
              of excited vibrational states
    E(rot)  - is the rotational thermal energy
    E(trans)- is the translational thermal energy

Summary of contributions to the inner energy U:
Electronic energy                ...   -732.59219196 Eh
Zero point energy                ...      0.06665634 Eh      41.83 kcal/mol
Thermal vibrational correction   ...      0.00467026 Eh       2.93 kcal/mol
Thermal rotational correction    ...      0.00141627 Eh       0.89 kcal/mol
Thermal translational correction ...      0.00141627 Eh       0.89 kcal/mol
-----------------------------------------------------------------------
Total thermal energy                   -732.51803281 Eh


Summary of corrections to the electronic energy:
(perhaps to be used in another calculation)
Total thermal correction                  0.00750281 Eh       4.71 kcal/mol
Non-thermal (ZPE) correction              0.06665634 Eh      41.83 kcal/mol
-----------------------------------------------------------------------
Total correction                          0.07415914 Eh      46.54 kcal/mol


--------
ENTHALPY
--------

The enthalpy is H = U + kB*T
                kB is Boltzmann's constant
Total thermal energy              ...   -732.51803281 Eh 
Thermal Enthalpy correction       ...      0.00094421 Eh       0.59 kcal/mol
-----------------------------------------------------------------------
Total Enthalpy                    ...   -732.51708860 Eh


Note: Only C1 symmetry has been detected, increase convergence thresholds 
      if your molecule has a higher symmetry. Symmetry factor of 1.0 is   
      used for the rotational entropy correction. 
 

Note: Rotational entropy computed according to Herzberg 
Infrared and Raman Spectra, Chapter V,1, Van Nostrand Reinhold, 1945 
Point Group:  C1, Symmetry Number:   1  
Rotational constants in cm-1:     0.103863     0.103421     0.055715 

Vibrational entropy computed according to the QRRHO of S. Grimme
Chem.Eur.J. 2012 18 9955 using a reference frequency of 100.0 cm-1


-------
ENTROPY
-------

The entropy contributions are T*S = T*(S(el)+S(vib)+S(rot)+S(trans))
     S(el)   - electronic entropy
     S(vib)  - vibrational entropy
     S(rot)  - rotational entropy
     S(trans)- translational entropy
The entropies will be listed as multiplied by the temperature to get
units of energy

Electronic entropy                ...      0.00000000 Eh      0.00 kcal/mol
Vibrational entropy               ...      0.00753112 Eh      4.73 kcal/mol
Rotational entropy                ...      0.01301425 Eh      8.17 kcal/mol
Translational entropy             ...      0.01872231 Eh     11.75 kcal/mol
-----------------------------------------------------------------------
Final entropy term                ...      0.03926768 Eh     24.64 kcal/mol

In case the symmetry of your molecule has not been determined correctly
or in case you have a reason to use a different symmetry number we print 
out the resulting rotational entropy values for sn=1,12:

 non-linear molecules -----------------------------------
|  sn= 1 | S(rot)=       0.01301425 Eh      8.17 kcal/mol|
|  sn= 2 | S(rot)=       0.01235979 Eh      7.76 kcal/mol|
|  sn= 3 | S(rot)=       0.01197696 Eh      7.52 kcal/mol|
|  sn= 4 | S(rot)=       0.01170534 Eh      7.35 kcal/mol|
|  sn= 5 | S(rot)=       0.01149465 Eh      7.21 kcal/mol|
|  sn= 6 | S(rot)=       0.01132251 Eh      7.10 kcal/mol|
|  sn= 7 | S(rot)=       0.01117696 Eh      7.01 kcal/mol|
|  sn= 8 | S(rot)=       0.01105088 Eh      6.93 kcal/mol|
|  sn= 9 | S(rot)=       0.01093967 Eh      6.86 kcal/mol|
|  sn=10 | S(rot)=       0.01084019 Eh      6.80 kcal/mol|
|  sn=11 | S(rot)=       0.01075020 Eh      6.75 kcal/mol|
|  sn=12 | S(rot)=       0.01066805 Eh      6.69 kcal/mol|
 linear molecules ---------------------------------------
|  Dinfh | S(rot)=       0.00805213 Eh      5.05 kcal/mol|
|  Cinfv | S(rot)=       0.00870658 Eh      5.46 kcal/mol|
 --------------------------------------------------------


-------------------
GIBBS FREE ENERGY
-------------------

The Gibbs free energy is G = H - T*S

Total enthalpy                    ...   -732.51708860 Eh 
Total entropy correction          ...     -0.03926768 Eh    -24.64 kcal/mol
-----------------------------------------------------------------------
Final Gibbs free energy         ...   -732.55635628 Eh

For completeness - the Gibbs free energy minus the electronic energy
G-E(el)                           ...      0.03583568 Eh     22.49 kcal/mol


Maximum memory used throughout the entire PROP-calculation: 25.9 MB

--------------------------------
SUGGESTED CITATIONS FOR THIS RUN
--------------------------------

Below you find a list of papers that are relevant to this ORCA run
We neither can nor want to force you to cite these papers, but we appreciate if you do
You receive ORCA, which is the product of decades of hard work by many enthusiastic individuals, for free
The only thing we kindly ask in return is that you cite our papers,
We deeply appreciate it, if you show your appreciation for ORCA by not just citing the generic ORCA reference.

Please note that relegating all ORCA citations to the supporting information does *not* help us.
SI sections are not indexed - citations you put there will not count into any citation statistics
But we need these citations in order to attract the funding resources that allow us to do what we are doing

Therefore, if you are a happy ORCA user, please consider citing a few of the papers listed below in the main body of your paper

In addition to the list printed below, the program has created the file run.bibtex that contains the list in bibtex format
You can import this file easily into all common literature databanks and citation aid programs


List of essential papers. We consider these as the minimum necessary citations

  1. Grimme, S.; Hansen, A.; Ehlert, S.; Mewes, J.
     r2SCAN-3c: A 'Swiss army knife' composite electronic-structure method
     J. Chem. Phys. 2021 154 , 064103
     doi.org/10.1063/5.0040021
  2. Neese, F.
     Software update: the ORCA program system, version 6.0
     WIRES Comput. Molec. Sci. 2025 15(1), e70019
     doi.org/10.1002/wcms.7019

List of papers to cite with high priority. The work reported in these papers was absolutely
necessary for this run to complete.
Our perspective: the developers of density functionals and basis sets usually get cited in chemistry papers
Good! But without the algorithms to do something with them, the functionals or basis sets would not do anything.
Hence, in our opinion, the algorithm design and method developments papers are equally worthy of getting cited

  1. Neese, F.
     An improvement of the resolution of the identity approximation for the formation of the Coulomb matrix
     J. Comp. Chem. 2003 24(14), 1740-1747
     doi.org/10.1002/jcc.10318
  2. Bykov, D.; Petrenko, T.; Izsak, R.; Kossmann, S.; Becker, U.; Valeev, E.; Neese, F.
     Efficient implementation of the analytic second derivatives of Hartree-Fock and hybrid DFT energies: a detailed analysis of different approximations
     Molec. Phys. 2015 113 , 1961-1977
     doi.org/10.1080/00268976.2015.1025114
  3. Caldeweyher, E.; Bannwarth, C.; Grimme, S.
     Extension of the D3 dispersion coefficient model
     J. Chem. Phys. 2017 147 , 034112
     doi.org/10.1063/1.4993215
  4. Lehtola, S.; Steigemann, C.; Oliveira, M.; Marques, M.
     Recent developments in Libxc - A comprehensive library of functionals for density functional theory
     Software X 2018 7 , 
     doi.org/10.1016/j.softx.2017.11.002
  5. Caldeweyher, E.; Ehlert, S.; Hansen, A.; Neugebauer, H.; Spicher, S.; Bannwarth, C.; Grimme, S.
     A generally applicable atomic-charge dependent London dispersion correction
     J. Chem. Phys. 2019 150 , 154122
     doi.org/10.1063/1.5090222
  6. Caldeweyher, E.; Mewes, J.; Ehlert, S.; Grimme, S.
     Extension and evaluation of the D4 London-dispersion model for periodic systems
     Phys. Chem. Chem. Phys. 2020 22(16), 8499-8512
     doi.org/10.1039/D0CP00502A
  7. Neese, F.
     The SHARK Integral Generation and Digestion System
     J. Comp. Chem. 2022 44(3), 381
     doi.org/10.1002/jcc.26942
  8. Wittmann, L.; Gordiy, I.; Friede, M.; Helmich-Paris, B.; Grimme, S.; Hansen, A.; Bursch, M.
     Extension of the D3 and D4 London Dispersion Corrections to the full Actinides Series
     Phys. Chem. Chem. Phys. 2024 26(32), 21379-21394
     doi.org/10.1039/D4CP01514B
  9. Petra, P.; Frank, N.
     Efficient calculation of analytic Raman intensities
     to be submitted 2025  , 

List of suggested additional citations. These are papers that are important in the 'surrounding' of 
of this run, or papers that preceded the highly important papers. If you like your results we are grateful for a citation.

  1. Neese, F.
     The ORCA program system
     WIRES Comput. Molec. Sci. 2012 2(1), 73-78
     doi.org/10.1002/wcms.81
  2. Neese, F.
     Software update: the ORCA program system, version 4.0
     WIRES Comput. Molec. Sci. 2018 8(1), 1-6
     doi.org/10.1002/wcms.1327
  3. Neese, F.; Wennmohs, F.; Becker, U.; Riplinger, C.
     The ORCA quantum chemistry program package
     J. Chem. Phys. 2020 152(22), 224108
     doi.org/10.1063/5.0004608
  4. Neese, F.
     Software update: The ORCA program system—Version 5.0
     WIRES Comput. Molec. Sci. 2022 12(1), e1606
     doi.org/10.1002/wcms.1606

List of optional additional citations

  1. Neese, F.
     Approximate second-order SCF convergence for spin unrestricted wavefunctions
     Chem. Phys. Lett. 2000 325(1-3), 93-98
     doi.org/10.1016/s0009-2614(00)00662-x

Timings for individual modules:

Sum of individual times          ...      307.550 sec (=   5.126 min)
Startup calculation              ...       72.793 sec (=   1.213 min)  23.7 %
SCF iterations                   ...      108.314 sec (=   1.805 min)  35.2 %
Property integrals               ...       34.222 sec (=   0.570 min)  11.1 %
SCF Response                     ...        9.853 sec (=   0.164 min)   3.2 %
Property calculations            ...       37.869 sec (=   0.631 min)  12.3 %
SCF Gradient evaluation          ...       44.129 sec (=   0.735 min)  14.3 %
Geometry relaxation              ...        0.369 sec (=   0.006 min)   0.1 %
                             ****ORCA TERMINATED NORMALLY****
TOTAL RUN TIME: 0 days 0 hours 5 minutes 26 seconds 574 msec
