
                                 *****************
                                 * O   R   C   A *
                                 *****************

                                            #,                                       
                                            ###                                      
                                            ####                                     
                                            #####                                    
                                            ######                                   
                                           ########,                                 
                                     ,,################,,,,,                         
                               ,,#################################,,                 
                          ,,##########################################,,             
                       ,#########################################, ''#####,          
                    ,#############################################,,   '####,        
                  ,##################################################,,,,####,       
                ,###########''''           ''''###############################       
              ,#####''   ,,,,##########,,,,          '''####'''          '####       
            ,##' ,,,,###########################,,,                        '##       
           ' ,,###''''                  '''############,,,                           
         ,,##''                                '''############,,,,        ,,,,,,###''
      ,#''                                            '''#######################'''  
     '                                                          ''''####''''         
             ,#######,   #######,   ,#######,      ##                                
            ,#'     '#,  ##    ##  ,#'     '#,    #''#        ,####,    ,#,          
            ##       ##  ##   ,#'  ##            #'  '#       #'       ,# #          
            ##       ##  #######   ##           ,######,      #####,      #          
            '#,     ,#'  ##    ##  '#,     ,#' ,#      #,     #,   #      #          
             '#######'   ##     ##  '#######'  #'      '#     '####' #    #          



                #########################################################
                #                        -***-                          #
                #          Department of theory and spectroscopy        #
                #                                                       #
                #                      Frank Neese                      #
                #                                                       #
                #     Directorship, Architecture, Infrastructure        #
                #                    SHARK, DRIVERS                     #
                #        Core code/Algorithms in most modules           #
                #                                                       #
                #        Max Planck Institute fuer Kohlenforschung      #
                #                Kaiser Wilhelm Platz 1                 #
                #                 D-45470 Muelheim/Ruhr                 #
                #                      Germany                          #
                #                                                       #
                #                  All rights reserved                  #
                #                        -***-                          #
                #########################################################


                         Program Version 6.1.0  -  RELEASE   -
                                (GIT: $679e74b$)
                          ($2025-06-10 18:02:51 +0200$)


 With contributions from (in alphabetic order):
[Max-Planck-Institut fuer Kohlenforschung]                               
  Daniel Aravena         : Magnetic Suceptibility                        
  Michael Atanasov       : Ab Initio Ligand Field Theory (pilot matlab implementation)
  Alexander A. Auer      : GIAO ZORA, VPT2 properties, NMR spectrum      
  Ute Becker             : All parallelization in ORCA, NUMFREQ, NUMCALC 
  Giovanni Bistoni       : ED, misc. LED, open-shell LED, HFLD           
  Dmytro Bykov           : pre 5.0 version of the SCF Hessian            
  Marcos Casanova-Páez   : Triplet and SCS-CIS(D). UHF-(DLPNO)-IP/EA/STEOM-CCSD. UHF-CVS-IP/STEOM-CCSD   
  Vijay G. Chilkuri      : MRCI spin determinant printing, contributions to CSF-ICE 
  Pauline Colinet        : FMM embedding                                 
  Dipayan Datta          : RHF DLPNO-CCSD density                        
  Achintya Kumar Dutta   : EOM-CC, STEOM-CC                              
  Nicolas Foglia         : Exact transition moments, OPA infrastructure, MCD improvements    
  Dmitry Ganyushin       : Spin-Orbit,Spin-Spin,Magnetic field MRCI      
  Miquel Garcia-Rates    : C-PCM and meta-GGA Hessian, CCSD/C-PCM, Gaussian charge scheme 
  Tiago L. C. Gouveia    : GS-ROHF, GS-ROCIS                             
  Yang Guo               : DLPNO-NEVPT2, F12-NEVPT2, CIM, IAO-localization        
  Andreas Hansen         : Spin unrestricted coupled pair/coupled cluster methods 
  Ingolf Harden          : AUTO-CI MPn and infrastructure                
  Benjamin Helmich-Paris : MC-RPA, TRAH-(SCF,CASSCF), AVAS, COSX integrals, SCF dyn. polar., MC-PDFT, srDFT 
  Lee Huntington         : MR-EOM, pCC                                   
  Robert Izsak           : Overlap fitted RIJCOSX, COSX-SCS-MP3, EOM     
  Riya Kayal             : Wick's Theorem for AUTO-CI, AUTO-CI UHF-CCSDT 
  Emily Kempfer          : AUTO-CI RHF CISDT and CCSDT, approximate NEVPT4
  Christian Kollmar      : KDIIS, OOCD, Brueckner-CCSD(T), CCSD density, CASPT2, CASPT2-K, improved NEVPT2 
  Axel Koslowski         : Symmetry handling                             
  Simone Kossmann        : meta-GGA functionals, TD-DFT gradient, OOMP2, (MP2 Hessian; deprecated post 5.0) 
  Lucas Lang             : DCDCAS, Hyperfine gauge corrections, ICE-SOC+SSC
  Marvin Lechner         : AUTO-CI (C++ implementation), FIC-MRCC        
  Spencer Leger          : CASSCF response                               
  Dagmar Lenk            : GEPOL surface, SMD, ORCA-2-JSON               
  Dimitrios Liakos       : Extrapolation schemes; Compound Job, Property file
  Dimitrios Manganas     : Further ROCIS development; embedding schemes. LFT, Crystal Embedding 
  Dimitrios Pantazis     : SARC Basis sets                               
  Anastasios Papadopoulos: AUTO-CI, single reference methods and gradients 
  Taras Petrenko         : pre 6.0 DFT Hessian and TD-DFT gradient,  ECA, NRVS 
  Petra Pikulova         : Analytic Raman intensities                    
  Peter Pinski           : DLPNO-MP2, DLPNO-MP2 Gradient                 
  Shashank Vittal Rao    : ES-AILFT, MagRelax                            
  Christoph Reimann      : Effective Core Potentials                     
  Marius Retegan         : Local ZFS, SOC                                
  Christoph Riplinger    : Optimizer, TS searches, QM/MM, DLPNO-CCSD(T), (RO)-DLPNO pert. Triples 
  Michael Roemelt        : Original ROCIS implementation, recursive CI coupling coefficients
  Masaaki Saitow         : Open-shell DLPNO-CCSD energy and density      
  Barbara Sandhoefer     : DKH picture change effects                    
  Yorick L. A. Schmerwitz: GMF and freeze-and-release deltaSCF, NEB S-IDPP initial path                    
  Kantharuban Sivalingam : CASSCF convergence/infrastructure, NEVPT2, NEVPT3, NEVPT4(SD), FIC-MRCI and CEPA variants
  Bernardo de Souza      : ESD, SOC TD-DFT                               
  Georgi L. Stoychev     : AutoAux, RI-MP2 NMR, DLPNO-MP2 response, X2C  
  Van Anh Tran           : RI-MP2 g-tensors                              
  Willem Van den Heuvel  : Paramagnetic NMR                              
  Zikuan Wang            : NOTCH, Electric field optimization            
  Frank Wennmohs         : Technical directorship and infrastructure     
  Hang Xu                : AUTO-CI-Response properties                   
                                                                         
[FACCTs GmbH]                                                            
  Markus Bursch, Nicolas Foglia, Miquel Garcia-Rates, Ingolf Harden, Hagen Neugebauer, Anastasios Papadopoulos, 
  Christoph Riplinger, Bernardo de Souza, Georgi L. Stoychev                                                    
                                                                 
  APM, various basis sets, CI-OPT, improved COSX, DLPNO-Multilevel,           
  DOCKER, DRACO, updates on ESD, Fragmentator, GOAT, IRC, LR-CPCM, L-BFGS, MBIS, meta-GGA TD-DFT gradient, ML-optimized integration grids, 
  MM, NACMEs, nearIR, NEB, NEB-TS, NL-DFT gradient (VV10), 2- and 3-layer-ONIOM, interface openCOSMO-RS, QMMM,   
  Crystal-QMMM, RESP, rigid body optimization, SF, symmetry and pop. for TD-DFT, various functionals, SOLVATOR                                   
                                                                         
[Other institutions]                                                     
  V. Asgeirsson          : NEB                                           
  Christoph Bannwarth    : sTDA-DFT, sTD-DFT, PBEh-3c, B97-3c, D3        
  Giovanni Bistoni       : ETS/NOCV, ADLD/ADEX, COVALED                  
  Martin Brehm           : Molecular dynamics                            
  Ronald Cardenas        : ETS/NOCV                                      
  Martina Colucci        : COVALED                                       
  Sebastian Ehlert       : rSCAN, r2SCAN, r2SCAN-3c, D4, dhf basis sets  
  Marvin Friede          : D4 for Fr, Ra, Ac-Lr                          
  Lars Goerigk           : TD-DFT with DH, B97 family of functionals     
  Stefan Grimme          : VdW corrections, initial TS optimization, DFT functionals, gCP, sTDA/sTD-DF 
  Waldemar Hujo          : DFT-NL                                        
  H. Jonsson             : NEB                                           
  Holger Kruse           : gCP                                           
  Marcel Mueller         : wB97X-3c, vDZP basis set                      
  Hagen Neugebauer       : wr2SCAN, Native XTB                           
  Gianluca Regni         : ADLD/ADEX                                     
  Tobias Risthaus        : pre 6.0 range-separated hybrid DFT and stability analysis
  Lukas Wittmann         : regularized MP2, r2SCAN double-hybrids, wr2SCAN        
                                                                         
We gratefully acknowledge several colleagues who have allowed us to      
interface, adapt or use parts of their codes:                            
  Ed Valeev, F. Pavosevic, A. Kumar             : LibInt (2-el integral package), F12 methods 
  Garnet Chan, S. Sharma, J. Yang, R. Olivares  : DMRG                   
  Ulf Ekstrom                                   : XCFun DFT Library      
  Mihaly Kallay                                 : mrcc  (arbitrary order and MRCC methods)
  Frank Weinhold                                : gennbo (NPA and NBO analysis)           
  Simon Mueller                                 : openCOSMO-RS                            
  Christopher J. Cramer and Donald G. Truhlar   : smd solvation model                     
  S Lehtola, MJT Oliveira, MAL Marques          : LibXC Library                           
  Liviu Ungur et al                             : ANISO software                          


 Your calculation uses the libint2 library for the computation of 2-el integrals
 For citations please refer to: http://libint.valeyev.net

 Your ORCA version has been built with support for libXC version: 7.0.0
 For citations please refer to: https://libxc.gitlab.io

 This ORCA versions uses:
   CBLAS   interface :  Fast vector & matrix operations
   LAPACKE interface :  Fast linear algebra routines
   SCALAPACK package :  Parallel linear algebra routines
   Shared memory     :  Shared parallel matrices
   BLAS/LAPACK       :  OpenBLAS 0.3.29  USE64BITINT DYNAMIC_ARCH NO_AFFINITY Bulldozer SINGLE_THREADED
        Core in use  :  Bulldozer
   Copyright (c) 2011-2014, The OpenBLAS Project


  ***********************************
  * Starting time: Fri Aug 22 13:23:50 2025
  * Host name:     chromium10
  * Process ID:    573033
  * Working dir.:  /local/scratch/mehlhorn/62276
  ***********************************



***************************************
The coordinates will be read from file: start.xyz
***************************************


Your calculation utilizes the geometrical counterpoise correction gCP
Please cite in your paper:
H.Kruse, S. Grimme J.Chem.Phys., 136, (2012), 154101 
   

Your calculation utilizes the atom-pairwise dispersion correction
with the Becke-Johnson damping scheme (D3BJ)


Your calculation employs the composite approach PBEh-3c.
Please cite in your paper:
Grimme, S.; Brandenburg, J. G.; Bannwarth, C.; Hansen A. J. Chem. Phys. 2015, 143, 054107 
   

================================================================================

----- Orbital basis set information -----
Your calculation utilizes the basis: def2-mSVP

----- AuxJ basis set information -----
Your calculation utilizes the auxiliary basis: def2-mSVP/J
================================================================================
                                        WARNINGS
                       Please study these warnings very carefully!
================================================================================

WARNING: Old DensityContainer found on disk!
         Will remove this file - 
         If you want to keep old densities, please start your calculation with a different basename. 


WARNING: Geometry Optimization
  ===> : Switching off AutoStart
         For restart on a previous wavefunction, please use MOREAD

================================================================================
                                       INPUT FILE
================================================================================
NAME = run.inp
|  1> # Geometry optimization for (AlH3)n cluster
|  2> 
|  3> %pal nprocs 24  end
|  4> 
|  5> %geom MaxIter 500 end
|  6> 
|  7> %elprop Polar 1 end # invoke raman
|  8> 
|  9> ! PBEh-3c
| 10> ! RKS	# closed shell for AlH3
| 11> ! Freq 	# Frequency analysis to check the stabiltity of the structures
| 12> 
| 13> 
| 14> ! NoPop # population analysis not necessary	
| 15> 
| 16> ! DEFGRID3
| 17> ! ExtremeSCF
| 18> ! VeryTightOpt
| 19> 
| 20> 
| 21> ! SmallPrint
| 22> 
| 23> 
| 24> * xyzFile 0 1 start.xyz # only maingroup elements H and Al so there should be no net spin
| 25> 
| 26>                          ****END OF INPUT****
================================================================================

                       *****************************
                       * Geometry Optimization Run *
                       *****************************

Geometry optimization settings:
Update method            Update   .... BFGS
Choice of coordinates    CoordSys .... (2022) Redundant Internals
Initial Hessian          InHess   .... Almloef's Model
Max. no of cycles        MaxIter  .... 500

Convergence Tolerances:
Energy Change            TolE     ....  2.0000e-07 Eh
Max. Gradient            TolMAXG  ....  3.0000e-05 Eh/bohr
RMS Gradient             TolRMSG  ....  8.0000e-06 Eh/bohr
Max. Displacement        TolMAXD  ....  2.0000e-04 bohr
RMS Displacement         TolRMSD  ....  1.0000e-04 bohr
Strict Convergence                .... False

------------------------------------------------------------------------------
                        ORCA OPTIMIZATION COORDINATE SETUP
------------------------------------------------------------------------------

The optimization will be done in redundant internal coordinates (2022)
Making redundant internal coordinates   ...  (2022 redundants) done
Evaluating the initial hessian          ...  (Almloef) done
Evaluating the coordinates              ...  done
Calculating the B-matrix                .... done
Calculating the G-matrix                .... done
The number of degrees of freedom        ....  117

    -----------------------------------------------------------------
                    Redundant Internal Coordinates


    -----------------------------------------------------------------
         Definition                    Initial Value    Approx d2E/dq
    -----------------------------------------------------------------
      1. B(Al  1,Al  0)                  3.0868         0.060219   
      2. B(H   2,Al  1)                  1.6982         0.270180   
      3. B(H   3,Al  1)                  1.5705         0.431923   
      4. B(H   4,Al  1)                  1.6982         0.270214   
      5. B(H   4,Al  0)                  1.6964         0.271957   
      6. B(H   5,Al  0)                  1.5705         0.431940   
      7. B(H   6,Al  0)                  1.7501         0.223291   
      8. B(H   7,Al  1)                  1.5705         0.431960   
      9. B(Al  8,H   6)                  1.7076         0.261001   
     10. B(Al  8,H   2)                  1.6965         0.271840   
     11. B(Al  8,Al  1)                  3.0893         0.059665   
     12. B(Al  8,Al  0)                  3.0986         0.057668   
     13. B(H   9,Al  8)                  1.5705         0.431927   
     14. B(H  10,Al  8)                  1.5722         0.429275   
     15. B(H  11,Al  0)                  1.5723         0.429126   
     16. A(H   4,Al  0,H   6)           93.5445         0.326131   
     17. A(Al  1,Al  0,H   4)           24.6000         0.304013   
     18. A(Al  1,Al  0,Al  8)           59.9275         0.273630   
     19. A(Al  8,Al  0,H  11)          104.1521         0.325071   
     20. A(H   4,Al  0,H   5)          105.7759         0.364325   
     21. A(H   6,Al  0,H  11)          115.9067         0.351919   
     22. A(Al  1,Al  0,H   5)          129.6854         0.327748   
     23. A(Al  1,Al  0,H  11)           91.4286         0.327395   
     24. A(H   5,Al  0,H  11)          129.2055         0.394267   
     25. A(H   5,Al  0,H   6)           98.9664         0.352308   
     26. A(H   4,Al  0,Al  8)           74.8189         0.301916   
     27. A(Al  1,Al  0,H   6)           84.0318         0.294628   
     28. A(H   5,Al  0,Al  8)          121.0199         0.325420   
     29. A(H   4,Al  0,H  11)          107.4961         0.363918   
     30. A(H   6,Al  0,Al  8)           25.9978         0.292623   
     31. A(H   2,Al  1,H   7)          105.4696         0.363919   
     32. A(H   3,Al  1,H   4)          105.4463         0.363922   
     33. A(Al  0,Al  1,H   3)          124.9901         0.327746   
     34. A(H   2,Al  1,H   4)           94.9404         0.336225   
     35. A(H   4,Al  1,Al  8)           75.0789         0.303251   
     36. A(H   3,Al  1,Al  8)          100.0184         0.327247   
     37. A(H   2,Al  1,H   3)          108.6707         0.363914   
     38. A(H   2,Al  1,Al  8)           24.4768         0.303244   
     39. A(Al  0,Al  1,Al  8)           60.2256         0.275058   
     40. A(H   7,Al  1,Al  8)          125.1476         0.327251   
     41. A(Al  0,Al  1,H   4)           24.5729         0.303700   
     42. A(H   4,Al  1,H   7)          108.6756         0.363927   
     43. A(Al  0,Al  1,H   7)          100.2824         0.327751   
     44. A(Al  0,Al  1,H   2)           74.8162         0.303694   
     45. A(H   3,Al  1,H   7)          128.5610         0.394719   
     46. A(Al  1,H   2,Al  8)          131.0207         0.336561   
     47. A(Al  0,H   4,Al  1)          130.8271         0.336592   
     48. A(Al  0,H   6,Al  8)          127.3073         0.323934   
     49. A(Al  1,Al  8,H   2)           24.5025         0.303542   
     50. A(Al  0,Al  8,H   2)           74.4803         0.301895   
     51. A(Al  0,Al  8,Al  1)           59.8469         0.273244   
     52. A(H   6,Al  8,H  10)           95.9603         0.361392   
     53. A(H   2,Al  8,H  10)          107.5358         0.363913   
     54. A(Al  1,Al  8,H  10)           91.6175         0.326915   
     55. A(Al  0,Al  8,H  10)          104.9907         0.325089   
     56. A(H   6,Al  8,H   9)          113.8755         0.361772   
     57. A(H   9,Al  8,H  10)          129.1918         0.394289   
     58. A(H   2,Al  8,H   9)          105.7599         0.364296   
     59. A(Al  1,Al  8,H   9)          129.5442         0.327247   
     60. A(Al  0,Al  8,H   9)          120.3124         0.325419   
     61. A(H   2,Al  8,H   6)          101.1489         0.334632   
     62. A(Al  1,Al  8,H   6)           84.6045         0.301575   
     63. A(Al  0,Al  8,H   6)           26.6949         0.299944   
     64. D(H   2,Al  1,Al  0,H   4)   -143.9097         0.010000   
     65. D(H   3,Al  1,Al  0,H   6)     70.6910         0.010000   
     66. D(H   3,Al  1,Al  0,H   5)    -26.0212         0.010000   
     67. D(H   3,Al  1,Al  0,Al  8)     81.0363         0.010000   
     68. D(H   2,Al  1,Al  0,Al  8)    -21.3752         0.010000   
     69. D(H   3,Al  1,Al  0,H   4)    -41.4981         0.010000   
     70. D(H   2,Al  1,Al  0,H   6)    -31.7206         0.010000   
     71. D(H   2,Al  1,Al  0,H   5)   -128.4327         0.010000   
     72. D(H   2,Al  1,Al  0,H  11)     84.1804         0.010000   
     73. D(H   3,Al  1,Al  0,H  11)   -173.4080         0.010000   
     74. D(Al  8,H   2,Al  1,H   7)    146.4858         0.010000   
     75. D(Al  8,H   2,Al  1,H   3)    -72.5980         0.010000   
     76. D(Al  8,H   2,Al  1,Al  0)     49.7783         0.010000   
     77. D(Al  8,H   2,Al  1,H   4)     35.5448         0.010000   
     78. D(Al  1,H   4,Al  0,H   5)   -167.6785         0.010000   
     79. D(Al  0,H   4,Al  1,H   7)    -73.3756         0.010000   
     80. D(Al  0,H   4,Al  1,Al  8)     49.2274         0.010000   
     81. D(Al  0,H   4,Al  1,H   3)    145.7244         0.010000   
     82. D(Al  0,H   4,Al  1,H   2)     34.7932         0.010000   
     83. D(Al  1,H   4,Al  0,H  11)     51.2653         0.010000   
     84. D(Al  1,H   4,Al  0,Al  8)    -49.1098         0.010000   
     85. D(Al  1,H   4,Al  0,H   6)    -67.3223         0.010000   
     86. D(Al  8,H   6,Al  0,H   4)     43.4829         0.010000   
     87. D(Al  8,H   6,Al  0,Al  1)     20.7653         0.010000   
     88. D(Al  8,H   6,Al  0,H   5)    150.0741         0.010000   
     89. D(Al  8,H   6,Al  0,H  11)    -67.9219         0.010000   
     90. D(Al  1,Al  8,Al  0,H  11)    -83.3218         0.010000   
     91. D(Al  1,Al  8,Al  0,H   6)    155.9542         0.010000   
     92. D(Al  1,Al  8,Al  0,H   5)    120.8533         0.010000   
     93. D(H   2,Al  8,Al  0,Al  1)     21.4334         0.010000   
     94. D(Al  1,Al  8,Al  0,H   4)     21.3241         0.010000   
     95. D(H   9,Al  8,H   6,Al  0)    110.3871         0.010000   
     96. D(H   2,Al  8,H   6,Al  0)     -2.5655         0.010000   
     97. D(Al  1,Al  8,H   6,Al  0)    -20.7260         0.010000   
     98. D(H  10,Al  8,H   2,Al  1)     51.5441         0.010000   
     99. D(H   9,Al  8,H   2,Al  1)   -167.3983         0.010000   
    100. D(H   6,Al  8,H   2,Al  1)    -48.4338         0.010000   
    101. D(H   6,Al  8,Al  1,H   2)    132.4950         0.010000   
    102. D(H   6,Al  8,Al  1,Al  0)     10.5950         0.010000   
    103. D(H   2,Al  8,Al  1,H   7)    -40.6019         0.010000   
    104. D(H   2,Al  8,Al  1,H   4)   -143.1738         0.010000   
    105. D(H   2,Al  8,Al  1,H   3)    113.3630         0.010000   
    106. D(H   2,Al  8,Al  1,Al  0)   -121.9000         0.010000   
    107. D(Al  0,Al  8,Al  1,H   7)     81.2981         0.010000   
    108. D(Al  0,Al  8,Al  1,H   4)    -21.2738         0.010000   
    109. D(Al  0,Al  8,H   2,Al  1)    -49.6296         0.010000   
    110. D(Al  0,Al  8,Al  1,H   3)   -124.7370         0.010000   
    111. D(Al  0,Al  8,Al  1,H   2)    121.9000         0.010000   
    112. D(H   6,Al  8,Al  0,Al  1)   -155.9542         0.010000   
    113. D(H   2,Al  8,Al  0,H  11)    -61.8883         0.010000   
    114. D(H   2,Al  8,Al  0,H   6)    177.3876         0.010000   
    115. D(H   2,Al  8,Al  0,H   5)    142.2867         0.010000   
    116. D(H  10,Al  8,H   6,Al  0)   -111.7944         0.010000   
    117. D(H   2,Al  8,Al  0,H   4)     42.7575         0.010000   
    -----------------------------------------------------------------

Number of atoms                         .... 12
Number of degrees of freedom            .... 117


         *************************************************************
         *                GEOMETRY OPTIMIZATION CYCLE   1            *
         *************************************************************
---------------------------------
CARTESIAN COORDINATES (ANGSTROEM)
---------------------------------
  Al    -0.242180    1.529540    2.572820
  Al    -0.000080   -0.000610   -0.097100
  H      0.775640   -0.983030    1.050510
  H     -1.153870   -0.827490   -0.769030
  H     -0.763520    0.990640    1.051100
  H     -1.511870    2.138480    3.268160
  H     -0.287760   -0.072280    3.276320
  H      1.146010    0.821110   -0.788210
  Al     0.268670   -1.526660    2.575530
  H      1.550340   -2.115460    3.266240
  H     -1.151900   -2.176570    2.398580
  H      1.187050    2.158020    2.387550

----------------------------
CARTESIAN COORDINATES (A.U.)
----------------------------
  NO LB      ZA    FRAG     MASS         X           Y           Z
   0 Al   13.0000    0    26.982   -0.457654    2.890412    4.861925
   1 Al   13.0000    0    26.982   -0.000151   -0.001153   -0.183492
   2 H     1.0000    0     1.008    1.465747   -1.857657    1.985176
   3 H     1.0000    0     1.008   -2.180498   -1.563729   -1.453256
   4 H     1.0000    0     1.008   -1.442844    1.872038    1.986291
   5 H     1.0000    0     1.008   -2.857020    4.041142    6.175927
   6 H     1.0000    0     1.008   -0.543788   -0.136589    6.191348
   7 H     1.0000    0     1.008    2.165645    1.551673   -1.489501
   8 Al   13.0000    0    26.982    0.507713   -2.884969    4.867046
   9 H     1.0000    0     1.008    2.929718   -3.997640    6.172299
  10 H     1.0000    0     1.008   -2.176776   -4.113121    4.532659
  11 H     1.0000    0     1.008    2.243199    4.078067    4.511816

--------------------------------
INTERNAL COORDINATES (ANGSTROEM)
--------------------------------
 Al     0   0   0     0.000000000000     0.00000000     0.00000000
 Al     1   0   0     3.086817817575     0.00000000     0.00000000
 H      2   1   0     1.698204724672    74.81623333     0.00000000
 H      2   1   3     1.570494133513   124.99014010   102.41153886
 H      1   2   3     1.696419866660    24.59995600   216.09031375
 H      1   2   3     1.570483471833   129.68536782   231.56730256
 H      1   2   3     1.750090597312    84.03181700   328.27943050
 H      2   1   3     1.570470973498   100.28236733   256.60566590
 Al     3   2   1     1.696537107817   131.02066685    49.77831588
 H      9   3   2     1.570491557761   105.75988688   192.60167858
 H      9   3   2     1.572168386497   107.53580541    51.54413068
 H      1   2   3     1.572262852134    91.42857331    84.18041155

---------------------------
INTERNAL COORDINATES (A.U.)
---------------------------
 Al     0   0   0     0.000000000000     0.00000000     0.00000000
 Al     1   0   0     5.833240300526     0.00000000     0.00000000
 H      2   1   0     3.209141848962    74.81623333     0.00000000
 H      2   1   3     2.967803807270   124.99014010   102.41153886
 H      1   2   3     3.205768956131    24.59995600   216.09031375
 H      1   2   3     2.967783659614   129.68536782   231.56730256
 H      1   2   3     3.307191938470    84.03181700   328.27943050
 H      2   1   3     2.967760041184   100.28236733   256.60566590
 Al     3   2   1     3.205990509809   131.02066685    49.77831588
 H      9   3   2     2.967798939805   105.75988688   192.60167858
 H      9   3   2     2.970967686888   107.53580541    51.54413068
 H      1   2   3     2.971146201071    91.42857331    84.18041155

---------------------
BASIS SET INFORMATION
---------------------
There are 2 groups of distinct atoms

 Group   1 Type Al  : 10s7p1d contracted to 4s3p1d pattern {5311/511/1}
 Group   2 Type H   : 4s contracted to 2s pattern {31}

Atom   0Al   basis set group =>   1
Atom   1Al   basis set group =>   1
Atom   2H    basis set group =>   2
Atom   3H    basis set group =>   2
Atom   4H    basis set group =>   2
Atom   5H    basis set group =>   2
Atom   6H    basis set group =>   2
Atom   7H    basis set group =>   2
Atom   8Al   basis set group =>   1
Atom   9H    basis set group =>   2
Atom  10H    basis set group =>   2
Atom  11H    basis set group =>   2
---------------------------------
AUXILIARY/J BASIS SET INFORMATION
---------------------------------
There are 2 groups of distinct atoms

 Group   1 Type Al  : 14s5p5d2f1g contracted to 8s4p3d1f1g pattern {71111111/2111/311/2/1}
 Group   2 Type H   : 5s2p1d contracted to 3s1p1d pattern {311/2/1}

Atom   0Al   basis set group =>   1
Atom   1Al   basis set group =>   1
Atom   2H    basis set group =>   2
Atom   3H    basis set group =>   2
Atom   4H    basis set group =>   2
Atom   5H    basis set group =>   2
Atom   6H    basis set group =>   2
Atom   7H    basis set group =>   2
Atom   8Al   basis set group =>   1
Atom   9H    basis set group =>   2
Atom  10H    basis set group =>   2
Atom  11H    basis set group =>   2


           ************************************************************
           *        Program running with 24 parallel MPI-processes    *
           *              working on a common directory               *
           ************************************************************
------------------------------------------------------------------------------
                             ORCA STARTUP CALCULATIONS
                           -- RI-GTO INTEGRALS CHOSEN --
------------------------------------------------------------------------------
------------------------------------------------------------------------------
                   ___                                                        
                  /   \      - P O W E R E D   B Y -                         
                 /     \                                                     
                 |  |  |   _    _      __       _____    __    __             
                 |  |  |  | |  | |    /  \     |  _  \  |  |  /  |          
                  \  \/   | |  | |   /    \    | | | |  |  | /  /          
                 / \  \   | |__| |  /  /\  \   | |_| |  |  |/  /          
                |  |  |   |  __  | /  /__\  \  |    /   |      \           
                |  |  |   | |  | | |   __   |  |    \   |  |\   \          
                \     /   | |  | | |  |  |  |  | |\  \  |  | \   \       
                 \___/    |_|  |_| |__|  |__|  |_| \__\ |__|  \__/        
                                                                              
                      - O R C A' S   B I G   F R I E N D -                    
                                      &                                       
                       - I N T E G R A L  F E E D E R -                       
                                                                              
 v1 FN, 2020, v2 2021, v3 2022-2024                                           
------------------------------------------------------------------------------


----------------------
SHARK INTEGRAL PACKAGE
----------------------

Number of atoms                             ...     12
Number of basis functions                   ...     72
Number of shells                            ...     42
Maximum angular momentum                    ...      2
Integral batch strategy                     ... SHARK/LIBINT Hybrid
RI-J (if used) integral strategy            ... SPLIT-RIJ (Revised 2003 algorithm where possible)
Printlevel                                  ...      1
Contraction scheme used                     ... SEGMENTED contraction
Prescreening option                         ... SCHWARTZ
   Thresh                                   ... 3.000e-16
   Tcut                                     ... 3.000e-16
   Tpresel                                  ... 3.000e-16 
Coulomb Range Separation                    ... NOT USED
Exchange Range Separation                   ... NOT USED
Multipole approximations                    ... NOT USED
Finite Nucleus Model                        ... NOT USED
CABS basis                                  ... NOT available
Auxiliary Coulomb fitting basis             ... AVAILABLE
   # of basis functions in Aux-J            ...    252
   # of shells in Aux-J                     ...     96
   Maximum angular momentum in Aux-J        ...      4
Auxiliary J/K fitting basis                 ... NOT available
Auxiliary Correlation fitting basis         ... NOT available
Auxiliary 'external' fitting basis          ... NOT available

Checking pre-screening integrals            ... done (  0.0 sec) Dimension = 42
   => SHARK Basis and OBASIS are compatible. Storing Pre-screening
Shell pair information
Shell pair cut-off parameter TPreSel        ...   3.0e-16
Total number of shell pairs                 ...       903
Shell pairs after pre-screening             ...       882
Total number of primitive shell pairs       ...      4191
Primitive shell pairs kept                  ...      3042
          la=0 lb=0:    450 shell pairs
          la=1 lb=0:    264 shell pairs
          la=1 lb=1:     45 shell pairs
          la=2 lb=0:     90 shell pairs
          la=2 lb=1:     27 shell pairs
          la=2 lb=2:      6 shell pairs

Checking whether 4 symmetric matrices of dimension 72 fit in memory
:Max Core in MB      =   4096.00
 MB in use           =      4.47
 MB left             =   4091.53
 MB needed           =      0.08
 Data fit in memory  = YES
Calculating RI/J V-Matrix + Cholesky decomp.... done (  0.1 sec)
Calculating Nuclear repulsion               ... done (  0.0 sec) ENN=    170.556301569600 Eh

Diagonalization of the overlap matrix:
Smallest eigenvalue                        ... 1.150e-02
Time for diagonalization                   ...    0.046 sec
Threshold for overlap eigenvalues          ... 1.000e-07
Number of eigenvalues below threshold      ... 0
Time for construction of square roots      ...    0.001 sec
Total time needed                          ...    0.048 sec

-------------------
DFT GRID GENERATION
-------------------

General Integration Accuracy     IntAcc      ... 4.959
Radial Grid Type                 RadialGrid  ... OptM3 with GC (2021)
Angular Grid (max. ang.)         AngularGrid ... 6 (Lebedev-590)
Angular grid pruning method      GridPruning ... 4 (adaptive)
Weight generation scheme         WeightScheme... mBecke (2022)
Basis function cutoff            BFCut       ... 3.0000e-16
Integration weight cutoff        WCut        ... 1.0000e-14
Partially contracted basis set               ... off
Rotationally invariant grid construction     ... off
Angular grids for H and He will be reduced by one unit

Total number of grid points                  ...   128065
Total number of batches                      ...     2008
Average number of points per batch           ...       63
Average number of grid points per atom       ...    10672

--------------------
COSX GRID GENERATION
--------------------

GRIDX 1
-------
General Integration Accuracy     IntAcc      ... 4.020
Radial Grid Type                 RadialGrid  ... OptM3 with GC (2021)
Angular Grid (max. ang.)         AngularGrid ... 2 (Lebedev-110)
Angular grid pruning method      GridPruning ... 4 (adaptive)
Weight generation scheme         WeightScheme... mBecke (2022)
Basis function cutoff            BFCut       ... 3.0000e-16
Integration weight cutoff        WCut        ... 1.0000e-14
Partially contracted basis set               ... on
Rotationally invariant grid construction     ... off
Angular grids for H and He will be reduced by one unit

Total number of grid points                  ...    12850
Total number of batches                      ...      107
Average number of points per batch           ...      120
Average number of grid points per atom       ...     1071
UseSFitting                                  ... on

GRIDX 2
-------
General Integration Accuracy     IntAcc      ... 4.338
Radial Grid Type                 RadialGrid  ... OptM3 with GC (2021)
Angular Grid (max. ang.)         AngularGrid ... 3 (Lebedev-194)
Angular grid pruning method      GridPruning ... 4 (adaptive)
Weight generation scheme         WeightScheme... mBecke (2022)
Basis function cutoff            BFCut       ... 3.0000e-16
Integration weight cutoff        WCut        ... 1.0000e-14
Partially contracted basis set               ... on
Rotationally invariant grid construction     ... off
Angular grids for H and He will be reduced by one unit

Total number of grid points                  ...    29706
Total number of batches                      ...      238
Average number of points per batch           ...      124
Average number of grid points per atom       ...     2476
UseSFitting                                  ... on

GRIDX 3
-------
General Integration Accuracy     IntAcc      ... 4.871
Radial Grid Type                 RadialGrid  ... OptM3 with GC (2021)
Angular Grid (max. ang.)         AngularGrid ... 4 (Lebedev-302)
Angular grid pruning method      GridPruning ... 4 (adaptive)
Weight generation scheme         WeightScheme... mBecke (2022)
Basis function cutoff            BFCut       ... 3.0000e-16
Integration weight cutoff        WCut        ... 1.0000e-14
Partially contracted basis set               ... on
Rotationally invariant grid construction     ... off
Angular grids for H and He will be reduced by one unit

Total number of grid points                  ...    59585
Total number of batches                      ...      471
Average number of points per batch           ...      126
Average number of grid points per atom       ...     4965
UseSFitting                                  ... on
Grids setup in   4.2 sec
Initializing property integral containers    ... done (  0.0 sec)

SHARK setup successfully completed in   4.8 seconds

Maximum memory used throughout the entire STARTUP-calculation: 26.0 MB


           ************************************************************
           *        Program running with 24 parallel MPI-processes    *
           *              working on a common directory               *
           ************************************************************
-------------------------------------------------------------------------------
                                 ORCA GUESS
                   Start orbitals & Density for SCF / CASSCF
-------------------------------------------------------------------------------

------------
SCF SETTINGS
------------
Hamiltonian:
 Density Functional     Method          .... DFT(GTOs)
 Exchange Functional    Exchange        .... PBE
   PBE kappa parameter   XKappa         ....  1.024500
   PBE mue parameter    XMuePBE         ....  0.123457
 Correlation Functional Correlation     .... PBE
   PBE beta parameter  CBetaPBE         ....  0.030000
 LDA part of GGA corr.  LDAOpt          .... PW91-LDA
 Gradients option       PostSCFGGA      .... off
 Hybrid DFT is turned on
   Fraction HF Exchange ScalHFX         ....  0.420000
   Scaling of DF-GGA-X  ScalDFX         ....  0.580000
   Scaling of DF-GGA-C  ScalDFC         ....  1.000000
   Scaling of DF-LDA-C  ScalLDAC        ....  1.000000
   Perturbative correction              ....  0.000000
 RI-approximation to the Coulomb term is turned on
   Number of AuxJ basis functions       .... 252
   RIJ-COSX (HFX calculated with COS-X)).... on


General Settings:
 Integral files         IntName         .... run
 Hartree-Fock type      HFTyp           .... RHF
 Total Charge           Charge          ....    0
 Multiplicity           Mult            ....    1
 Number of Electrons    NEL             ....   48
 Basis Dimension        Dim             ....   72
 Nuclear Repulsion      ENuc            ....    170.5563015696 Eh

Convergence Acceleration:
 AO-DIIS                CNVDIIS         .... on
   Start iteration      DIISMaxIt       ....    12
   Startup error        DIISStart       ....  0.200000
   # of expansion vecs  DIISMaxEq       ....     5
   Bias factor          DIISBfac        ....   1.050
   Max. coefficient     DIISMaxC        ....  10.000
 MO-DIIS                CNVKDIIS        .... off
 Trust-Rad. Augm. Hess. CNVTRAH         .... auto
   Auto Start mean grad. ratio tolernc. ....  1.125000
   Auto Start start iteration           ....    50
   Auto Start num. interpolation iter.  ....    10
   Max. Number of Micro iterations      ....    24
   Max. Number of Macro iterations      .... Maxiter - #DIIS iter
   Number of Davidson start vectors     ....     2
   Converg. threshold    (grad. norm)   ....   1.000e-09
   Grad. Scal. Fac. for Micro threshold ....   0.100
   Minimum threshold for Micro iter.    ....   1.000e-02
   NR start threshold (gradient norm)   ....   1.000e-04
   Initial trust radius                 ....   0.400
   Minimum AH scaling param. (alpha)    ....   1.000
   Maximum AH scaling param. (alpha)    .... 1000.000
   Quad. conv. algorithm                .... NR
   White noise on init. David. guess    .... on
   Maximum white noise                  ....   0.010
   Pseudo random numbers                .... off
   Inactive MOs                         .... canonical
   Orbital update algorithm             .... Taylor
   Preconditioner                       .... Diag
   Full preconditioner red. dimension   ....   250
 SOSCF                 CNVSOSCF           .... on
   Start iteration     SOSCFMaxIt         ....   150
   Startup grad/error  SOSCFStart         ....  0.003300
   Hessian update      SOSCFHessUp        .... L-BFGS
   Autom. constraints  SOSCFAutoConstrain .... off
 Level Shifting         CNVShift        .... on
   Level shift para.    LevelShift      ....    0.2500
   Turn off err/grad.   ShiftErr        ....    0.0010
 Zerner damping         CNVZerner       .... off
 Static damping         CNVDamp         .... on
   Fraction old density DampFac         ....    0.7000
   Max. Damping (<1)    DampMax         ....    0.9800
   Min. Damping (>=0)   DampMin         ....    0.0000
   Turn off err/grad.   DampErr         ....    0.1000

SCF Procedure:
 Maximum # iterations   MaxIter         ....   125
 SCF integral mode      SCFMode         .... Direct
   Integral package                     .... SHARK and LIBINT hybrid scheme
 Reset frequency        DirectResetFreq ....    20
 Integral Threshold     Thresh          ....  3.000e-16 Eh
 Primitive CutOff       TCut            ....  3.000e-16 Eh

Convergence Tolerance:
 Convergence Check Mode ConvCheckMode   .... All-Criteria
 Convergence forced     ConvForced      .... 0
 Energy Change          TolE            ....  1.000e-14 Eh
 Max Density Change     TolMaxP         ....  1.000e-14
 RMS Density Change     TolRMSP         ....  1.000e-14
 Orbital Gradient       TolG            ....  1.000e-09
 Orbital Rotation angle TolX            ....  1.000e-09
 DIIS Error             TolErr          ....  1.000e-14

--------------------------------
INITIAL GUESS: MINIMAL BASIS EHT
--------------------------------
The minimal basis has 36 functions
EHT matrix was diagonalized
Basis set overlap was calculated now projecting the orbitals
Using GuessMode=FMatrix for the initial guess
C*T matrix was formed
Effective Fockian was calculated
Effective Fockian was diagonalized
Initial density was built
                      ------------------
                      INITIAL GUESS DONE
                      ------------------
             **** ENERGY FILE WAS UPDATED (run.en.tmp) ****
Finished Guess after   0.7 sec
Maximum memory used throughout the entire GUESS-calculation: 6.7 MB


           ************************************************************
           *        Program running with 24 parallel MPI-processes    *
           *              working on a common directory               *
           ************************************************************

-------------------------------------------------------------------------------------------
                                      ORCA LEAN-SCF
                              memory conserving SCF solver
-------------------------------------------------------------------------------------------

----------------------------------------D-I-I-S--------------------------------------------
Iteration    Energy (Eh)           Delta-E    RMSDP     MaxDP     DIISErr   Damp  Time(sec)
-------------------------------------------------------------------------------------------
               ***  Starting incremental Fock matrix formation  ***
    1    -730.6599397947098851     0.00e+00  4.99e-02  9.28e-02  3.41e-01  0.700   0.7
    2    -730.9803215477270442    -3.20e-01  4.16e-02  7.35e-02  2.43e-01  0.700   0.4
                               ***Turning on AO-DIIS***
    3    -731.2036968277427604    -2.23e-01  2.92e-02  4.83e-02  1.69e-01  0.700   0.3
    4    -731.3556637641081579    -1.52e-01  2.08e-02  3.32e-02  1.17e-01  0.700   0.3
    5    -731.4603137246883762    -1.05e-01  1.48e-02  2.32e-02  8.20e-02  0.700   0.3
    6    -731.5328852624082856    -7.26e-02  3.49e-02  5.44e-02  5.73e-02  0.000   0.3
                              *** Initializing SOSCF ***
---------------------------------------S-O-S-C-F--------------------------------------
Iteration    Energy (Eh)           Delta-E    RMSDP     MaxDP     MaxGrad    Time(sec)
--------------------------------------------------------------------------------------
    7    -731.7002614884078184    -1.67e-01  7.18e-04  1.34e-03  7.00e-04     0.3
               *** Restarting incremental Fock matrix formation ***
    8    -731.7002760768722283    -1.46e-05  4.88e-04  1.40e-03  2.35e-04     0.5
    9    -731.7002785692475300    -2.49e-06  1.16e-04  3.08e-04  4.69e-05     0.4
   10    -731.7002786709966813    -1.02e-07  4.99e-06  9.90e-06  2.21e-06     0.4
   11    -731.7002786714050444    -4.08e-10  1.17e-06  4.28e-06  5.65e-07     0.4
   12    -731.7002786713810565     2.40e-11  2.46e-07  1.06e-06  1.03e-07     0.4
   13    -731.7002786713767364     4.32e-12  4.57e-08  1.91e-07  2.46e-08     0.4
   14    -731.7002786713773048    -5.68e-13  3.55e-09  6.12e-09  2.50e-09     0.4
   15    -731.7002786713770774     2.27e-13  9.36e-10  1.13e-09  1.03e-09     0.4
   16    -731.7002786713767364     3.41e-13  0.00e+00  0.00e+00  9.99e-10     0.3
                           ***RMSP convergence achieved***
                           ***MAXP convergence achieved***
                       ***Gradient convergence achieved***
                    ***Orbital Rotation convergence achieved***
   17    -731.7002786713767364     0.00e+00  0.00e+00  0.00e+00  9.99e-10     0.2
                          ***Energy convergence achieved***

               *****************************************************
               *                     SUCCESS                       *
               *           SCF CONVERGED AFTER  17 CYCLES          *
               *****************************************************

Recomputing exchange energy using gridx3       ... done (    0.509 sec)
Old exchange energy                            :    -24.178361944 Eh
New exchange energy                            :    -24.178361042 Eh
Exchange energy change after final integration :      0.000000902 Eh
Total energy after final integration           :   -731.700277769 Eh
             **** ENERGY FILE WAS UPDATED (run.en.tmp) ****

----------------
TOTAL SCF ENERGY
----------------

Total Energy       :       -731.70027776948893 Eh          -19910.57679 eV

Components:
Nuclear Repulsion  :        170.55630156960038 Eh            4641.07291 eV
Electronic Energy  :       -902.25658024097709 Eh          -24551.64973 eV
One Electron Energy:      -1355.48145377458491 Eh          -36884.52553 eV
Two Electron Energy:        453.22487353360782 Eh           12332.87580 eV

Virial components:
Potential Energy   :      -1461.85761561524282 Eh          -39779.16805 eV
Kinetic Energy     :        730.15733784575389 Eh           19868.59126 eV
Virial Ratio       :          2.00211316088158

DFT components:
N(Alpha)           :       24.000003218924 electrons
N(Beta)            :       24.000003218924 electrons
N(Total)           :       48.000006437848 electrons
E(X)               :      -32.158792017137 Eh       
E(C)               :       -2.218951618405 Eh       
E(XC)              :      -34.377743635542 Eh       

---------------
SCF CONVERGENCE
---------------

  Last Energy change         ...    0.0000e+00  Tolerance :   1.0000e-14
  Last MAX-Density change    ...    0.0000e+00  Tolerance :   1.0000e-14
  Last RMS-Density change    ...    0.0000e+00  Tolerance :   1.0000e-14
  Last DIIS Error            ...    7.0024e-04  Tolerance :   1.0000e-14
  Last Orbital Gradient      ...    9.9921e-10  Tolerance :   1.0000e-09
  Last Orbital Rotation      ...    0.0000e+00  Tolerance :   1.0000e-09


----------------
ORBITAL ENERGIES
----------------

  NO   OCC          E(Eh)            E(eV) 
   0   2.0000     -56.623924     -1540.8153 
   1   2.0000     -56.620883     -1540.7326 
   2   2.0000     -56.619414     -1540.6926 
   3   2.0000      -4.365765      -118.7985 
   4   2.0000      -4.362968      -118.7224 
   5   2.0000      -4.361758      -118.6895 
   6   2.0000      -2.856668       -77.7339 
   7   2.0000      -2.854908       -77.6860 
   8   2.0000      -2.853899       -77.6585 
   9   2.0000      -2.852438       -77.6188 
  10   2.0000      -2.852131       -77.6104 
  11   2.0000      -2.851156       -77.5839 
  12   2.0000      -2.850352       -77.5620 
  13   2.0000      -2.847493       -77.4842 
  14   2.0000      -2.846303       -77.4518 
  15   2.0000      -0.599080       -16.3018 
  16   2.0000      -0.496566       -13.5123 
  17   2.0000      -0.495007       -13.4698 
  18   2.0000      -0.402723       -10.9587 
  19   2.0000      -0.392568       -10.6823 
  20   2.0000      -0.383548       -10.4369 
  21   2.0000      -0.371901       -10.1199 
  22   2.0000      -0.362009        -9.8508 
  23   2.0000      -0.354821        -9.6552 
  24   0.0000      -0.008524        -0.2320 
  25   0.0000      -0.003897        -0.1060 
  26   0.0000      -0.001886        -0.0513 
  27   0.0000       0.018128         0.4933 
  28   0.0000       0.041677         1.1341 
  29   0.0000       0.062638         1.7045 
  30   0.0000       0.069391         1.8882 
  31   0.0000       0.099725         2.7137 
  32   0.0000       0.102762         2.7963 
  33   0.0000       0.111670         3.0387 
  34   0.0000       0.157593         4.2883 
*Only the first 10 virtual orbitals were printed.
-------
TIMINGS
-------

Total SCF time: 0 days 0 hours 0 min 8 sec 

Total time                  ....       8.271 sec
Sum of individual times     ....       7.969 sec  ( 96.3%)

SCF preparation             ....       0.730 sec  (  8.8%)
Fock matrix formation       ....       6.801 sec  ( 82.2%)
  Startup                   ....       0.009 sec  (  0.1% of F)
  Split-RI-J                ....       0.427 sec  (  6.3% of F)
  Chain of spheres X        ....       4.383 sec  ( 64.4% of F)
  XC integration            ....       1.927 sec  ( 28.3% of F)
    XC Preparation          ....       0.000 sec  (  0.0% of XC)
    Basis function eval.    ....       0.496 sec  ( 25.8% of XC)
    Density eval.           ....       0.232 sec  ( 12.0% of XC)
    XC-Functional eval.     ....       0.123 sec  (  6.4% of XC)
    XC-Potential eval.      ....       0.222 sec  ( 11.5% of XC)
Diagonalization             ....       0.000 sec  (  0.0%)
Density matrix formation    ....       0.059 sec  (  0.7%)
Total Energy calculation    ....       0.041 sec  (  0.5%)
Population analysis         ....       0.000 sec  (  0.0%)
Orbital Transformation      ....       0.040 sec  (  0.5%)
Orbital Orthonormalization  ....       0.000 sec  (  0.0%)
DIIS solution               ....       0.164 sec  (  2.0%)
SOSCF solution              ....       0.135 sec  (  1.6%)
Finished LeanSCF after   8.3 sec

Maximum memory used throughout the entire LEANSCF-calculation: 7.7 MB


           ************************************************************
           *        Program running with 24 parallel MPI-processes    *
           *              working on a common directory               *
           ************************************************************

------------------------------------------------------------------------------
                         ORCA PROPERTY INTEGRAL CALCULATIONS
------------------------------------------------------------------------------

GBWName                                   ... run.gbw
Number of atoms                           ...     12
Number of basis functions                 ...     72
Max core memory                           ...   4096 MB

Dipole integrals                          ... YES
Quadrupole integrals                      ...  NO
Linear momentum integrals                 ...  NO
Angular momentum integrals                ...  NO
Higher moments length integrals           ...  NO
Higher moments velocity integrals         ...  NO
Kinetic energy integrals                  ...  NO
GIAO right hand sides                     ...  NO
GIAO dipole derivative integrals          ...  NO
SOC integrals                             ...  NO
EPR diamagnetic integrals (GIAO)          ...  NO
EPR gauge integrals                       ...  NO
Field gradient integrals                  ...  NO (   0 nuclei)
Spin-dipole/Fermi contact integrals       ...  NO (   0 nuclei)
Contact density integrals                 ...  NO (   0 nuclei)
Nucleus-orbit integrals                   ...  NO (   0 nuclei)
Geometric perturbations                   ...  NO (  12 nuclei)

Choice of electric origin   ... Center of mass
Position of electric origin ... (  0.0105, -0.0001,  3.1816) 
Choice of magnetic origin   ... GIAO
Position of magnetic origin ... (  0.0000,  0.0000,  0.0000) 

Calculating integrals                     ... Electric Dipole (Length)     done (  0.0 sec)

Property integrals calculated in   0.0 sec

Maximum memory used throughout the entire PROPINT-calculation: 6.8 MB


-------------------------------------------------------------------------------
                          DFT DISPERSION CORRECTION                            
                                                                               
                              DFTD3 V3.1  Rev 1                                
                          USING Becke-Johnson damping                          
-------------------------------------------------------------------------------
The PBEh-3c composite method is recognized
Using three-body term ABC
Active option DFTDOPT                   ...         4   

molecular C6(AA) [au] = 2779.045509 


            DFT-D V3
 parameters
 s6 scaling factor         :     1.0000 
 a1 scaling factor         :     0.4860 
 s8 scaling factor         :     0.0000 
 a2 scaling factor         :     4.5000 
 Damping factor alpha9(ATM):    16.0000 
 ad hoc parameters k1-k3   :    16.0000     1.3333    -4.0000 

 Edisp/kcal,au: -2.722594560136  -0.004338730142 
 E6   /kcal   :  -2.731345543 
 E8   /kcal   :  -0.000000000 
 E6(ABC)      :   0.008750983 
 % E8         :   0.000000000 
 % E6(ABC)    :  -0.321420704 

-------------------------   ----------------
Dispersion correction           -0.004338730
-------------------------   ----------------

------------------   -----------------
gCP correction             0.020028743
------------------   -----------------

-------------------------   --------------------
FINAL SINGLE POINT ENERGY      -731.684587756231
-------------------------   --------------------



           ************************************************************
           *        Program running with 24 parallel MPI-processes    *
           *              working on a common directory               *
           ************************************************************
------------------------------------------------------------------------------
                         ORCA SCF GRADIENT CALCULATION
------------------------------------------------------------------------------

Nuc. rep. gradient        (SHARK) ... done (  0.0 sec)
HCore & Overlap gradient  (SHARK) ... done (  0.1 sec)
Split-RIJ-J gradient      (SHARK) ... done (  0.3 sec)
done (  2.4 sec)
XC gradient                       ... done (  0.7 sec)
Dispersion correction             ... done (  0.1 sec)

-------------------
DISPERSION GRADIENT
-------------------

   1   Al  :   -0.000018584    0.000116228    0.000068621
   2   Al  :    0.000001618    0.000000525   -0.000136270
   3   H   :    0.000032616   -0.000043882   -0.000027916
   4   H   :   -0.000036796   -0.000018621   -0.000080671
   5   H   :   -0.000030251    0.000044342   -0.000027159
   6   H   :   -0.000040883    0.000056322    0.000040324
   7   H   :   -0.000012900   -0.000003133    0.000064872
   8   H   :    0.000036187    0.000018267   -0.000079605
   9   Al  :    0.000019691   -0.000115888    0.000068922
  10   H   :    0.000044937   -0.000056581    0.000040437
  11   H   :   -0.000038149   -0.000079828    0.000034747
  12   H   :    0.000042512    0.000082249    0.000033697

Difference to translation invariance:
           :    0.0000000000    0.0000000000    0.0000000000

Difference to rotation invariance:
           :   -0.0000000000   -0.0000000000    0.0000000000

Norm of the Dispersion gradient    ...    0.0003401954
RMS gradient                       ...    0.0000566992
MAX gradient                       ...    0.0001362704
gCP correction                   ... done

------------------
CARTESIAN GRADIENT
------------------

   1   Al  :    0.006107433    0.006556240   -0.002720923
   2   Al  :    0.000915863   -0.000443960    0.000053293
   3   H   :   -0.000231412   -0.000906136   -0.001140947
   4   H   :   -0.000172516    0.000002788    0.000041416
   5   H   :   -0.000403047   -0.000710574    0.000774863
   6   H   :   -0.000390147   -0.002058865    0.000543502
   7   H   :   -0.009985314   -0.007152203    0.003893526
   8   H   :   -0.000176215    0.000019467   -0.000147043
   9   Al  :    0.006340119    0.000319873   -0.001170067
  10   H   :   -0.000309178   -0.001841969   -0.000458069
  11   H   :   -0.000881285    0.003352467    0.001662855
  12   H   :   -0.000814302    0.002862873   -0.001332406

Difference to translation invariance:
           :   -0.0000000000   -0.0000000000   -0.0000000000

Difference to rotation invariance:
           :   -0.0000062606   -0.0000037567    0.0000347413

Norm of the Cartesian gradient     ...    0.0182686739
RMS gradient                       ...    0.0030447790
MAX gradient                       ...    0.0099853142

-------
TIMINGS
-------

Total SCF gradient time     ....        3.708 sec

Densities                   ....       0.001 sec  (  0.0%)
One electron gradient       ....       0.080 sec  (  2.2%)
RI-J Coulomb gradient       ....       0.335 sec  (  9.0%)
COSX gradient               ....       2.404 sec  ( 64.8%)
XC gradient                 ....       0.735 sec  ( 19.8%)

Maximum memory used throughout the entire SCFGRAD-calculation: 26.5 MB
------------------------------------------------------------------------------
                         ORCA GEOMETRY RELAXATION STEP
------------------------------------------------------------------------------

Reading the OPT-File                    .... done
Getting information on internals        .... done
Copying old internal coords+grads       .... done
Making the new internal coordinates     .... (2022 redundants) done
Validating the new internal coordinates .... (2022 redundants) done
Calculating the B-matrix                .... done
Calculating the G,G- and P matrices     .... done
Transforming gradient to internals      .... done
Projecting the internal gradient        .... done
Number of atoms                         ....  12
Number of internal coordinates          .... 117
Current Energy                          ....  -731.684587756 Eh
Current gradient norm                   ....     0.018268674 Eh/bohr
Maximum allowed component of the step   ....  0.300
Current trust radius                    ....  0.300
Evaluating the initial hessian          ....  (Almloef) done
Projecting the Hessian                  .... done
Forming the augmented Hessian           .... done
Diagonalizing the augmented Hessian     .... done
Last element of RFO vector              ....  0.995336706
Lowest eigenvalues of augmented Hessian:
 -0.000851447  0.019022664  0.020100078  0.028841744  0.062033641
Length of the computed step             ....  0.096913548
The final length of the internal step   ....  0.096913548
Converting the step to Cartesian space:
 Initial RMS(Int)=    0.0089596607
Transforming coordinates:
 Iter   0:  RMS(Cart)=    0.0100936006 RMS(Int)=    0.0090347717
done
Storing new coordinates                 .... done

                                .--------------------.
          ----------------------|Geometry convergence|-------------------------
          Item                value                   Tolerance       Converged
          ---------------------------------------------------------------------
          RMS gradient        0.0011557986            0.0000080000      NO
          MAX gradient        0.0058326905            0.0000300000      NO
          RMS step            0.0089596607            0.0001000000      NO
          MAX step            0.0271220391            0.0002000000      NO
          -------------------------------------------------------------------------
          ........................................................
          Max(Bonds)      0.0144      Max(Angles)    1.32
          Max(Dihed)        1.42      Max(Improp)    0.00
          ---------------------------------------------------------------------

The optimization has not yet converged - more geometry cycles are needed


    ---------------------------------------------------------------------------
                         Redundant Internal Coordinates
                            (Angstroem and degrees)

        Definition                    Value    dE/dq     Step     New-Value
    ----------------------------------------------------------------------------
     1. B(Al  1,Al  0)                3.0868  0.000490 -0.0021    3.0847   
     2. B(H   2,Al  1)                1.6982 -0.000253  0.0005    1.6987   
     3. B(H   3,Al  1)                1.5705  0.000108 -0.0001    1.5704   
     4. B(H   4,Al  1)                1.6982  0.000106 -0.0014    1.6967   
     5. B(H   4,Al  0)                1.6964 -0.000217 -0.0002    1.6963   
     6. B(H   5,Al  0)                1.5705 -0.000243  0.0003    1.5708   
     7. B(H   6,Al  0)                1.7501  0.005833 -0.0144    1.7357   
     8. B(H   7,Al  1)                1.5705 -0.000054  0.0001    1.5705   
     9. B(Al  8,H   6)                1.7076  0.000228 -0.0009    1.7068   
    10. B(Al  8,H   2)                1.6965  0.000709 -0.0008    1.6957   
    11. B(Al  8,Al  1)                3.0893 -0.000297 -0.0003    3.0891   
    12. B(Al  8,Al  0)                3.0986  0.001298 -0.0057    3.0929   
    13. B(H   9,Al  8)                1.5705  0.000236 -0.0003    1.5702   
    14. B(H  10,Al  8)                1.5722 -0.000776  0.0010    1.5731   
    15. B(H  11,Al  0)                1.5723  0.000562 -0.0007    1.5716   
    16. A(H   4,Al  0,H   6)           93.54 -0.000032    0.43     93.98   
    17. A(Al  1,Al  0,H   4)           24.60 -0.000199    0.02     24.62   
    18. A(Al  1,Al  0,Al  8)           59.93 -0.000236    0.08     60.01   
    19. A(Al  8,Al  0,H  11)          104.15  0.001780   -0.43    103.73   
    20. A(H   4,Al  0,H   5)          105.78 -0.000226    0.07    105.85   
    21. A(H   6,Al  0,H  11)          115.91  0.002590   -1.12    114.78   
    22. A(Al  1,Al  0,H   5)          129.69 -0.000501    0.11    129.79   
    23. A(Al  1,Al  0,H  11)           91.43  0.000469   -0.01     91.42   
    24. A(H   5,Al  0,H  11)          129.21 -0.000274   -0.01    129.19   
    25. A(H   5,Al  0,H   6)           98.97 -0.001970    0.71     99.68   
    26. A(H   4,Al  0,Al  8)           74.82 -0.000508    0.14     74.96   
    27. A(Al  1,Al  0,H   6)           84.03  0.000557    0.12     84.15   
    28. A(H   5,Al  0,Al  8)          121.02 -0.001034    0.28    121.30   
    29. A(H   4,Al  0,H  11)          107.50 -0.000109    0.11    107.60   
    30. A(H   6,Al  0,Al  8)           26.00  0.000990   -0.18     25.82   
    31. A(H   2,Al  1,H   7)          105.47  0.000237   -0.06    105.41   
    32. A(H   3,Al  1,H   4)          105.45 -0.000097    0.06    105.51   
    33. A(Al  0,Al  1,H   3)          124.99 -0.000284    0.03    125.02   
    34. A(H   2,Al  1,H   4)           94.94  0.000245   -0.06     94.88   
    35. A(H   4,Al  1,Al  8)           75.08 -0.000096   -0.01     75.07   
    36. A(H   3,Al  1,Al  8)          100.02 -0.000553    0.00    100.02   
    37. A(H   2,Al  1,H   3)          108.67 -0.000519    0.05    108.72   
    38. A(H   2,Al  1,Al  8)           24.48  0.000336   -0.01     24.47   
    39. A(Al  0,Al  1,Al  8)           60.23  0.000238   -0.10     60.13   
    40. A(H   7,Al  1,Al  8)          125.15  0.000482   -0.04    125.11   
    41. A(Al  0,Al  1,H   4)           24.57 -0.000244    0.04     24.61   
    42. A(H   4,Al  1,H   7)          108.68  0.000124   -0.03    108.65   
    43. A(Al  0,Al  1,H   7)          100.28  0.000176    0.02    100.30   
    44. A(Al  0,Al  1,H   2)           74.82  0.000547   -0.15     74.67   
    45. A(H   3,Al  1,H   7)          128.56  0.000067    0.02    128.58   
    46. A(Al  1,H   2,Al  8)          131.02 -0.000535   -0.00    131.02   
    47. A(Al  0,H   4,Al  1)          130.83  0.000443   -0.06    130.77   
    48. A(Al  0,H   6,Al  8)          127.31 -0.002861    0.59    127.90   
    49. A(Al  1,Al  8,H   2)           24.50  0.000199    0.01     24.51   
    50. A(Al  0,Al  8,H   2)           74.48  0.000235   -0.03     74.45   
    51. A(Al  0,Al  8,Al  1)           59.85 -0.000002    0.02     59.87   
    52. A(H   6,Al  8,H  10)           95.96 -0.004673    1.32     97.28   
    53. A(H   2,Al  8,H  10)          107.54  0.001233   -0.17    107.37   
    54. A(Al  1,Al  8,H  10)           91.62  0.000043   -0.03     91.58   
    55. A(Al  0,Al  8,H  10)          104.99 -0.003096    0.50    105.49   
    56. A(H   6,Al  8,H   9)          113.88  0.001632   -0.65    113.22   
    57. A(H   9,Al  8,H  10)          129.19  0.000289    0.00    129.19   
    58. A(H   2,Al  8,H   9)          105.76 -0.000118   -0.16    105.60   
    59. A(Al  1,Al  8,H   9)          129.54  0.000287   -0.16    129.38   
    60. A(Al  0,Al  8,H   9)          120.31  0.002037   -0.30    120.02   
    61. A(H   2,Al  8,H   6)          101.15  0.002089   -0.41    100.74   
    62. A(Al  1,Al  8,H   6)           84.60  0.001609   -0.15     84.46   
    63. A(Al  0,Al  8,H   6)           26.69  0.001872   -0.41     26.29   
    64. D(H   2,Al  1,Al  0,H   4)   -143.91  0.000357   -0.23   -144.14   
    65. D(H   3,Al  1,Al  0,H   6)     70.69 -0.001109    0.54     71.23   
    66. D(H   3,Al  1,Al  0,H   5)    -26.02  0.000988   -0.49    -26.51   
    67. D(H   3,Al  1,Al  0,Al  8)     81.04 -0.000390   -0.09     80.95   
    68. D(H   2,Al  1,Al  0,Al  8)    -21.38 -0.000147   -0.05    -21.42   
    69. D(H   3,Al  1,Al  0,H   4)    -41.50  0.000114   -0.28    -41.77   
    70. D(H   2,Al  1,Al  0,H   6)    -31.72 -0.000866    0.58    -31.14   
    71. D(H   2,Al  1,Al  0,H   5)   -128.43  0.001231   -0.44   -128.88   
    72. D(H   2,Al  1,Al  0,H  11)     84.18  0.001677   -0.55     83.63   
    73. D(H   3,Al  1,Al  0,H  11)   -173.41  0.001434   -0.59   -174.00   
    74. D(Al  8,H   2,Al  1,H   7)    146.49 -0.000002    0.10    146.59   
    75. D(Al  8,H   2,Al  1,H   3)    -72.60 -0.000146    0.11    -72.49   
    76. D(Al  8,H   2,Al  1,Al  0)     49.78 -0.000267    0.10     49.88   
    77. D(Al  8,H   2,Al  1,H   4)     35.54 -0.000261    0.16     35.71   
    78. D(Al  1,H   4,Al  0,H   5)   -167.68  0.000767   -0.18   -167.86   
    79. D(Al  0,H   4,Al  1,H   7)    -73.38  0.000084   -0.16    -73.53   
    80. D(Al  0,H   4,Al  1,Al  8)     49.23  0.000561   -0.20     49.03   
    81. D(Al  0,H   4,Al  1,H   3)    145.72 -0.000029   -0.21    145.51   
    82. D(Al  0,H   4,Al  1,H   2)     34.79  0.000458   -0.25     34.54   
    83. D(Al  1,H   4,Al  0,H  11)     51.27  0.001419   -0.31     50.95   
    84. D(Al  1,H   4,Al  0,Al  8)    -49.11 -0.000373    0.13    -48.98   
    85. D(Al  1,H   4,Al  0,H   6)    -67.32 -0.001328    0.70    -66.62   
    86. D(Al  8,H   6,Al  0,H   4)     43.48  0.000699   -1.26     42.22   
    87. D(Al  8,H   6,Al  0,Al  1)     20.77  0.000672   -1.15     19.62   
    88. D(Al  8,H   6,Al  0,H   5)    150.07  0.000242   -1.03    149.04   
    89. D(Al  8,H   6,Al  0,H  11)    -67.92  0.000175   -1.33    -69.25   
    90. D(Al  1,Al  8,Al  0,H  11)    -83.32  0.000603   -0.28    -83.60   
    91. D(Al  1,Al  8,Al  0,H   6)    155.95 -0.000878    1.37    157.32   
    92. D(Al  1,Al  8,Al  0,H   5)    120.85 -0.000363    0.07    120.92   
    93. D(H   2,Al  8,Al  0,Al  1)     21.43  0.000062    0.05     21.49   
    94. D(Al  1,Al  8,Al  0,H   4)     21.32  0.000010   -0.05     21.28   
    95. D(H   9,Al  8,H   6,Al  0)    110.39  0.000874    0.72    111.11   
    96. D(H   2,Al  8,H   6,Al  0)     -2.57 -0.000822    1.40     -1.17   
    97. D(Al  1,Al  8,H   6,Al  0)    -20.73 -0.000686    1.15    -19.57   
    98. D(H  10,Al  8,H   2,Al  1)     51.54 -0.003197    0.42     51.97   
    99. D(H   9,Al  8,H   2,Al  1)   -167.40 -0.001874    0.15   -167.25   
   100. D(H   6,Al  8,H   2,Al  1)    -48.43  0.000789   -0.81    -49.24   
   101. D(H   6,Al  8,Al  1,H   2)    132.49  0.001379   -0.89    131.61   
   102. D(H   6,Al  8,Al  1,Al  0)     10.59  0.001036   -0.72      9.87   
   103. D(H   2,Al  8,Al  1,H   7)    -40.60 -0.000237    0.14    -40.46   
   104. D(H   2,Al  8,Al  1,H   4)   -143.17 -0.000270    0.18   -143.00   
   105. D(H   2,Al  8,Al  1,H   3)    113.36 -0.000286    0.12    113.48   
   106. D(H   2,Al  8,Al  1,Al  0)   -121.90 -0.000343    0.16   -121.74   
   107. D(Al  0,Al  8,Al  1,H   7)     81.30  0.000106   -0.02     81.27   
   108. D(Al  0,Al  8,Al  1,H   4)    -21.27  0.000073    0.01    -21.26   
   109. D(Al  0,Al  8,H   2,Al  1)    -49.63  0.000330   -0.14    -49.77   
   110. D(Al  0,Al  8,Al  1,H   3)   -124.74  0.000057   -0.05   -124.78   
   111. D(Al  0,Al  8,Al  1,H   2)    121.90  0.000343   -0.16    121.74   
   112. D(H   6,Al  8,Al  0,Al  1)   -155.95  0.000878   -1.37   -157.32   
   113. D(H   2,Al  8,Al  0,H  11)    -61.89  0.000665   -0.22    -62.11   
   114. D(H   2,Al  8,Al  0,H   6)    177.39 -0.000816    1.42    178.81   
   115. D(H   2,Al  8,Al  0,H   5)    142.29 -0.000301    0.12    142.41   
   116. D(H  10,Al  8,H   6,Al  0)   -111.79 -0.001327    1.32   -110.47   
   117. D(H   2,Al  8,Al  0,H   4)     42.76  0.000072    0.01     42.76   
    ----------------------------------------------------------------------------

Geometry step timings:
Preparation and reading OPT file:      0.000 s ( 0.282 %)
Internal coordinates            :      0.000 s ( 0.463 %)
B/P matrices and projection     :      0.002 s (13.667 %)
Hessian update/contruction      :      0.001 s ( 7.708 %)
Making the step                 :      0.008 s (66.408 %)
Converting the step to Cartesian:      0.000 s ( 2.227 %)
Storing new data                :      0.000 s ( 0.416 %)
Checking convergence            :      0.000 s ( 0.714 %)
Final printing                  :      0.001 s ( 8.100 %)
Total time                      :      0.013 s

Time for energy+gradient        :     21.623 s
Time for complete geometry iter :     22.397 s

         *************************************************************
         *                GEOMETRY OPTIMIZATION CYCLE   2            *
         *************************************************************
---------------------------------
CARTESIAN COORDINATES (ANGSTROEM)
---------------------------------
  Al    -0.245199    1.526010    2.572608
  Al    -0.002566   -0.000421   -0.096928
  H      0.773139   -0.980788    1.053250
  H     -1.155068   -0.828239   -0.769604
  H     -0.765584    0.990887    1.049407
  H     -1.512350    2.142683    3.266435
  H     -0.272262   -0.061739    3.273456
  H      1.144645    0.820909   -0.786790
  Al     0.264293   -1.524541    2.576701
  H      1.548717   -2.105375    3.268383
  H     -1.150315   -2.187070    2.390536
  H      1.189080    2.143375    2.395016

----------------------------
CARTESIAN COORDINATES (A.U.)
----------------------------
  NO LB      ZA    FRAG     MASS         X           Y           Z
   0 Al   13.0000    0    26.982   -0.463360    2.883741    4.861525
   1 Al   13.0000    0    26.982   -0.004849   -0.000796   -0.183167
   2 H     1.0000    0     1.008    1.461021   -1.853421    1.990353
   3 H     1.0000    0     1.008   -2.182763   -1.565145   -1.454342
   4 H     1.0000    0     1.008   -1.446744    1.872504    1.983092
   5 H     1.0000    0     1.008   -2.857928    4.049083    6.172667
   6 H     1.0000    0     1.008   -0.514500   -0.116670    6.185936
   7 H     1.0000    0     1.008    2.163065    1.551294   -1.486817
   8 Al   13.0000    0    26.982    0.499441   -2.880965    4.869259
   9 H     1.0000    0     1.008    2.926650   -3.978582    6.176349
  10 H     1.0000    0     1.008   -2.173779   -4.132963    4.517458
  11 H     1.0000    0     1.008    2.247036    4.050391    4.525924

--------------------------------
INTERNAL COORDINATES (ANGSTROEM)
--------------------------------
 Al     0   0   0     0.000000000000     0.00000000     0.00000000
 Al     1   0   0     3.084685722103     0.00000000     0.00000000
 H      2   1   0     1.698748172149    74.66550955     0.00000000
 H      2   1   3     1.570362610321   125.01818713   102.36864883
 H      1   2   3     1.696260453024    24.61860287   215.85739577
 H      1   2   3     1.570780363263   129.79064079   231.12272081
 H      1   2   3     1.735761555293    84.14619457   328.86042387
 H      2   1   3     1.570536643021   100.30038985   256.69433056
 Al     3   2   1     1.695728489680   131.01970199    49.88186682
 H      9   3   2     1.570202673606   105.59918985   192.75144080
 H      9   3   2     1.573123072236   107.37159404    51.96681534
 H      1   2   3     1.571571334366    91.42161307    83.63023998

---------------------------
INTERNAL COORDINATES (A.U.)
---------------------------
 Al     0   0   0     0.000000000000     0.00000000     0.00000000
 Al     1   0   0     5.829211223991     0.00000000     0.00000000
 H      2   1   0     3.210168815861    74.66550955     0.00000000
 H      2   1   3     2.967555264456   125.01818713   102.36864883
 H      1   2   3     3.205467708016    24.61860287   215.85739577
 H      1   2   3     2.968344703108   129.79064079   231.12272081
 H      1   2   3     3.280113973293    84.14619457   328.86042387
 H      2   1   3     2.967884138598   100.30038985   256.69433056
 Al     3   2   1     3.204462442982   131.01970199    49.88186682
 H      9   3   2     2.967253027867   105.59918985   192.75144080
 H      9   3   2     2.972771781479   107.37159404    51.96681534
 H      1   2   3     2.969839421872    91.42161307    83.63023998



           ************************************************************
           *        Program running with 24 parallel MPI-processes    *
           *              working on a common directory               *
           ************************************************************
------------------------------------------------------------------------------
                   ___                                                        
                  /   \      - P O W E R E D   B Y -                         
                 /     \                                                     
                 |  |  |   _    _      __       _____    __    __             
                 |  |  |  | |  | |    /  \     |  _  \  |  |  /  |          
                  \  \/   | |  | |   /    \    | | | |  |  | /  /          
                 / \  \   | |__| |  /  /\  \   | |_| |  |  |/  /          
                |  |  |   |  __  | /  /__\  \  |    /   |      \           
                |  |  |   | |  | | |   __   |  |    \   |  |\   \          
                \     /   | |  | | |  |  |  |  | |\  \  |  | \   \       
                 \___/    |_|  |_| |__|  |__|  |_| \__\ |__|  \__/        
                                                                              
                      - O R C A' S   B I G   F R I E N D -                    
                                      &                                       
                       - I N T E G R A L  F E E D E R -                       
                                                                              
 v1 FN, 2020, v2 2021, v3 2022-2024                                           
------------------------------------------------------------------------------


----------------------
SHARK INTEGRAL PACKAGE
----------------------

Number of atoms                             ...     12
Number of basis functions                   ...     72
Number of shells                            ...     42
Maximum angular momentum                    ...      2
Integral batch strategy                     ... SHARK/LIBINT Hybrid
RI-J (if used) integral strategy            ... SPLIT-RIJ (Revised 2003 algorithm where possible)
Printlevel                                  ...      1
Contraction scheme used                     ... SEGMENTED contraction
Prescreening option                         ... SCHWARTZ
   Thresh                                   ... 3.000e-16
   Tcut                                     ... 3.000e-16
   Tpresel                                  ... 3.000e-16 
Coulomb Range Separation                    ... NOT USED
Exchange Range Separation                   ... NOT USED
Multipole approximations                    ... NOT USED
Finite Nucleus Model                        ... NOT USED
CABS basis                                  ... NOT available
Auxiliary Coulomb fitting basis             ... AVAILABLE
   # of basis functions in Aux-J            ...    252
   # of shells in Aux-J                     ...     96
   Maximum angular momentum in Aux-J        ...      4
Auxiliary J/K fitting basis                 ... NOT available
Auxiliary Correlation fitting basis         ... NOT available
Auxiliary 'external' fitting basis          ... NOT available

Checking pre-screening integrals            ... done (  0.0 sec) Dimension = 42
   => SHARK Basis and OBASIS are compatible. Storing Pre-screening
Shell pair information
Shell pair cut-off parameter TPreSel        ...   3.0e-16
Total number of shell pairs                 ...       903
Shell pairs after pre-screening             ...       882
[...]
      3       0.002488  -0.002717  -0.007111   0.011592   0.027295  -0.025656
      4       0.004227   0.000417  -0.007133   0.005935   0.015478  -0.015707
      5       0.005419  -0.013204  -0.007428  -0.002294  -0.004934   0.002663
      6       0.004119  -0.000462  -0.027612   0.004276  -0.008360  -0.004831
      7      -0.002252   0.000474   0.151783   0.005032   0.045643  -0.001429
      8      -0.000058  -0.006287  -0.257939  -0.000209  -0.077776  -0.000347
      9      -0.142572   0.395858   0.453462  -0.147008  -0.266708   0.332415
     10      -0.086817   0.249813   0.281979  -0.094099  -0.166995   0.207222
     11      -0.066113   0.185938   0.214700  -0.071732  -0.131553   0.158550
     12       0.007767   0.011592   0.009293  -0.008664   0.006420  -0.004823
     13      -0.069079  -0.076343  -0.062743   0.032796  -0.010123   0.006604
     14      -0.132495  -0.140742  -0.118824   0.059986  -0.023093   0.015742
     15      -0.273010  -0.036072  -0.000131   0.651637  -0.018121   0.233929
     16       0.187771   0.027848  -0.001539  -0.457531   0.012588  -0.162387
     17       0.139288   0.020315   0.003318  -0.337931   0.009646  -0.120235
     18       0.022173   0.025542  -0.022611  -0.015322  -0.008035  -0.006621
     19      -0.148542  -0.152473   0.136018   0.068252   0.020162   0.015934
     20       0.001546  -0.001441  -0.000295   0.001357  -0.001187  -0.000992
     21       0.042441  -0.352620  -0.221946  -0.156191  -0.460882   0.361824
     22       0.026202  -0.204224  -0.134137  -0.092424  -0.271042   0.210436
     23      -0.025285   0.227202   0.146855   0.105695   0.306318  -0.237021
     24       0.001905  -0.000187   0.006268   0.010942  -0.028935  -0.027774
     25       0.006894  -0.011104   0.011053   0.001794  -0.005891  -0.008070
     26       0.000685   0.007153   0.001214   0.003874  -0.011397  -0.011130
     27       0.045681  -0.393921   0.271678  -0.153301   0.523164   0.422837
     28      -0.004595   0.061499  -0.042818   0.026979  -0.087596  -0.069003
     29       0.026560  -0.225136   0.161480  -0.090875   0.306294   0.244185
     30      -0.133202   0.365276  -0.449378  -0.130566   0.256606   0.329032
     31      -0.109989   0.307413  -0.378187  -0.112860   0.221876   0.278446
     32      -0.020882   0.063546  -0.073639  -0.022752   0.040699   0.053735
     33       0.852128   0.182316   0.000871   0.304957  -0.009534   0.239170
     34       0.174496   0.034844   0.000462   0.068475  -0.002872   0.050530
     35       0.013702   0.001480  -0.000314   0.008462   0.000964   0.004779


-----------
IR SPECTRUM
-----------

 Mode   freq       eps      Int      T**2         TX        TY        TZ
       cm**-1   L/(mol*cm) km/mol    a.u.
----------------------------------------------------------------------------
  6:     64.02   0.000201    1.01  0.000978  ( 0.001496 -0.015620  0.027060)
  7:    104.93   0.000583    2.94  0.001733  ( 0.040858 -0.004616 -0.006471)
  8:    137.80   0.000063    0.32  0.000144  ( 0.001094 -0.010301 -0.006029)
  9:    242.04   0.000374    1.89  0.000482  ( 0.002093 -0.011235  0.018752)
 10:    294.86   0.001850    9.35  0.001958  (-0.035725  0.020580  0.016068)
 11:    331.13   0.000672    3.40  0.000634  (-0.022231  0.009011  0.007622)
 12:    440.35   0.000354    1.79  0.000251  ( 0.009956 -0.005345 -0.011114)
 13:    440.71   0.000500    2.53  0.000354  ( 0.004953 -0.011904  0.013715)
 14:    452.98   0.001416    7.16  0.000976  ( 0.002928 -0.015900  0.026724)
 15:    518.55   0.000104    0.53  0.000063  ( 0.000711 -0.003985  0.006802)
 16:    563.52   0.020532  103.76  0.011370  ( 0.080571 -0.055314 -0.042648)
 17:    582.87   0.017086   86.34  0.009147  ( 0.010013 -0.049407  0.081278)
 18:    710.15   0.128752  650.66  0.056578  (-0.022053  0.118601 -0.205001)
 19:    710.27   0.131010  662.07  0.057560  (-0.016306 -0.207799 -0.118801)
 20:    752.48   0.000370    1.87  0.000153  (-0.010451  0.005352  0.003928)
 21:    789.09   0.045647  230.68  0.018052  ( 0.011378 -0.067247  0.115761)
 22:    805.29   0.052183  263.71  0.020222  ( 0.016613 -0.121386 -0.072189)
 23:    827.17   0.025387  128.30  0.009578  (-0.067789 -0.063338 -0.031156)
 24:   1028.17   0.062528  315.99  0.018978  ( 0.123531 -0.046228 -0.039764)
 25:   1088.35   0.039717  200.71  0.011388  (-0.009372  0.054121 -0.091494)
 26:   1145.44   0.010667   53.91  0.002906  ( 0.049436 -0.015527 -0.014868)
 27:   1818.15   0.005255   26.56  0.000902  (-0.002876  0.015945 -0.025288)
 28:   1897.25   0.243876  1232.45  0.040113  (-0.022276  0.171474  0.101063)
 29:   1914.85   0.262979  1328.99  0.042858  (-0.018815  0.102795 -0.178709)
 30:   2012.63   0.006548   33.09  0.001015  (-0.025999  0.014612  0.011218)
 31:   2018.68   0.001339    6.77  0.000207  (-0.013563 -0.004757 -0.000627)
 32:   2021.90   0.002948   14.90  0.000455  ( 0.001656 -0.010600  0.018435)
 33:   2029.28   0.010464   52.88  0.001609  (-0.019454  0.029674  0.018714)
 34:   2030.15   0.003561   18.00  0.000547  (-0.000366  0.011320 -0.020473)
 35:   2035.66   0.089032  449.93  0.013648  (-0.111985 -0.032430 -0.007494)

* The epsilon (eps) is given for a Dirac delta lineshape.
** The dipole moment derivative (T) already includes vibrational overlap.

--------------
RAMAN SPECTRUM  
--------------

 Mode    freq (cm**-1)   Activity   Depolarization
-------------------------------------------------------------------
   6:        64.02      0.125995      0.749874
   7:       104.93      0.494576      0.656153
   8:       137.80      1.782690      0.424307
   9:       242.04      4.293370      0.750000
  10:       294.86      5.561978      0.551758
  11:       331.13     10.893871      0.459019
  12:       440.35     10.044360      0.749211
  13:       440.71     12.267572      0.749927
  14:       452.98      4.871786      0.750000
  15:       518.55      2.579831      0.749999
  16:       563.52      5.121448      0.654598
  17:       582.87      0.282678      0.747860
  18:       710.15      8.505488      0.749999
  19:       710.27      8.056210      0.749789
  20:       752.48      5.048443      0.661579
  21:       789.09      6.520291      0.750000
  22:       805.29      5.924512      0.687287
  23:       827.17      6.410377      0.694369
  24:      1028.17     10.964202      0.305811
  25:      1088.35      8.171614      0.749487
  26:      1145.44     86.633651      0.036352
  27:      1818.15      1.203316      0.750000
  28:      1897.25     13.954897      0.743662
  29:      1914.85      7.243770      0.749995
  30:      2012.63    238.486032      0.046025
  31:      2018.68    264.033588      0.039964
  32:      2021.90      8.939725      0.731384
  33:      2029.28    100.859128      0.301587
  34:      2030.15     58.495738      0.749668
  35:      2035.66     26.891152      0.749237

The first frequency considered to be a vibration is 6
The total number of vibrations considered is 30


--------------------------
THERMOCHEMISTRY AT 298.15K
--------------------------

Temperature         ...   298.15 K
Pressure            ...     1.00 atm
Total Mass          ...    90.02 AMU
Quasi RRHO          ...     True
Cut-Off Frequency   ...     1.00 cm^-1

Throughout the following assumptions are being made:
  (1) The electronic state is orbitally nondegenerate
  (2) There are no thermally accessible electronically excited states
  (3) Hindered rotations indicated by low frequency modes are not
      treated as such but are treated as vibrations and this may
      cause some error
  (4) All equations used are the standard statistical mechanics
      equations for an ideal gas
  (5) All vibrations are strictly harmonic

freq.      64.02  E(vib)   ...       0.51 
freq.     104.93  E(vib)   ...       0.46 
freq.     137.80  E(vib)   ...       0.42 
freq.     242.04  E(vib)   ...       0.31 
freq.     294.86  E(vib)   ...       0.27 
freq.     331.13  E(vib)   ...       0.24 
freq.     440.35  E(vib)   ...       0.17 
freq.     440.71  E(vib)   ...       0.17 
freq.     452.98  E(vib)   ...       0.16 
freq.     518.55  E(vib)   ...       0.13 
freq.     563.52  E(vib)   ...       0.11 
freq.     582.87  E(vib)   ...       0.11 
freq.     710.15  E(vib)   ...       0.07 
freq.     710.27  E(vib)   ...       0.07 
freq.     752.48  E(vib)   ...       0.06 
freq.     789.09  E(vib)   ...       0.05 
freq.     805.29  E(vib)   ...       0.05 
freq.     827.17  E(vib)   ...       0.04 
freq.    1028.17  E(vib)   ...       0.02 
freq.    1088.35  E(vib)   ...       0.02 
freq.    1145.44  E(vib)   ...       0.01 
freq.    1818.15  E(vib)   ...       0.00 
freq.    1897.25  E(vib)   ...       0.00 
freq.    1914.85  E(vib)   ...       0.00 
freq.    2012.63  E(vib)   ...       0.00 
freq.    2018.68  E(vib)   ...       0.00 
freq.    2021.90  E(vib)   ...       0.00 
freq.    2029.28  E(vib)   ...       0.00 
freq.    2030.15  E(vib)   ...       0.00 
freq.    2035.66  E(vib)   ...       0.00 

------------
INNER ENERGY
------------

The inner energy is: U= E(el) + E(ZPE) + E(vib) + E(rot) + E(trans)
    E(el)   - is the total energy from the electronic structure calculation
              = E(kin-el) + E(nuc-el) + E(el-el) + E(nuc-nuc)
    E(ZPE)  - the the zero temperature vibrational energy from the frequency calculation
    E(vib)  - the the finite temperature correction to E(ZPE) due to population
              of excited vibrational states
    E(rot)  - is the rotational thermal energy
    E(trans)- is the translational thermal energy

Summary of contributions to the inner energy U:
Electronic energy                ...   -731.68783264 Eh
Zero point energy                ...      0.06790922 Eh      42.61 kcal/mol
Thermal vibrational correction   ...      0.00549609 Eh       3.45 kcal/mol
Thermal rotational correction    ...      0.00141627 Eh       0.89 kcal/mol
Thermal translational correction ...      0.00141627 Eh       0.89 kcal/mol
-----------------------------------------------------------------------
Total thermal energy                   -731.61159479 Eh


Summary of corrections to the electronic energy:
(perhaps to be used in another calculation)
Total thermal correction                  0.00832863 Eh       5.23 kcal/mol
Non-thermal (ZPE) correction              0.06790922 Eh      42.61 kcal/mol
-----------------------------------------------------------------------
Total correction                          0.07623785 Eh      47.84 kcal/mol


--------
ENTHALPY
--------

The enthalpy is H = U + kB*T
                kB is Boltzmann's constant
Total thermal energy              ...   -731.61159479 Eh 
Thermal Enthalpy correction       ...      0.00094421 Eh       0.59 kcal/mol
-----------------------------------------------------------------------
Total Enthalpy                    ...   -731.61065058 Eh


Note: Only C1 symmetry has been detected, increase convergence thresholds 
      if your molecule has a higher symmetry. Symmetry factor of 1.0 is   
      used for the rotational entropy correction. 
 

Note: Rotational entropy computed according to Herzberg 
Infrared and Raman Spectra, Chapter V,1, Van Nostrand Reinhold, 1945 
Point Group:  C1, Symmetry Number:   1  
Rotational constants in cm-1:     0.106902     0.101192     0.055872 

Vibrational entropy computed according to the QRRHO of S. Grimme
Chem.Eur.J. 2012 18 9955 using a reference frequency of 100.0 cm-1


-------
ENTROPY
-------

The entropy contributions are T*S = T*(S(el)+S(vib)+S(rot)+S(trans))
     S(el)   - electronic entropy
     S(vib)  - vibrational entropy
     S(rot)  - rotational entropy
     S(trans)- translational entropy
The entropies will be listed as multiplied by the temperature to get
units of energy

Electronic entropy                ...      0.00000000 Eh      0.00 kcal/mol
Vibrational entropy               ...      0.00928424 Eh      5.83 kcal/mol
Rotational entropy                ...      0.01300960 Eh      8.16 kcal/mol
Translational entropy             ...      0.01872231 Eh     11.75 kcal/mol
-----------------------------------------------------------------------
Final entropy term                ...      0.04101614 Eh     25.74 kcal/mol

In case the symmetry of your molecule has not been determined correctly
or in case you have a reason to use a different symmetry number we print 
out the resulting rotational entropy values for sn=1,12:

 non-linear molecules -----------------------------------
|  sn= 1 | S(rot)=       0.01300960 Eh      8.16 kcal/mol|
|  sn= 2 | S(rot)=       0.01235514 Eh      7.75 kcal/mol|
|  sn= 3 | S(rot)=       0.01197231 Eh      7.51 kcal/mol|
|  sn= 4 | S(rot)=       0.01170069 Eh      7.34 kcal/mol|
|  sn= 5 | S(rot)=       0.01149000 Eh      7.21 kcal/mol|
|  sn= 6 | S(rot)=       0.01131785 Eh      7.10 kcal/mol|
|  sn= 7 | S(rot)=       0.01117231 Eh      7.01 kcal/mol|
|  sn= 8 | S(rot)=       0.01104623 Eh      6.93 kcal/mol|
|  sn= 9 | S(rot)=       0.01093502 Eh      6.86 kcal/mol|
|  sn=10 | S(rot)=       0.01083554 Eh      6.80 kcal/mol|
|  sn=11 | S(rot)=       0.01074555 Eh      6.74 kcal/mol|
|  sn=12 | S(rot)=       0.01066340 Eh      6.69 kcal/mol|
 linear molecules ---------------------------------------
|  Dinfh | S(rot)=       0.00804948 Eh      5.05 kcal/mol|
|  Cinfv | S(rot)=       0.00870393 Eh      5.46 kcal/mol|
 --------------------------------------------------------


-------------------
GIBBS FREE ENERGY
-------------------

The Gibbs free energy is G = H - T*S

Total enthalpy                    ...   -731.61065058 Eh 
Total entropy correction          ...     -0.04101614 Eh    -25.74 kcal/mol
-----------------------------------------------------------------------
Final Gibbs free energy         ...   -731.65166672 Eh

For completeness - the Gibbs free energy minus the electronic energy
G-E(el)                           ...      0.03616592 Eh     22.69 kcal/mol


Maximum memory used throughout the entire PROP-calculation: 26.7 MB

--------------------------------
SUGGESTED CITATIONS FOR THIS RUN
--------------------------------

Below you find a list of papers that are relevant to this ORCA run
We neither can nor want to force you to cite these papers, but we appreciate if you do
You receive ORCA, which is the product of decades of hard work by many enthusiastic individuals, for free
The only thing we kindly ask in return is that you cite our papers,
We deeply appreciate it, if you show your appreciation for ORCA by not just citing the generic ORCA reference.

Please note that relegating all ORCA citations to the supporting information does *not* help us.
SI sections are not indexed - citations you put there will not count into any citation statistics
But we need these citations in order to attract the funding resources that allow us to do what we are doing

Therefore, if you are a happy ORCA user, please consider citing a few of the papers listed below in the main body of your paper

In addition to the list printed below, the program has created the file run.bibtex that contains the list in bibtex format
You can import this file easily into all common literature databanks and citation aid programs


List of essential papers. We consider these as the minimum necessary citations

  1. Neese, F.
     Software update: the ORCA program system, version 6.0
     WIRES Comput. Molec. Sci. 2025 15(1), e70019
     doi.org/10.1002/wcms.7019

List of papers to cite with high priority. The work reported in these papers was absolutely
necessary for this run to complete.
Our perspective: the developers of density functionals and basis sets usually get cited in chemistry papers
Good! But without the algorithms to do something with them, the functionals or basis sets would not do anything.
Hence, in our opinion, the algorithm design and method developments papers are equally worthy of getting cited

  1. Neese, F.
     An improvement of the resolution of the identity approximation for the formation of the Coulomb matrix
     J. Comp. Chem. 2003 24(14), 1740-1747
     doi.org/10.1002/jcc.10318
  2. Neese, F.; Wennmohs, F.; Hansen, A.; Becker, U.
     Efficient, approximate and parallel Hartree-Fock and hybrid DFT calculations. A 'chain-of-spheres' algorithm for the Hartree-Fock exchange
     Chem. Phys. 2009 356(1-3), 98-109
     doi.org/10.1016/j.chemphys.2008.10.036
  3. Grimme, S.; Antony, J.; Ehrlich, S.; Krieg, H.
     A consistent and accurate ab initio parametrization of density functional dispersion correction (DFT-D) for the 94 elements H-Pu
     J. Chem. Phys. 2010 132 , 154104
     doi.org/10.1063/1.3382344
  4. Grimme, S.; Ehrlich, S.; Goerigk, L.
     Effect of the damping function in dispersion corrected density functional theory
     J. Comput. Chem. 2011 32(7), 1456-1465
     doi.org/10.1002/jcc.21759
  5. Bykov, D.; Petrenko, T.; Izsak, R.; Kossmann, S.; Becker, U.; Valeev, E.; Neese, F.
     Efficient implementation of the analytic second derivatives of Hartree-Fock and hybrid DFT energies: a detailed analysis of different approximations
     Molec. Phys. 2015 113 , 1961-1977
     doi.org/10.1080/00268976.2015.1025114
  6. Helmich-Paris, B.; de Souza, B.; Neese, F.; Izsák, R.
     An improved chain of spheres for exchange algorithm
     J. Chem. Phys. 2021 155(10), 104109
     doi.org/10.1063/5.0058766
  7. Neese, F.
     The SHARK Integral Generation and Digestion System
     J. Comp. Chem. 2022 44(3), 381
     doi.org/10.1002/jcc.26942
  8. Petra, P.; Frank, N.
     Efficient calculation of analytic Raman intensities
     to be submitted 2025  , 

List of suggested additional citations. These are papers that are important in the 'surrounding' of 
of this run, or papers that preceded the highly important papers. If you like your results we are grateful for a citation.

  1. Izsak, R.; Neese, F.
     An overlap fitted chain of spheres exchange method
     J. Chem. Phys. 2011 135 , 144105
     doi.org/10.1063/1.3646921
  2. Izsak, R.; Hansen, A.; Neese, F.
     The resolution of identity and chain of spheres approximations for the LPNO-CCSD singles Fock term
     Molec. Phys. 2012 110 , 2413-2417
     doi.org/10.1080/00268976.2012.687466
  3. Neese, F.
     The ORCA program system
     WIRES Comput. Molec. Sci. 2012 2(1), 73-78
     doi.org/10.1002/wcms.81
  4. Izsak, R.; Neese, F.; Klopper, W.
     Robust fitting techniques in the chain of spheres approximation to the Fock exchange: The role of the complementary space
     J. Chem. Phys. 2013 139 , 
     doi.org/10.1063/1.4819264
  5. Neese, F.
     Software update: the ORCA program system, version 4.0
     WIRES Comput. Molec. Sci. 2018 8(1), 1-6
     doi.org/10.1002/wcms.1327
  6. Neese, F.; Wennmohs, F.; Becker, U.; Riplinger, C.
     The ORCA quantum chemistry program package
     J. Chem. Phys. 2020 152(22), 224108
     doi.org/10.1063/5.0004608
  7. Neese, F.
     Software update: The ORCA program system—Version 5.0
     WIRES Comput. Molec. Sci. 2022 12(1), e1606
     doi.org/10.1002/wcms.1606

List of optional additional citations

  1. Neese, F.
     Approximate second-order SCF convergence for spin unrestricted wavefunctions
     Chem. Phys. Lett. 2000 325(1-3), 93-98
     doi.org/10.1016/s0009-2614(00)00662-x

Timings for individual modules:

Sum of individual times          ...      964.154 sec (=  16.069 min)
Startup calculation              ...      270.320 sec (=   4.505 min)  28.0 %
SCF iterations                   ...      365.018 sec (=   6.084 min)  37.9 %
Property integrals               ...       51.338 sec (=   0.856 min)   5.3 %
SCF Response                     ...        7.061 sec (=   0.118 min)   0.7 %
Property calculations            ...       48.993 sec (=   0.817 min)   5.1 %
SCF Gradient evaluation          ...      220.847 sec (=   3.681 min)  22.9 %
Geometry relaxation              ...        0.577 sec (=   0.010 min)   0.1 %
                             ****ORCA TERMINATED NORMALLY****
TOTAL RUN TIME: 0 days 0 hours 16 minutes 51 seconds 333 msec
