
                                 *****************
                                 * O   R   C   A *
                                 *****************

                                            #,                                       
                                            ###                                      
                                            ####                                     
                                            #####                                    
                                            ######                                   
                                           ########,                                 
                                     ,,################,,,,,                         
                               ,,#################################,,                 
                          ,,##########################################,,             
                       ,#########################################, ''#####,          
                    ,#############################################,,   '####,        
                  ,##################################################,,,,####,       
                ,###########''''           ''''###############################       
              ,#####''   ,,,,##########,,,,          '''####'''          '####       
            ,##' ,,,,###########################,,,                        '##       
           ' ,,###''''                  '''############,,,                           
         ,,##''                                '''############,,,,        ,,,,,,###''
      ,#''                                            '''#######################'''  
     '                                                          ''''####''''         
             ,#######,   #######,   ,#######,      ##                                
            ,#'     '#,  ##    ##  ,#'     '#,    #''#        ,####,    ,#,          
            ##       ##  ##   ,#'  ##            #'  '#       #'       ,# #          
            ##       ##  #######   ##           ,######,      #####,      #          
            '#,     ,#'  ##    ##  '#,     ,#' ,#      #,     #,   #      #          
             '#######'   ##     ##  '#######'  #'      '#     '####' #    #          



                #########################################################
                #                        -***-                          #
                #          Department of theory and spectroscopy        #
                #                                                       #
                #                      Frank Neese                      #
                #                                                       #
                #     Directorship, Architecture, Infrastructure        #
                #                    SHARK, DRIVERS                     #
                #        Core code/Algorithms in most modules           #
                #                                                       #
                #        Max Planck Institute fuer Kohlenforschung      #
                #                Kaiser Wilhelm Platz 1                 #
                #                 D-45470 Muelheim/Ruhr                 #
                #                      Germany                          #
                #                                                       #
                #                  All rights reserved                  #
                #                        -***-                          #
                #########################################################


                         Program Version 6.1.0  -  RELEASE   -
                                (GIT: $679e74b$)
                          ($2025-06-10 18:02:51 +0200$)


 With contributions from (in alphabetic order):
[Max-Planck-Institut fuer Kohlenforschung]                               
  Daniel Aravena         : Magnetic Suceptibility                        
  Michael Atanasov       : Ab Initio Ligand Field Theory (pilot matlab implementation)
  Alexander A. Auer      : GIAO ZORA, VPT2 properties, NMR spectrum      
  Ute Becker             : All parallelization in ORCA, NUMFREQ, NUMCALC 
  Giovanni Bistoni       : ED, misc. LED, open-shell LED, HFLD           
  Dmytro Bykov           : pre 5.0 version of the SCF Hessian            
  Marcos Casanova-Páez   : Triplet and SCS-CIS(D). UHF-(DLPNO)-IP/EA/STEOM-CCSD. UHF-CVS-IP/STEOM-CCSD   
  Vijay G. Chilkuri      : MRCI spin determinant printing, contributions to CSF-ICE 
  Pauline Colinet        : FMM embedding                                 
  Dipayan Datta          : RHF DLPNO-CCSD density                        
  Achintya Kumar Dutta   : EOM-CC, STEOM-CC                              
  Nicolas Foglia         : Exact transition moments, OPA infrastructure, MCD improvements    
  Dmitry Ganyushin       : Spin-Orbit,Spin-Spin,Magnetic field MRCI      
  Miquel Garcia-Rates    : C-PCM and meta-GGA Hessian, CCSD/C-PCM, Gaussian charge scheme 
  Tiago L. C. Gouveia    : GS-ROHF, GS-ROCIS                             
  Yang Guo               : DLPNO-NEVPT2, F12-NEVPT2, CIM, IAO-localization        
  Andreas Hansen         : Spin unrestricted coupled pair/coupled cluster methods 
  Ingolf Harden          : AUTO-CI MPn and infrastructure                
  Benjamin Helmich-Paris : MC-RPA, TRAH-(SCF,CASSCF), AVAS, COSX integrals, SCF dyn. polar., MC-PDFT, srDFT 
  Lee Huntington         : MR-EOM, pCC                                   
  Robert Izsak           : Overlap fitted RIJCOSX, COSX-SCS-MP3, EOM     
  Riya Kayal             : Wick's Theorem for AUTO-CI, AUTO-CI UHF-CCSDT 
  Emily Kempfer          : AUTO-CI RHF CISDT and CCSDT, approximate NEVPT4
  Christian Kollmar      : KDIIS, OOCD, Brueckner-CCSD(T), CCSD density, CASPT2, CASPT2-K, improved NEVPT2 
  Axel Koslowski         : Symmetry handling                             
  Simone Kossmann        : meta-GGA functionals, TD-DFT gradient, OOMP2, (MP2 Hessian; deprecated post 5.0) 
  Lucas Lang             : DCDCAS, Hyperfine gauge corrections, ICE-SOC+SSC
  Marvin Lechner         : AUTO-CI (C++ implementation), FIC-MRCC        
  Spencer Leger          : CASSCF response                               
  Dagmar Lenk            : GEPOL surface, SMD, ORCA-2-JSON               
  Dimitrios Liakos       : Extrapolation schemes; Compound Job, Property file
  Dimitrios Manganas     : Further ROCIS development; embedding schemes. LFT, Crystal Embedding 
  Dimitrios Pantazis     : SARC Basis sets                               
  Anastasios Papadopoulos: AUTO-CI, single reference methods and gradients 
  Taras Petrenko         : pre 6.0 DFT Hessian and TD-DFT gradient,  ECA, NRVS 
  Petra Pikulova         : Analytic Raman intensities                    
  Peter Pinski           : DLPNO-MP2, DLPNO-MP2 Gradient                 
  Shashank Vittal Rao    : ES-AILFT, MagRelax                            
  Christoph Reimann      : Effective Core Potentials                     
  Marius Retegan         : Local ZFS, SOC                                
  Christoph Riplinger    : Optimizer, TS searches, QM/MM, DLPNO-CCSD(T), (RO)-DLPNO pert. Triples 
  Michael Roemelt        : Original ROCIS implementation, recursive CI coupling coefficients
  Masaaki Saitow         : Open-shell DLPNO-CCSD energy and density      
  Barbara Sandhoefer     : DKH picture change effects                    
  Yorick L. A. Schmerwitz: GMF and freeze-and-release deltaSCF, NEB S-IDPP initial path                    
  Kantharuban Sivalingam : CASSCF convergence/infrastructure, NEVPT2, NEVPT3, NEVPT4(SD), FIC-MRCI and CEPA variants
  Bernardo de Souza      : ESD, SOC TD-DFT                               
  Georgi L. Stoychev     : AutoAux, RI-MP2 NMR, DLPNO-MP2 response, X2C  
  Van Anh Tran           : RI-MP2 g-tensors                              
  Willem Van den Heuvel  : Paramagnetic NMR                              
  Zikuan Wang            : NOTCH, Electric field optimization            
  Frank Wennmohs         : Technical directorship and infrastructure     
  Hang Xu                : AUTO-CI-Response properties                   
                                                                         
[FACCTs GmbH]                                                            
  Markus Bursch, Nicolas Foglia, Miquel Garcia-Rates, Ingolf Harden, Hagen Neugebauer, Anastasios Papadopoulos, 
  Christoph Riplinger, Bernardo de Souza, Georgi L. Stoychev                                                    
                                                                 
  APM, various basis sets, CI-OPT, improved COSX, DLPNO-Multilevel,           
  DOCKER, DRACO, updates on ESD, Fragmentator, GOAT, IRC, LR-CPCM, L-BFGS, MBIS, meta-GGA TD-DFT gradient, ML-optimized integration grids, 
  MM, NACMEs, nearIR, NEB, NEB-TS, NL-DFT gradient (VV10), 2- and 3-layer-ONIOM, interface openCOSMO-RS, QMMM,   
  Crystal-QMMM, RESP, rigid body optimization, SF, symmetry and pop. for TD-DFT, various functionals, SOLVATOR                                   
                                                                         
[Other institutions]                                                     
  V. Asgeirsson          : NEB                                           
  Christoph Bannwarth    : sTDA-DFT, sTD-DFT, PBEh-3c, B97-3c, D3        
  Giovanni Bistoni       : ETS/NOCV, ADLD/ADEX, COVALED                  
  Martin Brehm           : Molecular dynamics                            
  Ronald Cardenas        : ETS/NOCV                                      
  Martina Colucci        : COVALED                                       
  Sebastian Ehlert       : rSCAN, r2SCAN, r2SCAN-3c, D4, dhf basis sets  
  Marvin Friede          : D4 for Fr, Ra, Ac-Lr                          
  Lars Goerigk           : TD-DFT with DH, B97 family of functionals     
  Stefan Grimme          : VdW corrections, initial TS optimization, DFT functionals, gCP, sTDA/sTD-DF 
  Waldemar Hujo          : DFT-NL                                        
  H. Jonsson             : NEB                                           
  Holger Kruse           : gCP                                           
  Marcel Mueller         : wB97X-3c, vDZP basis set                      
  Hagen Neugebauer       : wr2SCAN, Native XTB                           
  Gianluca Regni         : ADLD/ADEX                                     
  Tobias Risthaus        : pre 6.0 range-separated hybrid DFT and stability analysis
  Lukas Wittmann         : regularized MP2, r2SCAN double-hybrids, wr2SCAN        
                                                                         
We gratefully acknowledge several colleagues who have allowed us to      
interface, adapt or use parts of their codes:                            
  Ed Valeev, F. Pavosevic, A. Kumar             : LibInt (2-el integral package), F12 methods 
  Garnet Chan, S. Sharma, J. Yang, R. Olivares  : DMRG                   
  Ulf Ekstrom                                   : XCFun DFT Library      
  Mihaly Kallay                                 : mrcc  (arbitrary order and MRCC methods)
  Frank Weinhold                                : gennbo (NPA and NBO analysis)           
  Simon Mueller                                 : openCOSMO-RS                            
  Christopher J. Cramer and Donald G. Truhlar   : smd solvation model                     
  S Lehtola, MJT Oliveira, MAL Marques          : LibXC Library                           
  Liviu Ungur et al                             : ANISO software                          


 Your calculation uses the libint2 library for the computation of 2-el integrals
 For citations please refer to: http://libint.valeyev.net

 Your ORCA version has been built with support for libXC version: 7.0.0
 For citations please refer to: https://libxc.gitlab.io

 This ORCA versions uses:
   CBLAS   interface :  Fast vector & matrix operations
   LAPACKE interface :  Fast linear algebra routines
   SCALAPACK package :  Parallel linear algebra routines
   Shared memory     :  Shared parallel matrices
   BLAS/LAPACK       :  OpenBLAS 0.3.29  USE64BITINT DYNAMIC_ARCH NO_AFFINITY Zen SINGLE_THREADED
        Core in use  :  Zen
   Copyright (c) 2011-2014, The OpenBLAS Project


  ***********************************
  * Starting time: Wed Aug  6 13:34:06 2025
  * Host name:     gadolinium01
  * Process ID:    122448
  * Working dir.:  /local/scratch/mehlhorn/61715
  ***********************************



***************************************
The coordinates will be read from file: start.xyz
***************************************


Your calculation utilizes the atom-pairwise dispersion correction
with the Becke-Johnson damping scheme (D3BJ)


Warning: RI is on but no J-basis has been assigned. Assigning Def2/J (nothing to worry about!)
================================================================================

----- Orbital basis set information -----
Your calculation utilizes the basis: pc-1
   H, C-F              : F. Jensen, J. Chem. Phys. 115, 9113 (2001).
                         F. Jensen, J. Chem. Phys. 116, 7372 (2002).
                         F. Jensen, J. Chem. Phys. 117, 9234 (2002).
   Si-Cl               : F. Jensen, T. Helgaker, J. Chem. Phys. 121, 3463 (2004).
   He-B, Ne-Mg, Al, Ar : F. Jensen, J. Phys. Chem. A 111, 11198 (2007).
   K, Ca, Ga-Kr        : F. Jensen, J. Chem. Phys. 136, 094110 (2012).
   Sc-Zn               : F. Jensen, J. Chem. Phys. 138, 014107 (2013).

----- AuxJ basis set information -----
Your calculation utilizes the auxiliary basis: def2/J
   H-Rn: F. Weigend, Phys. Chem. Chem. Phys. 8, 1057 (2006).
   Fr-Lr: K. Eichkorn, F. Weigend, O. Treutler, R. Ahlrichs; Theor. Chem. Acc. 97, 119 (1997).

================================================================================
                                        WARNINGS
                       Please study these warnings very carefully!
================================================================================


WARNING: Geometry Optimization
  ===> : Switching off AutoStart
         For restart on a previous wavefunction, please use MOREAD

================================================================================
                                       INPUT FILE
================================================================================
NAME = run.inp
|  1> # Geometry optimization for (AlH3)n cluster
|  2> 
|  3> %pal nprocs 64  end
|  4> 
|  5> %geom MaxIter 500 end
|  6> 
|  7> 
|  8> ! PBE pc-1
|  9> ! RKS	# closed shell for AlH3
| 10> ! D3    #  dispersion correction
| 11> ! Freq 	# Frequency analysis to check the stabiltity of the structures
| 12> 
| 13> ! NoPop # population analysis not necessary	
| 14> 
| 15> ! DEFGRID3
| 16> ! TightSCF
| 17> ! TightOpt
| 18> 
| 19> ! SmallPrint
| 20> 
| 21> 
| 22> * xyzFile 0 1 start.xyz # only maingroup elements H and Al so there should be no net spin
| 23> 
| 24>                          ****END OF INPUT****
================================================================================

                       *****************************
                       * Geometry Optimization Run *
                       *****************************

Geometry optimization settings:
Update method            Update   .... BFGS
Choice of coordinates    CoordSys .... (2022) Redundant Internals
Initial Hessian          InHess   .... Almloef's Model
Max. no of cycles        MaxIter  .... 500

Convergence Tolerances:
Energy Change            TolE     ....  1.0000e-06 Eh
Max. Gradient            TolMAXG  ....  1.0000e-04 Eh/bohr
RMS Gradient             TolRMSG  ....  3.0000e-05 Eh/bohr
Max. Displacement        TolMAXD  ....  1.0000e-03 bohr
RMS Displacement         TolRMSD  ....  6.0000e-04 bohr
Strict Convergence                .... False

------------------------------------------------------------------------------
                        ORCA OPTIMIZATION COORDINATE SETUP
------------------------------------------------------------------------------

The optimization will be done in redundant internal coordinates (2022)
Making redundant internal coordinates   ...  (2022 redundants) done
Evaluating the initial hessian          ...  (Almloef) done
Evaluating the coordinates              ...  done
Calculating the B-matrix                .... done
Calculating the G-matrix                .... done
The number of degrees of freedom        ....  293

    -----------------------------------------------------------------
                    Redundant Internal Coordinates


    -----------------------------------------------------------------
         Definition                    Initial Value    Approx d2E/dq
    -----------------------------------------------------------------
      1. B(Al  1,Al  0)                  3.1887         0.041419   
      2. B(H   2,Al  1)                  1.6115         0.371545   
      3. B(H   3,Al  1)                  1.8815         0.137781   
      4. B(H   4,Al  1)                  1.7631         0.212905   
      5. B(H   4,Al  0)                  1.7368         0.234451   
      6. B(H   5,Al  0)                  2.1635         0.048893   
      7. B(H   6,Al  0)                  1.7025         0.265963   
      8. B(H   7,Al  1)                  1.6941         0.274311   
      9. B(Al  8,Al  1)                  3.2024         0.039391   
     10. B(Al  8,H   2)                  1.6925         0.275900   
     11. B(H   9,Al  8)                  1.5224         0.515476   
     12. B(H  10,Al  8)                  1.8754         0.140893   
     13. B(H  11,Al  0)                  1.9326         0.114201   
     14. B(Al 12,Al  8)                  3.0079         0.080461   
     15. B(Al 12,H   6)                  1.7019         0.266550   
     16. B(Al 12,Al  0)                  3.1300         0.051382   
     17. B(Al 12,H   9)                  1.8822         0.137422   
     18. B(H  14,Al 12)                  1.6260         0.352204   
     19. B(H  15,Al  8)                  1.5072         0.545072   
     20. B(Al 16,H  13)                  1.2637         1.332967   
     21. B(Al 16,Al 12)                  2.9208         0.110822   
     22. B(H  17,Al 16)                  1.4057         0.791238   
     23. B(H  18,Al 16)                  1.8532         0.152864   
     24. B(Al 19,Al 16)                  2.5057         0.509144   
     25. B(Al 19,Al 12)                  2.9768         0.090201   
     26. B(H  20,Al 19)                  1.5861         0.407888   
     27. B(H  21,Al 19)                  1.8855         0.135788   
     28. B(H  22,H  14)                  2.5639         0.010000   
     29. B(H  22,Al 19)                  2.2446         0.036303   
     30. B(H  22,Al 12)                  2.8371         0.010000   
     31. B(H  23,Al 19)                  1.9253         0.117312   
     32. B(H  23,Al 16)                  1.8876         0.134739   
     33. A(H   5,Al  0,H   6)          137.9488         0.256302   
     34. A(H   5,Al  0,Al 12)          160.4792         0.229665   
     35. A(H   4,Al  0,Al 12)           85.6559         0.289575   
     36. A(H   6,Al  0,Al 12)           23.1555         0.295383   
     37. A(H   5,Al  0,H  11)          102.9281         0.227166   
     38. A(Al  1,Al  0,H  11)          137.7616         0.251324   
     39. A(Al  1,Al  0,H   4)           24.5387         0.280024   
     40. A(Al  1,Al  0,Al 12)           88.3807         0.254261   
     41. A(H   4,Al  0,H   6)           95.8805         0.327556   
     42. A(H   6,Al  0,H  11)           98.4361         0.291716   
     43. A(Al  1,Al  0,H   5)           98.3730         0.222967   
     44. A(H   4,Al  0,H   5)          107.9499         0.251594   
     45. A(H   4,Al  0,H  11)          113.2785         0.286011   
     46. A(H  11,Al  0,Al 12)           83.5061         0.259441   
     47. A(Al  1,Al  0,H   6)           89.1448         0.285555   
     48. A(H   2,Al  1,H   7)           90.1061         0.355617   
     49. A(Al  0,Al  1,H   7)          101.0194         0.286935   
     50. A(H   3,Al  1,H   7)          103.6911         0.301998   
     51. A(H   2,Al  1,H   3)          146.4643         0.317139   
     52. A(H   2,Al  1,H   4)           88.4303         0.340754   
     53. A(Al  0,Al  1,H   3)          112.3739         0.258369   
     54. A(H   7,Al  1,Al  8)          104.2528         0.284699   
     55. A(H   2,Al  1,Al  8)           14.6087         0.298610   
     56. A(H   4,Al  1,Al  8)           88.0034         0.273790   
     57. A(Al  0,Al  1,Al  8)           87.9291         0.244613   
     58. A(H   4,Al  1,H   7)           77.6087         0.324046   
     59. A(H   3,Al  1,Al  8)          141.2061         0.256456   
     60. A(Al  0,Al  1,H   2)           94.2408         0.301005   
     61. A(H   3,Al  1,H   4)          124.0980         0.290125   
     62. A(Al  0,Al  1,H   4)           24.1500         0.275901   
     63. A(Al  1,H   2,Al  8)          151.4964         0.355965   
     64. A(Al  0,H   4,Al  1)          131.3113         0.315840   
     65. A(Al  0,H   6,Al 12)          133.6804         0.334586   
     66. A(H   9,Al  8,H  15)           88.8229         0.424404   
     67. A(Al  1,Al  8,H  10)          101.4443         0.257305   
     68. A(H   2,Al  8,H   9)          107.6017         0.376501   
     69. A(H   2,Al  8,H  15)          143.9571         0.380157   
     70. A(H   2,Al  8,H  10)          103.0465         0.303358   
     71. A(Al  1,Al  8,H   2)           13.8949         0.284955   
     72. A(H   9,Al  8,H  10)          119.9219         0.335934   
     73. A(H  10,Al  8,Al 12)          150.9380         0.286835   
     74. A(H   9,Al  8,Al 12)           31.3351         0.354340   
     75. A(Al 12,Al  8,H  15)           82.8860         0.357714   
     76. A(H   2,Al  8,Al 12)           94.6928         0.319336   
     77. A(Al  1,Al  8,Al 12)           90.2912         0.269850   
     78. A(H  10,Al  8,H  15)           95.3829         0.339074   
     79. A(Al  1,Al  8,H  15)          156.1003         0.317604   
     80. A(Al  1,Al  8,H   9)           97.2031         0.314734   
     81. A(Al  8,H   9,Al 12)          123.7917         0.334543   
     82. A(H   9,Al 12,Al 16)           91.0052         0.300506   
     83. A(Al  8,Al 12,Al 16)          113.4109         0.317559   
     84. A(H   6,Al 12,Al 16)           99.7004         0.334722   
     85. A(Al  0,Al 12,Al 16)          119.4193         0.295497   
     86. A(Al 19,Al 12,H  22)           45.3411         0.180257   
     87. A(Al 16,Al 12,H  22)           75.6726         0.184611   
     88. A(H   9,Al 12,H  22)           93.0396         0.171292   
     89. A(Al  8,Al 12,H  22)           88.3207         0.177927   
     90. A(H  14,Al 12,Al 16)          130.5742         0.350719   
     91. A(H   6,Al 12,H  22)          174.0729         0.184605   
     92. A(Al  0,Al 12,H  22)          162.6777         0.169343   
     93. A(H   9,Al 12,H  14)          116.6326         0.314262   
     94. A(Al  8,Al 12,H  14)           92.7738         0.332424   
     95. A(H   6,Al 12,H  14)          122.3425         0.350705   
     96. A(Al  0,Al 12,H  14)           99.1988         0.308928   
     97. A(Al  8,Al 12,H   9)           24.8733         0.285721   
     98. A(H   6,Al 12,H   9)           83.2573         0.300494   
     99. A(Al  0,Al 12,H   9)           95.0081         0.266733   
    100. A(H   6,Al 12,Al  8)           90.1985         0.317546   
    101. A(Al  0,Al 12,Al  8)           92.5574         0.281062   
    102. A(H  14,Al 12,H  22)           63.4802         0.190829   
    103. A(Al 16,Al 12,Al 19)           50.2738         0.323547   
    104. A(H  14,Al 12,Al 19)           80.6874         0.338802   
    105. A(Al  0,Al 12,H   6)           23.1641         0.295486   
    106. A(H   9,Al 12,Al 19)          124.3013         0.290876   
    107. A(Al  8,Al 12,Al 19)          131.0345         0.307152   
    108. A(H   6,Al 12,Al 19)          134.0139         0.323534   
    109. A(Al  0,Al 12,Al 19)          136.4046         0.286095   
    110. A(Al 12,H  14,H  22)           81.9454         0.127305   
    111. A(Al 12,Al 16,H  18)          112.0261         0.305666   
    112. A(H  13,Al 16,H  17)          101.6696         0.541471   
    113. A(Al 12,Al 16,H  17)          105.4135         0.403337   
    114. A(Al 12,Al 16,H  13)           41.3776         0.442723   
    115. A(Al 19,Al 16,H  23)           49.5686         0.386350   
    116. A(H  18,Al 16,H  23)          106.2068         0.274655   
    117. A(H  17,Al 16,H  23)           72.4916         0.358346   
    118. A(H  13,Al 16,H  23)          154.8548         0.392096   
    119. A(Al 12,Al 16,H  23)          115.3452         0.299564   
    120. A(H  18,Al 16,Al 19)          122.0737         0.394966   
    121. A(H  17,Al 16,Al 19)           89.7780         0.532894   
    122. A(H  13,Al 16,Al 19)          107.1275         0.588514   
    123. A(Al 12,Al 16,Al 19)           66.0233         0.436018   
    124. A(H  17,Al 16,H  18)          138.0741         0.366152   
    125. A(H  13,Al 16,H  18)           94.4034         0.400879   
    126. A(H  22,Al 19,H  23)          113.7788         0.218949   
    127. A(H  21,Al 19,H  22)          116.9557         0.223323   
    128. A(H  20,Al 19,H  22)          114.6926         0.261293   
    129. A(Al 16,Al 19,H  22)           95.9302         0.309981   
    130. A(Al 12,Al 19,H  22)           64.0368         0.238360   
    131. A(H  21,Al 19,H  23)          114.8257         0.264165   
    132. A(H  20,Al 19,H  23)           70.2015         0.313680   
    133. A(Al 16,Al 19,H  23)           48.2689         0.377173   
    134. A(Al 12,Al 19,H  23)          111.7409         0.283774   
    135. A(H  20,Al 19,H  21)          117.8642         0.321242   
    136. A(Al 16,Al 19,H  21)           88.1202         0.386872   
    137. A(Al 12,Al 19,H  21)           62.2287         0.290330   
    138. A(Al 16,Al 19,H  20)          118.2913         0.471073   
    139. A(Al 12,Al 19,Al 16)           63.7029         0.420218   
    140. A(Al 12,H  22,H  14)           34.5744         0.102993   
    141. A(Al 12,H  22,Al 19)           70.6222         0.149885   
    142. A(H  14,H  22,Al 19)           81.6435         0.111903   
    143. A(Al 16,H  23,Al 19)           82.1625         0.263858   
    144. D(H   3,Al  1,Al  0,H   4)   -124.3145         0.010000   
    145. D(H   3,Al  1,Al  0,H  11)   -128.8962         0.010000   
    146. D(H   3,Al  1,Al  0,H   6)    129.4600         0.010000   
    147. D(H   3,Al  1,Al  0,Al 12)    152.6085         0.010000   
    148. D(H   2,Al  1,Al  0,H   5)   -168.1259         0.010000   
    149. D(H   3,Al  1,Al  0,H   5)     -8.9948         0.010000   
    150. D(H   2,Al  1,Al  0,H  11)     71.9727         0.010000   
    151. D(H   2,Al  1,Al  0,H   6)    -29.6711         0.010000   
    152. D(H   2,Al  1,Al  0,H   4)     76.5544         0.010000   
    153. D(H   2,Al  1,Al  0,Al 12)     -6.5226         0.010000   
    154. D(Al  8,H   2,Al  1,H   4)     88.1061         0.010000   
    155. D(Al  8,H   2,Al  1,Al  0)     64.6490         0.010000   
    156. D(Al  8,H   2,Al  1,H   3)    -78.7478         0.010000   
    157. D(Al  8,H   2,Al  1,H   7)    165.7070         0.010000   
    158. D(Al  0,H   4,Al  1,Al  8)    -89.3912         0.010000   
    159. D(Al  1,H   4,Al  0,H   6)     74.8272         0.010000   
    160. D(Al  0,H   4,Al  1,H   7)    165.5456         0.010000   
    161. D(Al  0,H   4,Al  1,H   3)     67.2718         0.010000   
    162. D(Al  1,H   4,Al  0,Al 12)     95.6327         0.010000   
    163. D(Al  1,H   4,Al  0,H   5)    -70.0611         0.010000   
    164. D(Al  1,H   4,Al  0,H  11)    176.6488         0.010000   
    165. D(Al  0,H   4,Al  1,H   2)   -104.0008         0.010000   
    166. D(Al 12,H   6,Al  0,Al  1)     87.8814         0.010000   
    167. D(Al 12,H   6,Al  0,H  11)    -50.3913         0.010000   
    168. D(Al 12,H   6,Al  0,H   5)   -170.5303         0.010000   
    169. D(Al 12,H   6,Al  0,H   4)     64.2485         0.010000   
    170. D(H   2,Al  8,Al  1,H   7)    -14.7570         0.010000   
    171. D(H   2,Al  8,Al  1,H   3)    120.1360         0.010000   
    172. D(H   2,Al  8,Al  1,H   4)    -91.4368         0.010000   
    173. D(H   2,Al  8,Al  1,Al  0)   -115.6022         0.010000   
    174. D(H   9,Al  8,Al  1,Al  0)     23.7190         0.010000   
    175. D(H  15,Al  8,H   2,Al  1)   -156.2589         0.010000   
    176. D(H   9,Al  8,H   2,Al  1)    -42.7216         0.010000   
    177. D(H  10,Al  8,Al  1,Al  0)    146.3054         0.010000   
    178. D(H  10,Al  8,H   2,Al  1)     84.9185         0.010000   
    179. D(H   9,Al  8,Al  1,H   7)    124.5642         0.010000   
    180. D(H   9,Al  8,Al  1,H   3)   -100.5428         0.010000   
    181. D(H   9,Al  8,Al  1,H   4)     47.8843         0.010000   
    182. D(Al 12,Al  8,H   2,Al  1)    -71.9048         0.010000   
    183. D(H   9,Al  8,Al  1,H   2)    139.3212         0.010000   
    184. D(Al 12,H   9,Al  8,H  15)     78.2029         0.014381   
    185. D(Al 12,H   9,Al  8,H  10)    173.7369         0.014381   
    186. D(Al 12,H   9,Al  8,H   2)    -69.1440         0.014381   
    187. D(Al 12,H   9,Al  8,Al  1)    -78.5958         0.014381   
    188. D(Al 19,Al 12,H   6,Al  0)    107.5726         0.010000   
    189. D(H  14,Al 12,H   6,Al  0)     -2.6371         0.010000   
    190. D(H   9,Al 12,Al  0,H   4)    -56.3284         0.010000   
    191. D(H   9,Al 12,Al  0,H  11)   -170.3791         0.010000   
    192. D(H   9,Al 12,Al  0,H   6)     59.7064         0.010000   
    193. D(H   9,Al 12,Al  0,Al  1)    -31.9055         0.010000   
    194. D(Al  8,Al 12,Al  0,H   5)    103.7715         0.010000   
    195. D(Al  8,Al 12,Al  0,H  11)   -145.5700         0.010000   
    196. D(Al 16,Al 12,H   6,Al  0)    150.1449         0.010000   
    197. D(H   9,Al 12,H   6,Al  0)   -119.9862         0.010000   
    198. D(Al  8,Al 12,H   6,Al  0)    -96.0466         0.010000   
    199. D(Al  8,Al 12,Al  0,H   6)     84.5154         0.010000   
    200. D(H   6,Al 12,Al  0,H  11)    129.9146         0.010000   
    201. D(Al  8,Al 12,Al  0,Al  1)     -7.0964         0.010000   
    202. D(H   6,Al 12,Al  0,H   5)     19.2560         0.010000   
    203. D(Al  8,Al 12,Al  0,H   4)    -31.5193         0.010000   
    204. D(H   6,Al 12,Al  0,H   4)   -116.0347         0.010000   
    205. D(H  22,Al 12,H   6,Al  0)   -171.5436         0.010000   
    206. D(H   6,Al 12,Al  0,Al  1)    -91.6118         0.010000   
    207. D(H  22,Al 12,H   9,Al  8)    -79.3793         0.010000   
    208. D(Al 19,Al 12,H   9,Al  8)   -114.7092         0.010000   
    209. D(Al 16,Al 12,H   9,Al  8)   -155.0841         0.010000   
    210. D(H   6,Al 12,H   9,Al  8)    105.2663         0.010000   
    211. D(Al  0,Al 12,H   9,Al  8)     85.2664         0.010000   
    212. D(H   9,Al 12,Al  8,H  10)    -11.2244         0.010000   
    213. D(H   9,Al 12,Al  8,H   2)    116.6550         0.010000   
    214. D(H   9,Al 12,Al  8,Al  1)    103.4599         0.010000   
    215. D(H   6,Al 12,Al  8,H  15)   -172.8522         0.010000   
    216. D(H   6,Al 12,Al  8,H  10)    -84.5689         0.010000   
    217. D(Al  0,Al 12,Al  8,H  15)    164.0957         0.010000   
    218. D(Al  0,Al 12,Al  8,H   9)    -96.3967         0.010000   
    219. D(Al  0,Al 12,Al  8,H  10)   -107.6210         0.010000   
    220. D(H   6,Al 12,Al  8,H   9)    -73.3446         0.010000   
    221. D(H  14,Al 12,H   9,Al  8)    -17.6462         0.010000   
    222. D(H   6,Al 12,Al  8,H   2)     43.3105         0.010000   
    223. D(Al  0,Al 12,Al  8,H   2)     20.2584         0.010000   
    224. D(Al  0,Al 12,Al  8,Al  1)      7.0632         0.010000   
    225. D(H   6,Al 12,Al  8,Al  1)     30.1153         0.010000   
    226. D(H  22,H  14,Al 12,Al 19)     44.4222         0.010000   
    227. D(H  22,H  14,Al 12,Al 16)     37.6815         0.010000   
    228. D(H  22,H  14,Al 12,H   9)    -79.4003         0.010000   
    229. D(H  22,H  14,Al 12,Al  8)    -86.7343         0.010000   
    230. D(H  22,H  14,Al 12,H   6)   -178.7276         0.010000   
    231. D(H  22,H  14,Al 12,Al  0)   -179.7782         0.010000   
    232. D(H  17,Al 16,Al 12,Al 19)    -82.7030         0.010000   
    233. D(H  17,Al 16,Al 12,H  14)    -74.0411         0.010000   
    234. D(H  17,Al 16,Al 12,H   9)     53.2079         0.010000   
    235. D(H  17,Al 16,Al 12,Al  8)     42.0744         0.010000   
    236. D(H  17,Al 16,Al 12,H   6)    136.5389         0.010000   
    237. D(H  17,Al 16,Al 12,Al  0)    149.5306         0.010000   
    238. D(H  13,Al 16,Al 12,H  22)   -129.9274         0.010000   
    239. D(H  13,Al 16,Al 12,Al 19)   -172.9576         0.010000   
    240. D(H  13,Al 16,Al 12,H  14)   -164.2958         0.010000   
    241. D(H  13,Al 16,Al 12,H   9)    -37.0468         0.010000   
    242. D(H  13,Al 16,Al 12,Al  8)    -48.1802         0.010000   
    243. D(H  13,Al 16,Al 12,H   6)     46.2842         0.010000   
    244. D(H  13,Al 16,Al 12,Al  0)     59.2760         0.010000   
    245. D(H  21,Al 19,Al 16,Al 12)     59.7488         0.010000   
    246. D(H  20,Al 19,Al 16,H  18)     78.7703         0.010000   
    247. D(H  20,Al 19,Al 16,H  17)    -72.3464         0.010000   
    248. D(H  20,Al 19,Al 16,H  13)   -174.4959         0.010000   
    249. D(Al 12,Al 19,Al 16,H  23)    173.9391         0.010000   
    250. D(Al 12,Al 19,Al 16,H  18)   -101.8691         0.010000   
    251. D(Al 12,Al 19,Al 16,H  17)    107.0142         0.010000   
    252. D(Al 12,Al 19,Al 16,H  13)      4.8647         0.010000   
    253. D(H  21,Al 19,Al 12,H  22)    145.7147         0.010000   
    254. D(H  21,Al 19,Al 12,Al 16)   -102.6430         0.010000   
    255. D(H  21,Al 19,Al 12,H  14)     84.0136         0.010000   
    256. D(H  21,Al 19,Al 12,H   9)   -160.0086         0.010000   
    257. D(H  21,Al 19,Al 12,Al  8)    169.5567         0.010000   
    258. D(H  21,Al 19,Al 12,H   6)    -42.5265         0.010000   
    259. D(H  21,Al 19,Al 12,Al  0)     -9.5811         0.010000   
    260. D(Al 16,Al 19,Al 12,H  22)   -111.6423         0.010000   
    261. D(H  20,Al 19,Al 16,Al 12)   -179.3606         0.010000   
    262. D(Al 16,Al 19,Al 12,H  14)   -173.3433         0.010000   
    263. D(Al 16,Al 19,Al 12,H   9)    -57.3656         0.010000   
    264. D(Al 16,Al 19,Al 12,Al  8)    -87.8002         0.010000   
    265. D(H  20,Al 19,Al 16,H  23)     -5.4215         0.010000   
    266. D(Al 16,Al 19,Al 12,H   6)     60.1166         0.010000   
    267. D(Al 16,Al 19,Al 12,Al  0)     93.0619         0.010000   
    268. D(Al 19,H  22,Al 12,Al  8)   -162.2396         0.010000   
    269. D(Al 19,H  22,Al 12,H   6)    -86.6485         0.010000   
    270. D(Al 19,H  22,Al 12,Al  0)    104.5544         0.010000   
    271. D(Al 12,H  22,Al 19,H  20)   -178.1871         0.010000   
    272. D(Al 12,H  22,Al 19,Al 16)     56.9077         0.010000   
    273. D(H  14,H  22,Al 19,H  23)    137.4765         0.010000   
    274. D(H  14,H  22,Al 19,H  20)   -144.3410         0.010000   
    275. D(H  14,H  22,Al 19,Al 16)     90.7538         0.010000   
    276. D(H  14,H  22,Al 19,Al 12)     33.8461         0.010000   
    277. D(Al 19,H  22,H  14,Al 12)    -67.8008         0.010000   
    278. D(H  14,H  22,Al 12,H   9)    118.3716         0.010000   
    279. D(H  14,H  22,Al 12,Al  8)     93.9414         0.010000   
    280. D(H  14,H  22,Al 12,H   6)    169.5325         0.010000   
    281. D(H  14,H  22,Al 19,H  21)     -0.1530         0.010000   
    282. D(H  14,H  22,Al 12,Al  0)      0.7354         0.010000   
    283. D(Al 19,H  22,Al 12,Al 16)    -47.5475         0.010000   
    284. D(Al 19,H  22,Al 12,H  14)    103.8190         0.010000   
    285. D(Al 19,H  22,Al 12,H   9)   -137.8094         0.010000   
    286. D(Al 16,H  23,Al 19,H  22)    -76.0124         0.010000   
    287. D(Al 16,H  23,Al 19,H  21)     62.5450         0.010000   
    288. D(Al 16,H  23,Al 19,H  20)    174.9271         0.010000   
    289. D(Al 16,H  23,Al 19,Al 12)     -5.8490         0.010000   
    290. D(Al 19,H  23,Al 16,H  18)   -118.6095         0.010000   
    291. D(Al 19,H  23,Al 16,H  17)    105.2743         0.010000   
    292. D(Al 19,H  23,Al 16,H  13)     25.2313         0.010000   
    293. D(Al 19,H  23,Al 16,Al 12)      6.1280         0.010000   
    -----------------------------------------------------------------

Number of atoms                         .... 24
Number of degrees of freedom            .... 293


         *************************************************************
         *                GEOMETRY OPTIMIZATION CYCLE   1            *
         *************************************************************
---------------------------------
CARTESIAN COORDINATES (ANGSTROEM)
---------------------------------
  Al    -0.334910    1.128240    2.788780
  Al     0.131570   -0.237880   -0.054440
  H      0.789370   -1.573750    0.561700
  H     -0.972650    0.494050   -1.390510
  H      0.598260    0.612650    1.417690
  H     -1.614440    2.752410    2.151790
  H     -0.504810   -0.419960    3.476290
  H      1.673520    0.345160   -0.444750
  Al     0.695350   -2.986740    1.488620
  H     -0.073070   -2.653160    2.759770
  H      0.002820   -4.241380    0.278850
  H      0.734520    1.939970    4.178890
  Al     0.594870   -1.544490    4.126330
  H     -1.176760   -2.481840    4.882200
  H      2.200160   -1.285750    4.135740
  H      1.505890   -3.983120    2.277150
  Al    -1.131980   -2.841190    6.092940
  H     -0.869040   -4.216760    5.971720
  H     -2.531640   -1.745990    6.618280
  Al     1.216150   -2.472140    6.885860
  H      1.603080   -2.962450    8.343780
  H      0.949860   -0.624710    6.619140
  H      2.204280   -3.608450    5.221360
  H     -0.274040   -3.397340    7.679650

----------------------------
CARTESIAN COORDINATES (A.U.)
----------------------------
  NO LB      ZA    FRAG     MASS         X           Y           Z
   0 Al   13.0000    0    26.982   -0.632888    2.132065    5.270030
   1 Al   13.0000    0    26.982    0.248631   -0.449528   -0.102877
   2 H     1.0000    0     1.008    1.491693   -2.973957    1.061459
   3 H     1.0000    0     1.008   -1.838042    0.933619   -2.627683
   4 H     1.0000    0     1.008    1.130548    1.157741    2.679046
   5 H     1.0000    0     1.008   -3.050849    5.201301    4.066294
   6 H     1.0000    0     1.008   -0.953953   -0.793609    6.569236
   7 H     1.0000    0     1.008    3.162494    0.652258   -0.840456
   8 Al   13.0000    0    26.982    1.314021   -5.644121    2.813084
   9 H     1.0000    0     1.008   -0.138082   -5.013746    5.215209
  10 H     1.0000    0     1.008    0.005329   -8.015047    0.526950
  11 H     1.0000    0     1.008    1.388042    3.666012    7.896958
  12 Al   13.0000    0    26.982    1.124141   -2.918663    7.797634
  13 H     1.0000    0     1.008   -2.223754   -4.689998    9.226021
  14 H     1.0000    0     1.008    4.157700   -2.429715    7.815416
  15 H     1.0000    0     1.008    2.845720   -7.527006    4.303190
  16 Al   13.0000    0    26.982   -2.139132   -5.369071   11.513988
  17 H     1.0000    0     1.008   -1.642248   -7.968522   11.284915
  18 H     1.0000    0     1.008   -4.784106   -3.299443   12.506737
  19 Al   13.0000    0    26.982    2.298190   -4.671668   13.012390
  20 H     1.0000    0     1.008    3.029382   -5.598219   15.767459
  21 H     1.0000    0     1.008    1.794975   -1.180531   12.508362
  22 H     1.0000    0     1.008    4.165486   -6.818982    9.866940
  23 H     1.0000    0     1.008   -0.517861   -6.420042   14.512435

--------------------------------
INTERNAL COORDINATES (ANGSTROEM)
--------------------------------
 Al     0   0   0     0.000000000000     0.00000000     0.00000000
 Al     1   0   0     3.188696820521     0.00000000     0.00000000
 H      2   1   0     1.611483166682    94.24081941     0.00000000
 H      2   1   3     1.881517041698   112.37392247   159.13108005
 H      1   2   3     1.736815213286    24.53872126    76.55443415
 H      1   2   3     2.163534485489    98.37295049   191.87410195
 H      1   2   3     1.702486196743    89.14476205   330.32887401
 H      2   1   3     1.694074183795   101.01938963   269.06421049
 Al     3   2   1     1.692501458463   151.49640063    64.64897094
 H      9   3   2     1.522355817574   107.60170150   317.27835438
 H      9   3   2     1.875436691387   103.04651137    84.91852032
 H      1   2   3     1.932612721137   137.76155251    71.97267143
 Al     7   1   2     1.701885961191   133.68037010    87.88138971
 H     13   7   1     2.142110486483    83.65648892   166.61983450
 H     13   7   1     1.626035337808   122.34247778   357.36289070
 H      9   3   2     1.507158835989   143.95707954   203.74112636
 Al    14  13   7     1.263736134840   115.67000755   225.79351985
 H     17  14  13     1.405711405979   101.66964938   259.85656163
 H     17  14  13     1.853238589928    94.40336012   118.79095697
 Al    17  14  13     2.505720360655   107.12748997   353.26816002
 H     20  17  14     1.586079899438   118.29134090   185.50412072
 H     20  17  14     1.885483367044    88.12019490    64.61355840
 H     20  17  14     2.244584942255    95.93022187   307.70448398
 H     17  14  13     1.887594365906   154.85481395   333.41997908

---------------------------
INTERNAL COORDINATES (A.U.)
---------------------------
 Al     0   0   0     0.000000000000     0.00000000     0.00000000
 Al     1   0   0     6.025763714890     0.00000000     0.00000000
 H      2   1   0     3.045261854453    94.24081941     0.00000000
 H      2   1   3     3.555551925115   112.37392247   159.13108005
 H      1   2   3     3.282105098338    24.53872126    76.55443415
 H      1   2   3     4.088487658868    98.37295049   191.87410195
 H      1   2   3     3.217232658625    89.14476205   330.32887401
 H      2   1   3     3.201336257918   101.01938963   269.06421049
 Al     3   2   1     3.198364237758   151.49640063    64.64897094
 H      9   3   2     2.876835573596   107.60170150   317.27835438
 H      9   3   2     3.544061728229   103.04651137    84.91852032
 H      1   2   3     3.652108765881   137.76155251    71.97267143
 Al     7   1   2     3.216098377817   133.68037010    87.88138971
 H     13   7   1     4.048002168054    83.65648892   166.61983450
 H     13   7   1     3.072761472535   122.34247778   357.36289070
 H      9   3   2     2.848117440339   143.95707954   203.74112636
 Al    14  13   7     2.388115200388   115.67000755   225.79351985
 H     17  14  13     2.656409580630   101.66964938   259.85656163
 H     17  14  13     3.502113395779    94.40336012   118.79095697
 Al    17  14  13     4.735125249828   107.12748997   353.26816002
 H     20  17  14     2.997256636454   118.29134090   185.50412072
 H     20  17  14     3.563047193777    88.12019490    64.61355840
 H     20  17  14     4.241650825186    95.93022187   307.70448398
 H     17  14  13     3.567036403495   154.85481395   333.41997908

---------------------
BASIS SET INFORMATION
---------------------
There are 2 groups of distinct atoms

 Group   1 Type Al  : 25s13p1d contracted to 4s3p1d pattern {8881/661/1}
 Group   2 Type H   : 4s1p contracted to 2s1p pattern {31/1}

Atom   0Al   basis set group =>   1
Atom   1Al   basis set group =>   1
Atom   2H    basis set group =>   2
Atom   3H    basis set group =>   2
Atom   4H    basis set group =>   2
Atom   5H    basis set group =>   2
Atom   6H    basis set group =>   2
Atom   7H    basis set group =>   2
Atom   8Al   basis set group =>   1
Atom   9H    basis set group =>   2
Atom  10H    basis set group =>   2
Atom  11H    basis set group =>   2
Atom  12Al   basis set group =>   1
Atom  13H    basis set group =>   2
Atom  14H    basis set group =>   2
Atom  15H    basis set group =>   2
Atom  16Al   basis set group =>   1
Atom  17H    basis set group =>   2
Atom  18H    basis set group =>   2
Atom  19Al   basis set group =>   1
Atom  20H    basis set group =>   2
Atom  21H    basis set group =>   2
Atom  22H    basis set group =>   2
Atom  23H    basis set group =>   2
---------------------------------
AUXILIARY/J BASIS SET INFORMATION
---------------------------------
There are 2 groups of distinct atoms

 Group   1 Type Al  : 14s5p5d2f1g contracted to 8s4p3d1f1g pattern {71111111/2111/311/2/1}
 Group   2 Type H   : 5s2p1d contracted to 3s1p1d pattern {311/2/1}

Atom   0Al   basis set group =>   1
Atom   1Al   basis set group =>   1
Atom   2H    basis set group =>   2
Atom   3H    basis set group =>   2
Atom   4H    basis set group =>   2
Atom   5H    basis set group =>   2
Atom   6H    basis set group =>   2
Atom   7H    basis set group =>   2
Atom   8Al   basis set group =>   1
Atom   9H    basis set group =>   2
Atom  10H    basis set group =>   2
Atom  11H    basis set group =>   2
Atom  12Al   basis set group =>   1
Atom  13H    basis set group =>   2
Atom  14H    basis set group =>   2
Atom  15H    basis set group =>   2
Atom  16Al   basis set group =>   1
Atom  17H    basis set group =>   2
Atom  18H    basis set group =>   2
Atom  19Al   basis set group =>   1
Atom  20H    basis set group =>   2
Atom  21H    basis set group =>   2
Atom  22H    basis set group =>   2
Atom  23H    basis set group =>   2


           ************************************************************
           *        Program running with 64 parallel MPI-processes    *
           *              working on a common directory               *
           ************************************************************
------------------------------------------------------------------------------
                             ORCA STARTUP CALCULATIONS
                           -- RI-GTO INTEGRALS CHOSEN --
------------------------------------------------------------------------------
------------------------------------------------------------------------------
                   ___                                                        
                  /   \      - P O W E R E D   B Y -                         
                 /     \                                                     
                 |  |  |   _    _      __       _____    __    __             
                 |  |  |  | |  | |    /  \     |  _  \  |  |  /  |          
                  \  \/   | |  | |   /    \    | | | |  |  | /  /          
                 / \  \   | |__| |  /  /\  \   | |_| |  |  |/  /          
                |  |  |   |  __  | /  /__\  \  |    /   |      \           
                |  |  |   | |  | | |   __   |  |    \   |  |\   \          
                \     /   | |  | | |  |  |  |  | |\  \  |  | \   \       
                 \___/    |_|  |_| |__|  |__|  |_| \__\ |__|  \__/        
                                                                              
                      - O R C A' S   B I G   F R I E N D -                    
                                      &                                       
                       - I N T E G R A L  F E E D E R -                       
                                                                              
 v1 FN, 2020, v2 2021, v3 2022-2024                                           
------------------------------------------------------------------------------


----------------------
SHARK INTEGRAL PACKAGE
----------------------

Number of atoms                             ...     24
Number of basis functions                   ...    198
Number of shells                            ...    102
Maximum angular momentum                    ...      2
Integral batch strategy                     ... SHARK/LIBINT Hybrid
RI-J (if used) integral strategy            ... SPLIT-RIJ (Revised 2003 algorithm where possible)
Printlevel                                  ...      1
Contraction scheme used                     ... SEGMENTED contraction
Prescreening option                         ... SCHWARTZ
   Thresh                                   ... 2.500e-11
   Tcut                                     ... 2.500e-12
   Tpresel                                  ... 2.500e-12 
Coulomb Range Separation                    ... NOT USED
Exchange Range Separation                   ... NOT USED
Multipole approximations                    ... NOT USED
Finite Nucleus Model                        ... NOT USED
CABS basis                                  ... NOT available
Auxiliary Coulomb fitting basis             ... AVAILABLE
   # of basis functions in Aux-J            ...    504
   # of shells in Aux-J                     ...    192
   Maximum angular momentum in Aux-J        ...      4
Auxiliary J/K fitting basis                 ... NOT available
Auxiliary Correlation fitting basis         ... NOT available
Auxiliary 'external' fitting basis          ... NOT available

Checking pre-screening integrals            ... done (  0.0 sec) Dimension = 102
   => SHARK Basis and OBASIS are compatible. Storing Pre-screening
Shell pair information
Shell pair cut-off parameter TPreSel        ...   2.5e-12
Total number of shell pairs                 ...      5253
Shell pairs after pre-screening             ...      4406
Total number of primitive shell pairs       ...     53388
Primitive shell pairs kept                  ...     22953
          la=0 lb=0:   1615 shell pairs
          la=1 lb=0:   1771 shell pairs
          la=1 lb=1:    498 shell pairs
          la=2 lb=0:    323 shell pairs
          la=2 lb=1:    179 shell pairs
          la=2 lb=2:     20 shell pairs

Checking whether 4 symmetric matrices of dimension 198 fit in memory
:Max Core in MB      =   4096.00
 MB in use           =     10.62
 MB left             =   4085.38
 MB needed           =      0.60
 Data fit in memory  = YES
Calculating RI/J V-Matrix + Cholesky decomp.... done (  0.0 sec)
Calculating Nuclear repulsion               ... done (  0.0 sec) ENN=    582.167242823316 Eh

Diagonalization of the overlap matrix:
Smallest eigenvalue                        ... 4.392e-03
Time for diagonalization                   ...    0.006 sec
Threshold for overlap eigenvalues          ... 1.000e-07
Number of eigenvalues below threshold      ... 0
Time for construction of square roots      ...    0.003 sec
Total time needed                          ...    0.011 sec

-------------------
DFT GRID GENERATION
-------------------

General Integration Accuracy     IntAcc      ... 4.959
Radial Grid Type                 RadialGrid  ... OptM3 with GC (2021)
Angular Grid (max. ang.)         AngularGrid ... 6 (Lebedev-590)
Angular grid pruning method      GridPruning ... 4 (adaptive)
Weight generation scheme         WeightScheme... mBecke (2022)
Basis function cutoff            BFCut       ... 1.0000e-11
Integration weight cutoff        WCut        ... 1.0000e-14
Partially contracted basis set               ... off
Rotationally invariant grid construction     ... off
Angular grids for H and He will be reduced by one unit

Total number of grid points                  ...   253341
Total number of batches                      ...     3972
Average number of points per batch           ...       63
Average number of grid points per atom       ...    10556
Grids setup in   2.4 sec
Initializing property integral containers    ... done (  0.0 sec)

SHARK setup successfully completed in   2.6 seconds

Maximum memory used throughout the entire STARTUP-calculation: 50.4 MB


           ************************************************************
           *        Program running with 64 parallel MPI-processes    *
           *              working on a common directory               *
           ************************************************************
-------------------------------------------------------------------------------
                                 ORCA GUESS
                   Start orbitals & Density for SCF / CASSCF
-------------------------------------------------------------------------------

------------
SCF SETTINGS
------------
Hamiltonian:
 Density Functional     Method          .... DFT(GTOs)
 Exchange Functional    Exchange        .... PBE
   PBE kappa parameter   XKappa         ....  0.804000
   PBE mue parameter    XMuePBE         ....  0.219520
 Correlation Functional Correlation     .... PBE
   PBE beta parameter  CBetaPBE         ....  0.066725
 LDA part of GGA corr.  LDAOpt          .... PW91-LDA
 Gradients option       PostSCFGGA      .... off
   NL short-range parameter             ....  6.400000
 RI-approximation to the Coulomb term is turned on
   Number of AuxJ basis functions       .... 504


General Settings:
 Integral files         IntName         .... run
 Hartree-Fock type      HFTyp           .... RHF
 Total Charge           Charge          ....    0
 Multiplicity           Mult            ....    1
 Number of Electrons    NEL             ....   96
 Basis Dimension        Dim             ....  198
 Nuclear Repulsion      ENuc            ....    582.1672428233 Eh

Convergence Acceleration:
 AO-DIIS                CNVDIIS         .... on
   Start iteration      DIISMaxIt       ....    12
   Startup error        DIISStart       ....  0.200000
   # of expansion vecs  DIISMaxEq       ....     5
   Bias factor          DIISBfac        ....   1.050
   Max. coefficient     DIISMaxC        ....  10.000
 MO-DIIS                CNVKDIIS        .... off
 Trust-Rad. Augm. Hess. CNVTRAH         .... auto
   Auto Start mean grad. ratio tolernc. ....  1.125000
   Auto Start start iteration           ....    50
   Auto Start num. interpolation iter.  ....    10
   Max. Number of Micro iterations      ....    24
   Max. Number of Macro iterations      .... Maxiter - #DIIS iter
   Number of Davidson start vectors     ....     2
   Converg. threshold    (grad. norm)   ....   1.000e-05
   Grad. Scal. Fac. for Micro threshold ....   0.100
   Minimum threshold for Micro iter.    ....   1.000e-02
   NR start threshold (gradient norm)   ....   1.000e-04
   Initial trust radius                 ....   0.400
   Minimum AH scaling param. (alpha)    ....   1.000
   Maximum AH scaling param. (alpha)    .... 1000.000
   Quad. conv. algorithm                .... NR
   White noise on init. David. guess    .... on
   Maximum white noise                  ....   0.010
   Pseudo random numbers                .... off
   Inactive MOs                         .... canonical
   Orbital update algorithm             .... Taylor
   Preconditioner                       .... Diag
   Full preconditioner red. dimension   ....   250
 SOSCF                 CNVSOSCF           .... on
   Start iteration     SOSCFMaxIt         ....   150
   Startup grad/error  SOSCFStart         ....  0.003300
   Hessian update      SOSCFHessUp        .... L-BFGS
   Autom. constraints  SOSCFAutoConstrain .... off
 Level Shifting         CNVShift        .... on
   Level shift para.    LevelShift      ....    0.2500
   Turn off err/grad.   ShiftErr        ....    0.0010
 Zerner damping         CNVZerner       .... off
 Static damping         CNVDamp         .... on
   Fraction old density DampFac         ....    0.7000
   Max. Damping (<1)    DampMax         ....    0.9800
   Min. Damping (>=0)   DampMin         ....    0.0000
   Turn off err/grad.   DampErr         ....    0.1000

SCF Procedure:
 Maximum # iterations   MaxIter         ....   125
 SCF integral mode      SCFMode         .... Direct
   Integral package                     .... SHARK and LIBINT hybrid scheme
 Reset frequency        DirectResetFreq ....    20
 Integral Threshold     Thresh          ....  2.500e-11 Eh
 Primitive CutOff       TCut            ....  2.500e-12 Eh

Convergence Tolerance:
 Convergence Check Mode ConvCheckMode   .... Total+1el-Energy
 Convergence forced     ConvForced      .... 0
 Energy Change          TolE            ....  1.000e-08 Eh
 1-El. energy change                    ....  1.000e-05 Eh
 Orbital Gradient       TolG            ....  1.000e-05
 Orbital Rotation angle TolX            ....  1.000e-05
 DIIS Error             TolErr          ....  5.000e-07

------------------------------
INITIAL GUESS: MODEL POTENTIAL
------------------------------
Loading Hartree-Fock densities                     ... done
Calculating cut-offs                               ... done
Initializing the effective Hamiltonian             ... done
Setting up the integral package (SHARK)            ... done
Starting the Coulomb interaction                   ... done (   0.0 sec)
Making the grid                                    ... done (   0.1 sec)
Mapping shells                                     ... done
Starting the XC term evaluation                    ... done (   0.0 sec)
  promolecular density results
     # of electrons  =     95.992620483
     EX              =   -113.341396946
     EC              =     -3.313420422
     EX+EC           =   -116.654817368
Transforming the Hamiltonian                       ... done (   0.0 sec)
Diagonalizing the Hamiltonian                      ... done (   0.0 sec)
Back transforming the eigenvectors                 ... done (   0.0 sec)
Now organizing SCF variables                       ... done
                      ------------------
                      INITIAL GUESS DONE (   0.2 sec)
                      ------------------
             **** ENERGY FILE WAS UPDATED (run.en.tmp) ****
Finished Guess after   1.5 sec
Maximum memory used throughout the entire GUESS-calculation: 13.3 MB


           ************************************************************
           *        Program running with 64 parallel MPI-processes    *
           *              working on a common directory               *
           ************************************************************

-------------------------------------------------------------------------------------------
                                      ORCA LEAN-SCF
                              memory conserving SCF solver
-------------------------------------------------------------------------------------------

----------------------------------------D-I-I-S--------------------------------------------
Iteration    Energy (Eh)           Delta-E    RMSDP     MaxDP     DIISErr   Damp  Time(sec)
-------------------------------------------------------------------------------------------
               ***  Starting incremental Fock matrix formation  ***
    1    -1463.8996068171061324     0.00e+00  1.39e-02  5.86e-02  8.71e-02  0.700   0.2
Warning: op=0 Small HOMO/LUMO gap (   0.032) - skipping pre-diagonalization
         Will do a full diagonalization
    2    -1463.9601735949918293    -6.06e-02  1.58e-02  5.33e-02  5.75e-02  0.700   0.2
                               ***Turning on AO-DIIS***
    3    -1463.9909224498312597    -3.07e-02  8.02e-03  3.81e-02  2.55e-02  0.700   0.2
    4    -1464.0053293435223623    -1.44e-02  1.36e-02  6.24e-02  1.36e-02  0.000   0.2
    5    -1464.0352011220713848    -2.99e-02  3.74e-03  1.78e-02  1.15e-02  0.000   0.2
    6    -1464.0372054169290550    -2.00e-03  1.85e-03  9.78e-03  4.96e-03  0.000   0.2
                              *** Initializing SOSCF ***
---------------------------------------S-O-S-C-F--------------------------------------
Iteration    Energy (Eh)           Delta-E    RMSDP     MaxDP     MaxGrad    Time(sec)
--------------------------------------------------------------------------------------
    7    -1464.0376481582788983    -4.43e-04  1.00e-03  5.97e-03  2.34e-03     0.2
               *** Restarting incremental Fock matrix formation ***
    8    -1464.0377609012227822    -1.13e-04  2.19e-03  1.24e-02  1.07e-03     0.2
    9    -1464.0377579425285148     2.96e-06  9.36e-04  3.23e-03  1.04e-03     0.2
   10    -1464.0378153920448767    -5.74e-05  4.63e-04  1.52e-03  1.72e-04     0.2
   11    -1464.0378162761346630    -8.84e-07  2.26e-04  7.14e-04  1.59e-04     0.2
   12    -1464.0378195587488790    -3.28e-06  8.66e-05  3.04e-04  4.59e-05     0.2
   13    -1464.0378195109244643     4.78e-08  5.09e-05  2.21e-04  5.74e-05     0.2
   14    -1464.0378196823619419    -1.71e-07  2.29e-05  9.39e-05  1.22e-05     0.2
   15    -1464.0378196757089881     6.65e-09  1.31e-05  5.10e-05  1.42e-05     0.2
                 **** Energy Check signals convergence ****

               *****************************************************
               *                     SUCCESS                       *
               *           SCF CONVERGED AFTER  15 CYCLES          *
               *****************************************************

             **** ENERGY FILE WAS UPDATED (run.en.tmp) ****

----------------
TOTAL SCF ENERGY
----------------

Total Energy       :      -1464.03781969093393 Eh          -39838.49442 eV

Components:
Nuclear Repulsion  :        582.16724282331552 Eh           15841.57605 eV
Electronic Energy  :      -2046.20506251424945 Eh          -55680.07047 eV
One Electron Energy:      -3191.06163784472074 Eh          -86833.20168 eV
Two Electron Energy:       1144.85657533047129 Eh           31153.13121 eV

Virial components:
Potential Energy   :      -2925.90370993415581 Eh          -79617.88764 eV
Kinetic Energy     :       1461.86589024322188 Eh           39779.39322 eV
Virial Ratio       :          2.00148572414351

DFT components:
N(Alpha)           :       48.000005084350 electrons
N(Beta)            :       48.000005084350 electrons
N(Total)           :       96.000010168700 electrons
E(X)               :     -113.958511033413 Eh       
E(C)               :       -3.273716907792 Eh       
E(XC)              :     -117.232227941205 Eh       

---------------
SCF CONVERGENCE
---------------

  Last Energy change         ...   -6.6530e-09  Tolerance :   1.0000e-08
  Last MAX-Density change    ...    5.0950e-05  Tolerance :   1.0000e-07
  Last RMS-Density change    ...    1.3076e-05  Tolerance :   5.0000e-09
  Last DIIS Error            ...    2.3425e-03  Tolerance :   5.0000e-07
  Last Orbital Gradient      ...    1.4213e-05  Tolerance :   1.0000e-05
  Last Orbital Rotation      ...    3.9539e-05  Tolerance :   1.0000e-05


----------------
ORBITAL ENERGIES
----------------

  NO   OCC          E(Eh)            E(eV) 
   0   2.0000     -55.467619     -1509.3507 
   1   2.0000     -55.438912     -1508.5695 
   2   2.0000     -55.430523     -1508.3412 
   3   2.0000     -55.402617     -1507.5819 
   4   2.0000     -55.391240     -1507.2723 
   5   2.0000     -55.337342     -1505.8056 
   6   2.0000      -4.028568      -109.6229 
   7   2.0000      -3.999702      -108.8374 
   8   2.0000      -3.996217      -108.7426 
   9   2.0000      -3.971344      -108.0658 
  10   2.0000      -3.964565      -107.8813 
  11   2.0000      -3.928002      -106.8864 
  12   2.0000      -2.633509       -71.6614 
  13   2.0000      -2.632595       -71.6366 
  14   2.0000      -2.626301       -71.4653 
  15   2.0000      -2.604525       -70.8727 
  16   2.0000      -2.601724       -70.7965 
  17   2.0000      -2.601292       -70.7848 
  18   2.0000      -2.600100       -70.7523 
  19   2.0000      -2.597999       -70.6951 
  20   2.0000      -2.594496       -70.5998 
  21   2.0000      -2.575517       -70.0834 
  22   2.0000      -2.573813       -70.0370 
  23   2.0000      -2.570237       -69.9397 
  24   2.0000      -2.569717       -69.9256 
  25   2.0000      -2.565434       -69.8090 
  26   2.0000      -2.563205       -69.7484 
  27   2.0000      -2.531630       -68.8892 
  28   2.0000      -2.531013       -68.8724 
  29   2.0000      -2.524167       -68.6861 
  30   2.0000      -0.527473       -14.3533 
  31   2.0000      -0.494313       -13.4509 
  32   2.0000      -0.461211       -12.5502 
  33   2.0000      -0.452340       -12.3088 
  34   2.0000      -0.407256       -11.0820 
  35   2.0000      -0.382193       -10.4000 
  36   2.0000      -0.377138       -10.2624 
  37   2.0000      -0.333517        -9.0755 
  38   2.0000      -0.331235        -9.0134 
  39   2.0000      -0.314883        -8.5684 
  40   2.0000      -0.295770        -8.0483 
  41   2.0000      -0.294613        -8.0168 
  42   2.0000      -0.283320        -7.7095 
  43   2.0000      -0.269229        -7.3261 
  44   2.0000      -0.258227        -7.0267 
  45   2.0000      -0.250795        -6.8245 
  46   2.0000      -0.246200        -6.6994 
  47   2.0000      -0.243904        -6.6370 
  48   0.0000      -0.167058        -4.5459 
  49   0.0000      -0.159290        -4.3345 
  50   0.0000      -0.141655        -3.8546 
  51   0.0000      -0.106376        -2.8946 
  52   0.0000      -0.098985        -2.6935 
  53   0.0000      -0.097309        -2.6479 
  54   0.0000      -0.075214        -2.0467 
  55   0.0000      -0.064441        -1.7535 
  56   0.0000      -0.047876        -1.3028 
  57   0.0000      -0.038717        -1.0535 
  58   0.0000      -0.033778        -0.9191 
*Only the first 10 virtual orbitals were printed.
-------
TIMINGS
-------

Total SCF time: 0 days 0 hours 0 min 4 sec 

Total time                  ....       4.549 sec
Sum of individual times     ....       4.337 sec  ( 95.3%)

SCF preparation             ....       1.334 sec  ( 29.3%)
Fock matrix formation       ....       2.248 sec  ( 49.4%)
  Startup                   ....       0.014 sec  (  0.6% of F)
  Split-RI-J                ....       0.616 sec  ( 27.4% of F)
  XC integration            ....       1.379 sec  ( 61.3% of F)
    XC Preparation          ....       0.000 sec  (  0.0% of XC)
    Basis function eval.    ....       0.249 sec  ( 18.0% of XC)
    Density eval.           ....       0.123 sec  (  8.9% of XC)
    XC-Functional eval.     ....       0.037 sec  (  2.7% of XC)
    XC-Potential eval.      ....       0.095 sec  (  6.9% of XC)
Diagonalization             ....       0.000 sec  (  0.0%)
Density matrix formation    ....       0.090 sec  (  2.0%)
Total Energy calculation    ....       0.062 sec  (  1.4%)
Population analysis         ....       0.000 sec  (  0.0%)
Orbital Transformation      ....       0.047 sec  (  1.0%)
Orbital Orthonormalization  ....       0.000 sec  (  0.0%)
DIIS solution               ....       0.263 sec  (  5.8%)
SOSCF solution              ....       0.292 sec  (  6.4%)
Finished LeanSCF after   4.6 sec

Maximum memory used throughout the entire LEANSCF-calculation: 15.9 MB


           ************************************************************
           *        Program running with 64 parallel MPI-processes    *
           *              working on a common directory               *
           ************************************************************

------------------------------------------------------------------------------
                         ORCA PROPERTY INTEGRAL CALCULATIONS
------------------------------------------------------------------------------

GBWName                                   ... run.gbw
Number of atoms                           ...     24
Number of basis functions                 ...    198
Max core memory                           ...   4096 MB

Dipole integrals                          ... YES
Quadrupole integrals                      ...  NO
Linear momentum integrals                 ...  NO
Angular momentum integrals                ...  NO
Higher moments length integrals           ...  NO
Higher moments velocity integrals         ...  NO
Kinetic energy integrals                  ...  NO
GIAO right hand sides                     ...  NO
GIAO dipole derivative integrals          ...  NO
SOC integrals                             ...  NO
EPR diamagnetic integrals (GIAO)          ...  NO
EPR gauge integrals                       ...  NO
Field gradient integrals                  ...  NO (   0 nuclei)
Spin-dipole/Fermi contact integrals       ...  NO (   0 nuclei)
Contact density integrals                 ...  NO (   0 nuclei)
Nucleus-orbit integrals                   ...  NO (   0 nuclei)
Geometric perturbations                   ...  NO (  24 nuclei)

Choice of electric origin   ... Center of mass
Position of electric origin ... (  0.3766, -2.8222,  6.7254) 
Choice of magnetic origin   ... GIAO
Position of magnetic origin ... (  0.0000,  0.0000,  0.0000) 

Calculating integrals                     ... Electric Dipole (Length)     done (  0.0 sec)

Property integrals calculated in   0.0 sec

Maximum memory used throughout the entire PROPINT-calculation: 13.6 MB


-------------------------------------------------------------------------------
                          DFT DISPERSION CORRECTION                            
                                                                               
                              DFTD3 V3.1  Rev 1                                
                          USING Becke-Johnson damping                          
-------------------------------------------------------------------------------
The PBE functional is recognized
Active option DFTDOPT                   ...         4   

molecular C6(AA) [au] = 11788.010303 


            DFT-D V3
 parameters
 s6 scaling factor         :     1.0000 
 a1 scaling factor         :     0.4289 
 s8 scaling factor         :     0.7875 
 a2 scaling factor         :     4.4407 
 ad hoc parameters k1-k3   :    16.0000     1.3333    -4.0000 

 Edisp/kcal,au: -15.402171275247  -0.024544919669 
 E6   /kcal   :  -9.688895609 
 E8   /kcal   :  -5.713275666 
 % E8         :  37.093962687 

-------------------------   ----------------
Dispersion correction           -0.024544920
-------------------------   ----------------


-------------------------   --------------------
FINAL SINGLE POINT ENERGY     -1464.062364610603
-------------------------   --------------------



           ************************************************************
           *        Program running with 64 parallel MPI-processes    *
           *              working on a common directory               *
           ************************************************************
------------------------------------------------------------------------------
                         ORCA SCF GRADIENT CALCULATION
------------------------------------------------------------------------------

Nuc. rep. gradient        (SHARK) ... done (  0.0 sec)
HCore & Overlap gradient  (SHARK) ... done (  0.0 sec)
Split-RIJ-J gradient      (SHARK) ... done (  0.2 sec)
XC gradient                       ... done (  0.4 sec)
Dispersion correction             ... done (  0.0 sec)

-------------------
DISPERSION GRADIENT
-------------------

   1   Al  :    0.000362302    0.001063888    0.000676910
   2   Al  :   -0.000248528    0.000401637   -0.000888846
   3   H   :    0.000051080   -0.000048963   -0.000179111
   4   H   :    0.000237861   -0.000175350    0.000231221
   5   H   :    0.000017627    0.000154789   -0.000073283
   6   H   :   -0.000060358    0.000087924    0.000049297
   7   H   :   -0.000098001    0.000158801    0.000011247
   8   H   :    0.000047602    0.000042890   -0.000116913
   9   Al  :   -0.000121850   -0.000864069   -0.000861081
  10   H   :   -0.000035945   -0.000141265   -0.000086170
  11   H   :    0.000186500    0.000234095    0.000286493
  12   H   :   -0.000518066   -0.000203768   -0.000665778
  13   Al  :    0.000102310    0.000035131    0.000157845
  14   H   :   -0.000169468   -0.000052358    0.000031602
  15   H   :    0.000219077    0.000048014    0.000031487
  16   H   :    0.000074801   -0.000162982   -0.000105569
  17   Al  :   -0.000806431    0.000100439    0.000572315
  18   H   :   -0.000119780   -0.000164145    0.000062416
  19   H   :    0.000191199   -0.000284223   -0.000075329
  20   Al  :    0.000077094    0.000901544    0.000252410
  21   H   :    0.000088933   -0.000023193    0.000150241
  22   H   :    0.000245192   -0.000920973    0.000306990
  23   H   :    0.000289206   -0.000141711    0.000146932
  24   H   :   -0.000012358   -0.000046153    0.000084675

Difference to translation invariance:
           :   -0.0000000000    0.0000000000    0.0000000000

Difference to rotation invariance:
           :    0.0000000000   -0.0000000000    0.0000000000

Norm of the Dispersion gradient    ...    0.0029724628
RMS gradient                       ...    0.0003503081
MAX gradient                       ...    0.0010638877

------------------
CARTESIAN GRADIENT
------------------

   1   Al  :   -0.006004185   -0.066562729   -0.015938793
   2   Al  :   -0.017753155   -0.053571118    0.039861301
   3   H   :   -0.002876425    0.013947622   -0.007679015
   4   H   :   -0.013664719    0.024200991   -0.035561895
   5   H   :    0.011605971    0.000670323   -0.006070734
   6   H   :   -0.022330229    0.042509022   -0.012542149
   7   H   :    0.006792643   -0.000115305   -0.001712326
   8   H   :    0.014850236    0.009249569   -0.000614700
   9   Al  :    0.015224346    0.052579037    0.063028946
  10   H   :    0.021686680   -0.028796289   -0.036281847
  11   H   :   -0.004528297   -0.032577792   -0.020286551
  12   H   :    0.019686039    0.021250838    0.032041504
  13   Al  :    0.008184645    0.022333359   -0.007942277
  14   H   :   -0.022340838   -0.065617549    0.174955918
  15   H   :    0.013586803   -0.004639980    0.008867007
  16   H   :   -0.036784513    0.007935089   -0.010331188
  17   Al  :    0.062992565   -0.013812907   -0.185713280
  18   H   :    0.003687942    0.078454942    0.017088200
  19   H   :   -0.026243110    0.022207256    0.006029358
  20   Al  :   -0.024912102   -0.002389433    0.001921686
  21   H   :   -0.012277870   -0.003359049   -0.001973753
  22   H   :   -0.003429658    0.031595514    0.003058568
  23   H   :    0.026530120   -0.024173385   -0.028349870
  24   H   :   -0.011682888   -0.031318025    0.024145892

Difference to translation invariance:
           :   -0.0000000000   -0.0000000000   -0.0000000000

Difference to rotation invariance:
           :    0.0000531848   -0.0000272617   -0.0000731921

Norm of the Cartesian gradient     ...    0.3428026714
RMS gradient                       ...    0.0403996823
MAX gradient                       ...    0.1857132803

-------
TIMINGS
-------

Total SCF gradient time     ....        0.687 sec

Densities                   ....       0.002 sec  (  0.2%)
One electron gradient       ....       0.033 sec  (  4.8%)
RI-J Coulomb gradient       ....       0.193 sec  ( 28.1%)
XC gradient                 ....       0.418 sec  ( 60.8%)

Maximum memory used throughout the entire SCFGRAD-calculation: 33.3 MB
------------------------------------------------------------------------------
                         ORCA GEOMETRY RELAXATION STEP
------------------------------------------------------------------------------

Reading the OPT-File                    .... done
Getting information on internals        .... done
Copying old internal coords+grads       .... done
Making the new internal coordinates     .... (2022 redundants) done
Validating the new internal coordinates .... (2022 redundants) done
Calculating the B-matrix                .... done
Calculating the G,G- and P matrices     .... done
Transforming gradient to internals      .... done
Projecting the internal gradient        .... done
Number of atoms                         ....  24
Number of internal coordinates          .... 293
Current Energy                          .... -1464.062364611 Eh
Current gradient norm                   ....     0.342802671 Eh/bohr
Maximum allowed component of the step   ....  0.300
Current trust radius                    ....  0.300
Evaluating the initial hessian          ....  (Almloef) done
Projecting the Hessian                  .... done
Forming the augmented Hessian           .... done
Diagonalizing the augmented Hessian     .... done
Last element of RFO vector              ....  0.850641684
Lowest eigenvalues of augmented Hessian:
 -0.108723673  0.011932955  0.013620717  0.015116216  0.019934853
Length of the computed step             ....  0.618057974
Warning: the length of the step is outside the trust region - taking restricted step instead
The input lambda is                     ....     0.010866
   iter:   5  x=   -0.034207  g=   73.500749 f(x)=     2.001546
   iter:  10  x=   -0.358840  g=    0.434057 f(x)=     0.017286
The output lambda is                    ....    -0.365136 (14 iterations)
The final length of the internal step   ....  0.300000000
Converting the step to Cartesian space:
 Initial RMS(Int)=    0.0175261871
Transforming coordinates:
 Iter   0:  RMS(Cart)=    0.0364137813 RMS(Int)=    0.0174967108
done
Storing new coordinates                 .... done

                                .--------------------.
          ----------------------|Geometry convergence|-------------------------
          Item                value                   Tolerance       Converged
          ---------------------------------------------------------------------
          RMS gradient        0.0143126165            0.0000300000      NO
          MAX gradient        0.1854862105            0.0001000000      NO
          RMS step            0.0175261871            0.0006000000      NO
          MAX step            0.1178925837            0.0010000000      NO
          -------------------------------------------------------------------------
          ........................................................
          Max(Bonds)      0.0624      Max(Angles)    1.68
          Max(Dihed)        2.16      Max(Improp)    0.00
          ---------------------------------------------------------------------

The optimization has not yet converged - more geometry cycles are needed


    ---------------------------------------------------------------------------
                         Redundant Internal Coordinates
                            (Angstroem and degrees)

        Definition                    Value    dE/dq     Step     New-Value
    ----------------------------------------------------------------------------
     1. B(Al  1,Al  0)                3.1887  0.001951 -0.0023    3.1864   
     2. B(H   2,Al  1)                1.6115 -0.010022  0.0078    1.6193   
     3. B(H   3,Al  1)                1.8815  0.042687 -0.0449    1.8366   
     4. B(H   4,Al  1)                1.7631  0.001496 -0.0015    1.7616   
     5. B(H   4,Al  0)                1.7368  0.005604 -0.0053    1.7315   
     6. B(H   5,Al  0)                2.1635  0.048811 -0.0624    2.1011   
     7. B(H   6,Al  0)                1.7025 -0.001362  0.0013    1.7037   
     8. B(H   7,Al  1)                1.6941  0.016841 -0.0139    1.6801   
     9. B(Al  8,Al  1)                3.2024 -0.004989  0.0050    3.2074   
    10. B(Al  8,H   2)                1.6925  0.004089 -0.0026    1.6899   
    11. B(H   9,Al  8)                1.5224 -0.032068  0.0227    1.5451   
    12. B(H  10,Al  8)                1.8754  0.036552 -0.0382    1.8372   
    13. B(H  11,Al  0)                1.9326  0.042866 -0.0473    1.8853   
    14. B(Al 12,Al  8)                3.0079 -0.010164  0.0065    3.0144   
    15. B(Al 12,H   6)                1.7019 -0.000715  0.0009    1.7028   
    16. B(Al 12,Al  0)                3.1300 -0.000958  0.0014    3.1314   
    17. B(Al 12,H   9)                1.8822  0.016352 -0.0143    1.8679   
    18. B(H  14,Al 12)                1.6260  0.011842 -0.0097    1.6163   
    19. B(H  15,Al  8)                1.5072 -0.030433  0.0177    1.5249   
    20. B(Al 16,H  13)                1.2637 -0.185486  0.0578    1.3215   
[...]
     57      -0.004019  -0.000087   0.000849   0.000357   0.000176   0.025498
     58      -0.001514   0.000117   0.000315   0.000012  -0.000505  -0.003529
     59       0.001500   0.000069  -0.000295   0.000212  -0.000170   0.026575
     60       0.013716   0.000220  -0.000996  -0.012329  -0.000450  -0.708849
     61      -0.001815  -0.000646  -0.000133   0.001312   0.001080   0.081355
     62       0.013846  -0.000175  -0.000301  -0.011784  -0.000017  -0.692741
     63      -0.008382   0.000617  -0.001230   0.002397  -0.002004   0.000214
     64       0.020613  -0.001845  -0.000885  -0.003484   0.008274   0.015254
     65      -0.026189  -0.001695   0.001201   0.005107  -0.000109   0.000698
     66      -0.003471   0.000498  -0.001207   0.001536  -0.001488   0.006579
     67      -0.001389  -0.002517  -0.000690   0.000107   0.005947  -0.010793
     68      -0.034737  -0.000400   0.001383   0.006438   0.005357  -0.009136
     69       0.138271   0.001945  -0.029385   0.002948  -0.000670   0.038890
     70       0.026644   0.000335  -0.005765   0.000443  -0.004913   0.005737
     71       0.014253   0.000172  -0.002790   0.000711  -0.001755   0.008551


-----------
IR SPECTRUM
-----------

 Mode   freq       eps      Int      T**2         TX        TY        TZ
       cm**-1   L/(mol*cm) km/mol    a.u.
----------------------------------------------------------------------------
  7:     42.22   0.000016    0.08  0.000120  ( 0.006342 -0.002088  0.008707)
  8:     51.55   0.000035    0.18  0.000213  (-0.002899  0.013120  0.005692)
  9:     81.35   0.000029    0.15  0.000111  ( 0.001721 -0.003136  0.009900)
 10:    104.15   0.000091    0.46  0.000272  (-0.016215 -0.002071 -0.002243)
 11:    124.20   0.000849    4.29  0.002134  ( 0.010246 -0.042563 -0.014734)
 12:    131.25   0.000011    0.06  0.000026  (-0.003159  0.001224  0.003798)
 13:    154.18   0.000006    0.03  0.000012  (-0.000743  0.002931  0.001790)
 14:    171.98   0.000143    0.72  0.000260  (-0.010847  0.001349 -0.011839)
 15:    200.64   0.000517    2.61  0.000804  (-0.007395  0.021503 -0.016927)
 16:    209.78   0.002433   12.30  0.003620  ( 0.006225 -0.008485  0.059236)
 17:    235.31   0.000012    0.06  0.000016  ( 0.000827 -0.002423  0.003021)
 18:    257.90   0.001751    8.85  0.002119  (-0.006445 -0.018456  0.041680)
 19:    286.98   0.000290    1.47  0.000316  ( 0.004409 -0.017210 -0.000417)
 20:    323.97   0.000745    3.76  0.000717  ( 0.000467  0.009580 -0.025009)
 21:    355.80   0.000687    3.47  0.000602  (-0.023625 -0.006555  0.001016)
 22:    360.65   0.000092    0.47  0.000080  ( 0.001735 -0.008240 -0.002965)
 23:    378.63   0.009157   46.28  0.007547  (-0.056177 -0.034770  0.056413)
 24:    393.49   0.001662    8.40  0.001318  (-0.015068 -0.014994  0.029430)
 25:    395.74   0.000025    0.13  0.000020  (-0.002214  0.001478  0.003605)
 26:    413.36   0.000003    0.02  0.000002  (-0.000276  0.001328  0.000668)
 27:    443.52   0.003121   15.77  0.002196  ( 0.004940 -0.014296  0.044356)
 28:    463.22   0.000417    2.11  0.000281  ( 0.003693 -0.015473 -0.005273)
 29:    497.08   0.024232  122.46  0.015213  (-0.063181 -0.049962  0.093406)
 30:    511.96   0.000362    1.83  0.000221  ( 0.001320 -0.014618 -0.002310)
 31:    548.03   0.014533   73.44  0.008275  (-0.035237 -0.031283  0.077814)
 32:    564.86   0.017545   88.66  0.009693  ( 0.018808 -0.093213 -0.025505)
 33:    589.84   0.043127  217.95  0.022817  ( 0.053097  0.056906 -0.129458)
 34:    651.64   0.043663  220.65  0.020910  ( 0.034130 -0.127063 -0.060000)
 35:    656.97   0.041382  209.13  0.019656  ( 0.033498 -0.122536 -0.059324)
 36:    679.76   0.119127  602.02  0.054689  (-0.057500 -0.092055  0.207143)
 37:    684.51   0.145881  737.22  0.066506  ( 0.040455 -0.243072 -0.076061)
 38:    688.46   0.051613  260.83  0.023395  ( 0.150189  0.008958 -0.027535)
 39:    703.98   0.054346  274.64  0.024091  ( 0.105090 -0.018774  0.112670)
 40:    718.89   0.004778   24.15  0.002074  ( 0.012966 -0.042575 -0.009669)
 41:    726.05   0.105776  534.55  0.045464  (-0.000063  0.076200 -0.199142)
 42:    737.00   0.009430   47.65  0.003993  (-0.013672  0.057304  0.022848)
 43:    772.23   0.021799  110.17  0.008809  ( 0.069337 -0.007665  0.062793)
 44:    815.93   0.026983  136.36  0.010320  ( 0.052301 -0.087041  0.002927)
 45:    824.18   0.062155  314.10  0.023534  ( 0.109021  0.019600  0.106132)
 46:    909.77   0.040064  202.47  0.013743  (-0.006826  0.032663 -0.112380)
 47:    989.99   0.023566  119.09  0.007428  (-0.021079  0.078707  0.028093)
 48:   1063.09   0.000017    0.09  0.000005  ( 0.000502  0.002181  0.000146)
 49:   1092.14   0.015280   77.22  0.004366  (-0.058643 -0.023085  0.019853)
 50:   1096.81   0.006263   31.65  0.001782  ( 0.013621 -0.037112 -0.014804)
 51:   1106.42   0.057747  291.83  0.016288  (-0.123709 -0.030674 -0.006534)
 52:   1128.42   0.014336   72.45  0.003965  (-0.056576 -0.000369 -0.027634)
 53:   1153.26   0.113188  572.00  0.030628  ( 0.009549 -0.060031  0.164112)
 54:   1617.71   0.021963  110.99  0.004237  (-0.014113  0.060226  0.020257)
 55:   1664.70   0.147579  745.80  0.027665  ( 0.032358  0.059806 -0.151794)
 56:   1696.03   0.172331  870.89  0.031708  (-0.057370 -0.049864  0.161030)
 57:   1697.64   0.102412  517.55  0.018826  ( 0.033175  0.074972 -0.110019)
 58:   1754.02   0.117357  593.07  0.020879  (-0.141284 -0.030080 -0.003645)
 59:   1775.64   0.348828  1762.83  0.061305  (-0.054853  0.226816  0.082770)
 60:   1811.55   0.099437  502.51  0.017129  (-0.018051  0.041647 -0.122756)
 61:   1858.83   0.075267  380.37  0.012636  ( 0.100028  0.035917 -0.036611)
 62:   1894.37   0.025709  129.92  0.004235  (-0.054583  0.001958 -0.035383)
 63:   1903.91   0.003505   17.71  0.000574  (-0.005217  0.021697  0.008744)
 64:   1907.14   0.000384    1.94  0.000063  (-0.000329  0.002484 -0.007516)
 65:   1908.98   0.012238   61.85  0.002001  (-0.010822  0.012885 -0.041442)
 66:   1914.45   0.000241    1.22  0.000039  ( 0.006151  0.000362  0.001141)
 67:   1915.31   0.000046    0.23  0.000008  (-0.002574  0.000791 -0.000567)
 68:   1918.84   0.069171  349.56  0.011249  ( 0.095851  0.006797  0.044897)
 69:   1928.74   0.029975  151.48  0.004850  (-0.049492 -0.026839  0.040990)
 70:   1929.14   0.040175  203.03  0.006499  ( 0.014666 -0.074915 -0.025912)
 71:   1959.35   0.018579   93.89  0.002959  ( 0.032552 -0.007646  0.042906)

* The epsilon (eps) is given for a Dirac delta lineshape.
** The dipole moment derivative (T) already includes vibrational overlap.

The first frequency considered to be a vibration is 7
The total number of vibrations considered is 65


--------------------------
THERMOCHEMISTRY AT 298.15K
--------------------------

Temperature         ...   298.15 K
Pressure            ...     1.00 atm
Total Mass          ...   180.04 AMU
Quasi RRHO          ...     True
Cut-Off Frequency   ...     1.00 cm^-1

Throughout the following assumptions are being made:
  (1) The electronic state is orbitally nondegenerate
  (2) There are no thermally accessible electronically excited states
  (3) Hindered rotations indicated by low frequency modes are not
      treated as such but are treated as vibrations and this may
      cause some error
  (4) All equations used are the standard statistical mechanics
      equations for an ideal gas
  (5) All vibrations are strictly harmonic

freq.      42.22  E(vib)   ...       0.53 
freq.      51.55  E(vib)   ...       0.52 
freq.      81.35  E(vib)   ...       0.48 
freq.     104.15  E(vib)   ...       0.46 
freq.     124.20  E(vib)   ...       0.43 
freq.     131.25  E(vib)   ...       0.42 
freq.     154.18  E(vib)   ...       0.40 
freq.     171.98  E(vib)   ...       0.38 
freq.     200.64  E(vib)   ...       0.35 
freq.     209.78  E(vib)   ...       0.34 
freq.     235.31  E(vib)   ...       0.32 
freq.     257.90  E(vib)   ...       0.30 
freq.     286.98  E(vib)   ...       0.27 
freq.     323.97  E(vib)   ...       0.25 
freq.     355.80  E(vib)   ...       0.22 
freq.     360.65  E(vib)   ...       0.22 
freq.     378.63  E(vib)   ...       0.21 
freq.     393.49  E(vib)   ...       0.20 
freq.     395.74  E(vib)   ...       0.20 
freq.     413.36  E(vib)   ...       0.19 
freq.     443.52  E(vib)   ...       0.17 
freq.     463.22  E(vib)   ...       0.16 
freq.     497.08  E(vib)   ...       0.14 
freq.     511.96  E(vib)   ...       0.14 
freq.     548.03  E(vib)   ...       0.12 
freq.     564.86  E(vib)   ...       0.11 
freq.     589.84  E(vib)   ...       0.10 
freq.     651.64  E(vib)   ...       0.08 
freq.     656.97  E(vib)   ...       0.08 
freq.     679.76  E(vib)   ...       0.08 
freq.     684.51  E(vib)   ...       0.07 
freq.     688.46  E(vib)   ...       0.07 
freq.     703.98  E(vib)   ...       0.07 
freq.     718.89  E(vib)   ...       0.07 
freq.     726.05  E(vib)   ...       0.06 
freq.     737.00  E(vib)   ...       0.06 
freq.     772.23  E(vib)   ...       0.05 
freq.     815.93  E(vib)   ...       0.05 
freq.     824.18  E(vib)   ...       0.05 
freq.     909.77  E(vib)   ...       0.03 
freq.     989.99  E(vib)   ...       0.02 
freq.    1063.09  E(vib)   ...       0.02 
freq.    1092.14  E(vib)   ...       0.02 
freq.    1096.81  E(vib)   ...       0.02 
freq.    1106.42  E(vib)   ...       0.02 
freq.    1128.42  E(vib)   ...       0.01 
freq.    1153.26  E(vib)   ...       0.01 
freq.    1617.71  E(vib)   ...       0.00 
freq.    1664.70  E(vib)   ...       0.00 
freq.    1696.03  E(vib)   ...       0.00 
freq.    1697.64  E(vib)   ...       0.00 
freq.    1754.02  E(vib)   ...       0.00 
freq.    1775.64  E(vib)   ...       0.00 
freq.    1811.55  E(vib)   ...       0.00 
freq.    1858.83  E(vib)   ...       0.00 
freq.    1894.37  E(vib)   ...       0.00 
freq.    1903.91  E(vib)   ...       0.00 
freq.    1907.14  E(vib)   ...       0.00 
freq.    1908.98  E(vib)   ...       0.00 
freq.    1914.45  E(vib)   ...       0.00 
freq.    1915.31  E(vib)   ...       0.00 
freq.    1918.84  E(vib)   ...       0.00 
freq.    1928.74  E(vib)   ...       0.00 
freq.    1929.14  E(vib)   ...       0.00 
freq.    1959.35  E(vib)   ...       0.00 

------------
INNER ENERGY
------------

The inner energy is: U= E(el) + E(ZPE) + E(vib) + E(rot) + E(trans)
    E(el)   - is the total energy from the electronic structure calculation
              = E(kin-el) + E(nuc-el) + E(el-el) + E(nuc-nuc)
    E(ZPE)  - the the zero temperature vibrational energy from the frequency calculation
    E(vib)  - the the finite temperature correction to E(ZPE) due to population
              of excited vibrational states
    E(rot)  - is the rotational thermal energy
    E(trans)- is the translational thermal energy

Summary of contributions to the inner energy U:
Electronic energy                ...  -1464.48740731 Eh
Zero point energy                ...      0.13338090 Eh      83.70 kcal/mol
Thermal vibrational correction   ...      0.01370012 Eh       8.60 kcal/mol
Thermal rotational correction    ...      0.00141627 Eh       0.89 kcal/mol
Thermal translational correction ...      0.00141627 Eh       0.89 kcal/mol
-----------------------------------------------------------------------
Total thermal energy                  -1464.33749374 Eh


Summary of corrections to the electronic energy:
(perhaps to be used in another calculation)
Total thermal correction                  0.01653267 Eh      10.37 kcal/mol
Non-thermal (ZPE) correction              0.13338090 Eh      83.70 kcal/mol
-----------------------------------------------------------------------
Total correction                          0.14991357 Eh      94.07 kcal/mol


--------
ENTHALPY
--------

The enthalpy is H = U + kB*T
                kB is Boltzmann's constant
Total thermal energy              ...  -1464.33749374 Eh 
Thermal Enthalpy correction       ...      0.00094421 Eh       0.59 kcal/mol
-----------------------------------------------------------------------
Total Enthalpy                    ...  -1464.33654953 Eh


Note: Only C1 symmetry has been detected, increase convergence thresholds 
      if your molecule has a higher symmetry. Symmetry factor of 1.0 is   
      used for the rotational entropy correction. 
 

Note: Rotational entropy computed according to Herzberg 
Infrared and Raman Spectra, Chapter V,1, Van Nostrand Reinhold, 1945 
Point Group:  C1, Symmetry Number:   1  
Rotational constants in cm-1:     0.031867     0.014000     0.012129 

Vibrational entropy computed according to the QRRHO of S. Grimme
Chem.Eur.J. 2012 18 9955 using a reference frequency of 100.0 cm-1


-------
ENTROPY
-------

The entropy contributions are T*S = T*(S(el)+S(vib)+S(rot)+S(trans))
     S(el)   - electronic entropy
     S(vib)  - vibrational entropy
     S(rot)  - rotational entropy
     S(trans)- translational entropy
The entropies will be listed as multiplied by the temperature to get
units of energy

Electronic entropy                ...      0.00000000 Eh      0.00 kcal/mol
Vibrational entropy               ...      0.02362631 Eh     14.83 kcal/mol
Rotational entropy                ...      0.01523584 Eh      9.56 kcal/mol
Translational entropy             ...      0.01970399 Eh     12.36 kcal/mol
-----------------------------------------------------------------------
Final entropy term                ...      0.05856614 Eh     36.75 kcal/mol

In case the symmetry of your molecule has not been determined correctly
or in case you have a reason to use a different symmetry number we print 
out the resulting rotational entropy values for sn=1,12:

 non-linear molecules -----------------------------------
|  sn= 1 | S(rot)=       0.01523584 Eh      9.56 kcal/mol|
|  sn= 2 | S(rot)=       0.01458139 Eh      9.15 kcal/mol|
|  sn= 3 | S(rot)=       0.01419856 Eh      8.91 kcal/mol|
|  sn= 4 | S(rot)=       0.01392693 Eh      8.74 kcal/mol|
|  sn= 5 | S(rot)=       0.01371624 Eh      8.61 kcal/mol|
|  sn= 6 | S(rot)=       0.01354410 Eh      8.50 kcal/mol|
|  sn= 7 | S(rot)=       0.01339855 Eh      8.41 kcal/mol|
|  sn= 8 | S(rot)=       0.01327248 Eh      8.33 kcal/mol|
|  sn= 9 | S(rot)=       0.01316127 Eh      8.26 kcal/mol|
|  sn=10 | S(rot)=       0.01306179 Eh      8.20 kcal/mol|
|  sn=11 | S(rot)=       0.01297180 Eh      8.14 kcal/mol|
|  sn=12 | S(rot)=       0.01288964 Eh      8.09 kcal/mol|
 linear molecules ---------------------------------------
|  Dinfh | S(rot)=       0.00949166 Eh      5.96 kcal/mol|
|  Cinfv | S(rot)=       0.01014612 Eh      6.37 kcal/mol|
 --------------------------------------------------------


-------------------
GIBBS FREE ENERGY
-------------------

The Gibbs free energy is G = H - T*S

Total enthalpy                    ...  -1464.33654953 Eh 
Total entropy correction          ...     -0.05856614 Eh    -36.75 kcal/mol
-----------------------------------------------------------------------
Final Gibbs free energy         ...  -1464.39511567 Eh

For completeness - the Gibbs free energy minus the electronic energy
G-E(el)                           ...      0.09229163 Eh     57.91 kcal/mol


Maximum memory used throughout the entire PROP-calculation: 34.1 MB

--------------------------------
SUGGESTED CITATIONS FOR THIS RUN
--------------------------------

Below you find a list of papers that are relevant to this ORCA run
We neither can nor want to force you to cite these papers, but we appreciate if you do
You receive ORCA, which is the product of decades of hard work by many enthusiastic individuals, for free
The only thing we kindly ask in return is that you cite our papers,
We deeply appreciate it, if you show your appreciation for ORCA by not just citing the generic ORCA reference.

Please note that relegating all ORCA citations to the supporting information does *not* help us.
SI sections are not indexed - citations you put there will not count into any citation statistics
But we need these citations in order to attract the funding resources that allow us to do what we are doing

Therefore, if you are a happy ORCA user, please consider citing a few of the papers listed below in the main body of your paper

In addition to the list printed below, the program has created the file run.bibtex that contains the list in bibtex format
You can import this file easily into all common literature databanks and citation aid programs


List of essential papers. We consider these as the minimum necessary citations

  1. Neese, F.
     Software update: the ORCA program system, version 6.0
     WIRES Comput. Molec. Sci. 2025 15(1), e70019
     doi.org/10.1002/wcms.7019

List of papers to cite with high priority. The work reported in these papers was absolutely
necessary for this run to complete.
Our perspective: the developers of density functionals and basis sets usually get cited in chemistry papers
Good! But without the algorithms to do something with them, the functionals or basis sets would not do anything.
Hence, in our opinion, the algorithm design and method developments papers are equally worthy of getting cited

  1. Neese, F.
     An improvement of the resolution of the identity approximation for the formation of the Coulomb matrix
     J. Comp. Chem. 2003 24(14), 1740-1747
     doi.org/10.1002/jcc.10318
  2. Grimme, S.; Antony, J.; Ehrlich, S.; Krieg, H.
     A consistent and accurate ab initio parametrization of density functional dispersion correction (DFT-D) for the 94 elements H-Pu
     J. Chem. Phys. 2010 132 , 154104
     doi.org/10.1063/1.3382344
  3. Grimme, S.; Ehrlich, S.; Goerigk, L.
     Effect of the damping function in dispersion corrected density functional theory
     J. Comput. Chem. 2011 32(7), 1456-1465
     doi.org/10.1002/jcc.21759
  4. Bykov, D.; Petrenko, T.; Izsak, R.; Kossmann, S.; Becker, U.; Valeev, E.; Neese, F.
     Efficient implementation of the analytic second derivatives of Hartree-Fock and hybrid DFT energies: a detailed analysis of different approximations
     Molec. Phys. 2015 113 , 1961-1977
     doi.org/10.1080/00268976.2015.1025114
  5. Neese, F.
     The SHARK Integral Generation and Digestion System
     J. Comp. Chem. 2022 44(3), 381
     doi.org/10.1002/jcc.26942

List of suggested additional citations. These are papers that are important in the 'surrounding' of 
of this run, or papers that preceded the highly important papers. If you like your results we are grateful for a citation.

  1. Neese, F.
     The ORCA program system
     WIRES Comput. Molec. Sci. 2012 2(1), 73-78
     doi.org/10.1002/wcms.81
  2. Neese, F.
     Software update: the ORCA program system, version 4.0
     WIRES Comput. Molec. Sci. 2018 8(1), 1-6
     doi.org/10.1002/wcms.1327
  3. Neese, F.; Wennmohs, F.; Becker, U.; Riplinger, C.
     The ORCA quantum chemistry program package
     J. Chem. Phys. 2020 152(22), 224108
     doi.org/10.1063/5.0004608
  4. Neese, F.
     Software update: The ORCA program system—Version 5.0
     WIRES Comput. Molec. Sci. 2022 12(1), e1606
     doi.org/10.1002/wcms.1606

List of optional additional citations

  1. Neese, F.
     Approximate second-order SCF convergence for spin unrestricted wavefunctions
     Chem. Phys. Lett. 2000 325(1-3), 93-98
     doi.org/10.1016/s0009-2614(00)00662-x

Timings for individual modules:

Sum of individual times          ...      939.931 sec (=  15.666 min)
Startup calculation              ...      291.174 sec (=   4.853 min)  31.0 %
SCF iterations                   ...      346.376 sec (=   5.773 min)  36.9 %
Property integrals               ...      120.512 sec (=   2.009 min)  12.8 %
SCF Response                     ...        8.507 sec (=   0.142 min)   0.9 %
Property calculations            ...        7.488 sec (=   0.125 min)   0.8 %
SCF Gradient evaluation          ...      164.144 sec (=   2.736 min)  17.5 %
Geometry relaxation              ...        1.731 sec (=   0.029 min)   0.2 %
                             ****ORCA TERMINATED NORMALLY****
TOTAL RUN TIME: 0 days 0 hours 17 minutes 38 seconds 82 msec
