
                                 *****************
                                 * O   R   C   A *
                                 *****************

                                            #,                                       
                                            ###                                      
                                            ####                                     
                                            #####                                    
                                            ######                                   
                                           ########,                                 
                                     ,,################,,,,,                         
                               ,,#################################,,                 
                          ,,##########################################,,             
                       ,#########################################, ''#####,          
                    ,#############################################,,   '####,        
                  ,##################################################,,,,####,       
                ,###########''''           ''''###############################       
              ,#####''   ,,,,##########,,,,          '''####'''          '####       
            ,##' ,,,,###########################,,,                        '##       
           ' ,,###''''                  '''############,,,                           
         ,,##''                                '''############,,,,        ,,,,,,###''
      ,#''                                            '''#######################'''  
     '                                                          ''''####''''         
             ,#######,   #######,   ,#######,      ##                                
            ,#'     '#,  ##    ##  ,#'     '#,    #''#        ,####,    ,#,          
            ##       ##  ##   ,#'  ##            #'  '#       #'       ,# #          
            ##       ##  #######   ##           ,######,      #####,      #          
            '#,     ,#'  ##    ##  '#,     ,#' ,#      #,     #,   #      #          
             '#######'   ##     ##  '#######'  #'      '#     '####' #    #          



                #########################################################
                #                        -***-                          #
                #          Department of theory and spectroscopy        #
                #                                                       #
                #                      Frank Neese                      #
                #                                                       #
                #     Directorship, Architecture, Infrastructure        #
                #                    SHARK, DRIVERS                     #
                #        Core code/Algorithms in most modules           #
                #                                                       #
                #        Max Planck Institute fuer Kohlenforschung      #
                #                Kaiser Wilhelm Platz 1                 #
                #                 D-45470 Muelheim/Ruhr                 #
                #                      Germany                          #
                #                                                       #
                #                  All rights reserved                  #
                #                        -***-                          #
                #########################################################


                         Program Version 6.1.0  -  RELEASE   -
                                (GIT: $679e74b$)
                          ($2025-06-10 18:02:51 +0200$)


 With contributions from (in alphabetic order):
[Max-Planck-Institut fuer Kohlenforschung]                               
  Daniel Aravena         : Magnetic Suceptibility                        
  Michael Atanasov       : Ab Initio Ligand Field Theory (pilot matlab implementation)
  Alexander A. Auer      : GIAO ZORA, VPT2 properties, NMR spectrum      
  Ute Becker             : All parallelization in ORCA, NUMFREQ, NUMCALC 
  Giovanni Bistoni       : ED, misc. LED, open-shell LED, HFLD           
  Dmytro Bykov           : pre 5.0 version of the SCF Hessian            
  Marcos Casanova-Páez   : Triplet and SCS-CIS(D). UHF-(DLPNO)-IP/EA/STEOM-CCSD. UHF-CVS-IP/STEOM-CCSD   
  Vijay G. Chilkuri      : MRCI spin determinant printing, contributions to CSF-ICE 
  Pauline Colinet        : FMM embedding                                 
  Dipayan Datta          : RHF DLPNO-CCSD density                        
  Achintya Kumar Dutta   : EOM-CC, STEOM-CC                              
  Nicolas Foglia         : Exact transition moments, OPA infrastructure, MCD improvements    
  Dmitry Ganyushin       : Spin-Orbit,Spin-Spin,Magnetic field MRCI      
  Miquel Garcia-Rates    : C-PCM and meta-GGA Hessian, CCSD/C-PCM, Gaussian charge scheme 
  Tiago L. C. Gouveia    : GS-ROHF, GS-ROCIS                             
  Yang Guo               : DLPNO-NEVPT2, F12-NEVPT2, CIM, IAO-localization        
  Andreas Hansen         : Spin unrestricted coupled pair/coupled cluster methods 
  Ingolf Harden          : AUTO-CI MPn and infrastructure                
  Benjamin Helmich-Paris : MC-RPA, TRAH-(SCF,CASSCF), AVAS, COSX integrals, SCF dyn. polar., MC-PDFT, srDFT 
  Lee Huntington         : MR-EOM, pCC                                   
  Robert Izsak           : Overlap fitted RIJCOSX, COSX-SCS-MP3, EOM     
  Riya Kayal             : Wick's Theorem for AUTO-CI, AUTO-CI UHF-CCSDT 
  Emily Kempfer          : AUTO-CI RHF CISDT and CCSDT, approximate NEVPT4
  Christian Kollmar      : KDIIS, OOCD, Brueckner-CCSD(T), CCSD density, CASPT2, CASPT2-K, improved NEVPT2 
  Axel Koslowski         : Symmetry handling                             
  Simone Kossmann        : meta-GGA functionals, TD-DFT gradient, OOMP2, (MP2 Hessian; deprecated post 5.0) 
  Lucas Lang             : DCDCAS, Hyperfine gauge corrections, ICE-SOC+SSC
  Marvin Lechner         : AUTO-CI (C++ implementation), FIC-MRCC        
  Spencer Leger          : CASSCF response                               
  Dagmar Lenk            : GEPOL surface, SMD, ORCA-2-JSON               
  Dimitrios Liakos       : Extrapolation schemes; Compound Job, Property file
  Dimitrios Manganas     : Further ROCIS development; embedding schemes. LFT, Crystal Embedding 
  Dimitrios Pantazis     : SARC Basis sets                               
  Anastasios Papadopoulos: AUTO-CI, single reference methods and gradients 
  Taras Petrenko         : pre 6.0 DFT Hessian and TD-DFT gradient,  ECA, NRVS 
  Petra Pikulova         : Analytic Raman intensities                    
  Peter Pinski           : DLPNO-MP2, DLPNO-MP2 Gradient                 
  Shashank Vittal Rao    : ES-AILFT, MagRelax                            
  Christoph Reimann      : Effective Core Potentials                     
  Marius Retegan         : Local ZFS, SOC                                
  Christoph Riplinger    : Optimizer, TS searches, QM/MM, DLPNO-CCSD(T), (RO)-DLPNO pert. Triples 
  Michael Roemelt        : Original ROCIS implementation, recursive CI coupling coefficients
  Masaaki Saitow         : Open-shell DLPNO-CCSD energy and density      
  Barbara Sandhoefer     : DKH picture change effects                    
  Yorick L. A. Schmerwitz: GMF and freeze-and-release deltaSCF, NEB S-IDPP initial path                    
  Kantharuban Sivalingam : CASSCF convergence/infrastructure, NEVPT2, NEVPT3, NEVPT4(SD), FIC-MRCI and CEPA variants
  Bernardo de Souza      : ESD, SOC TD-DFT                               
  Georgi L. Stoychev     : AutoAux, RI-MP2 NMR, DLPNO-MP2 response, X2C  
  Van Anh Tran           : RI-MP2 g-tensors                              
  Willem Van den Heuvel  : Paramagnetic NMR                              
  Zikuan Wang            : NOTCH, Electric field optimization            
  Frank Wennmohs         : Technical directorship and infrastructure     
  Hang Xu                : AUTO-CI-Response properties                   
                                                                         
[FACCTs GmbH]                                                            
  Markus Bursch, Nicolas Foglia, Miquel Garcia-Rates, Ingolf Harden, Hagen Neugebauer, Anastasios Papadopoulos, 
  Christoph Riplinger, Bernardo de Souza, Georgi L. Stoychev                                                    
                                                                 
  APM, various basis sets, CI-OPT, improved COSX, DLPNO-Multilevel,           
  DOCKER, DRACO, updates on ESD, Fragmentator, GOAT, IRC, LR-CPCM, L-BFGS, MBIS, meta-GGA TD-DFT gradient, ML-optimized integration grids, 
  MM, NACMEs, nearIR, NEB, NEB-TS, NL-DFT gradient (VV10), 2- and 3-layer-ONIOM, interface openCOSMO-RS, QMMM,   
  Crystal-QMMM, RESP, rigid body optimization, SF, symmetry and pop. for TD-DFT, various functionals, SOLVATOR                                   
                                                                         
[Other institutions]                                                     
  V. Asgeirsson          : NEB                                           
  Christoph Bannwarth    : sTDA-DFT, sTD-DFT, PBEh-3c, B97-3c, D3        
  Giovanni Bistoni       : ETS/NOCV, ADLD/ADEX, COVALED                  
  Martin Brehm           : Molecular dynamics                            
  Ronald Cardenas        : ETS/NOCV                                      
  Martina Colucci        : COVALED                                       
  Sebastian Ehlert       : rSCAN, r2SCAN, r2SCAN-3c, D4, dhf basis sets  
  Marvin Friede          : D4 for Fr, Ra, Ac-Lr                          
  Lars Goerigk           : TD-DFT with DH, B97 family of functionals     
  Stefan Grimme          : VdW corrections, initial TS optimization, DFT functionals, gCP, sTDA/sTD-DF 
  Waldemar Hujo          : DFT-NL                                        
  H. Jonsson             : NEB                                           
  Holger Kruse           : gCP                                           
  Marcel Mueller         : wB97X-3c, vDZP basis set                      
  Hagen Neugebauer       : wr2SCAN, Native XTB                           
  Gianluca Regni         : ADLD/ADEX                                     
  Tobias Risthaus        : pre 6.0 range-separated hybrid DFT and stability analysis
  Lukas Wittmann         : regularized MP2, r2SCAN double-hybrids, wr2SCAN        
                                                                         
We gratefully acknowledge several colleagues who have allowed us to      
interface, adapt or use parts of their codes:                            
  Ed Valeev, F. Pavosevic, A. Kumar             : LibInt (2-el integral package), F12 methods 
  Garnet Chan, S. Sharma, J. Yang, R. Olivares  : DMRG                   
  Ulf Ekstrom                                   : XCFun DFT Library      
  Mihaly Kallay                                 : mrcc  (arbitrary order and MRCC methods)
  Frank Weinhold                                : gennbo (NPA and NBO analysis)           
  Simon Mueller                                 : openCOSMO-RS                            
  Christopher J. Cramer and Donald G. Truhlar   : smd solvation model                     
  S Lehtola, MJT Oliveira, MAL Marques          : LibXC Library                           
  Liviu Ungur et al                             : ANISO software                          


 Your calculation uses the libint2 library for the computation of 2-el integrals
 For citations please refer to: http://libint.valeyev.net

 Your ORCA version has been built with support for libXC version: 7.0.0
 For citations please refer to: https://libxc.gitlab.io

 This ORCA versions uses:
   CBLAS   interface :  Fast vector & matrix operations
   LAPACKE interface :  Fast linear algebra routines
   SCALAPACK package :  Parallel linear algebra routines
   Shared memory     :  Shared parallel matrices
   BLAS/LAPACK       :  OpenBLAS 0.3.29  USE64BITINT DYNAMIC_ARCH NO_AFFINITY Bulldozer SINGLE_THREADED
        Core in use  :  Bulldozer
   Copyright (c) 2011-2014, The OpenBLAS Project


  ***********************************
  * Starting time: Tue Aug 12 23:05:37 2025
  * Host name:     chromium10
  * Process ID:    163671
  * Working dir.:  /local/scratch/mehlhorn/61825
  ***********************************



***************************************
The coordinates will be read from file: start.xyz
***************************************


Your calculation utilizes the geometrical counterpoise correction gCP
Please cite in your paper:
H.Kruse, S. Grimme J.Chem.Phys., 136, (2012), 154101 
   

Your calculation utilizes the atom-pairwise dispersion correction
with the Becke-Johnson damping scheme (D3BJ)


Warning: RI is on but no J-basis has been assigned. Assigning Def2/J (nothing to worry about!)
================================================================================

cite the ECPs for Zr [Def2-ECP] as follows:
Ce-Yb(ecp-28): M. Dolg, H. Stoll, H.Preuss, J. Chem. Phys., 1989, 90, 1730-1734.
Y-Cd(ecp-28), Hf-Hg(ecp-46): D. Andrae,U. Haeussermann, M. Dolg, H. Stoll, H. Preuss, Theor. Chim. Acta, 1990, 77, 123-141.
In-Sb(ecp-28), Tl-Bi(ecp-46): B. Metz, H. Stoll, M. Dolg, J. Chem. Phys., 2000, 113, 2563-2569.
Te-Xe(ecp-28), Po-Rn(ecp-46): K. A. Peterson, D. Figgen, E. Goll, H. Stoll, M. Dolg, J. Chem. Phys., 2003, 119, 11113-11123.
Rb(ecp-28), Cs(ecp-46): T. Leininger, A. Nicklass, W. Kuechle, H. Stoll, M. Dolg, A. Bergner, Chem. Phys. Lett., 1996, 255, 274-280.
Sr(ecp-28), Ba(ecp-46): M. Kaupp, P. V. Schleyer, H. Stoll and H. Preuss, J. Chem. Phys., 1991, 94, 1360-1366.
La(ecp-46): M. Dolg, H. Stoll, A. Savin, H. Preuss, Theor. Chim. Acta, 1989, 75, 173-194.
Lu(ecp-28): X. Cao, M. Dolg, J. Chem. Phys., 2001, 115, 7348-7355.

ECP parameters for Zr [Def2-ECP] have been obtained from:
TURBOMOLE (7.0.2)

----- Orbital basis set information -----
Your calculation utilizes the basis: def2-SV(P)
   F. Weigend and R. Ahlrichs, Phys. Chem. Chem. Phys. 7, 3297 (2005).

----- AuxJ basis set information -----
Your calculation utilizes the auxiliary basis: def2/J
   H-Rn: F. Weigend, Phys. Chem. Chem. Phys. 8, 1057 (2006).
   Fr-Lr: K. Eichkorn, F. Weigend, O. Treutler, R. Ahlrichs; Theor. Chem. Acc. 97, 119 (1997).

================================================================================
                                        WARNINGS
                       Please study these warnings very carefully!
================================================================================


WARNING: Gradients are needed
  ===> : At least TightSCF should be used for SCF convergence

WARNING: Geometry Optimization
  ===> : Switching off AutoStart
         For restart on a previous wavefunction, please use MOREAD

================================================================================
                                       INPUT FILE
================================================================================
NAME = run.inp
|  1> # Geometry optimization for (AlH3)n cluster
|  2> 
|  3> %pal nprocs 24  end
|  4> 
|  5> %geom MaxIter 500 end
|  6> 
|  7> 
|  8> ! PBE def2-SV(P)
|  9> ! RKS	# closed shell for AlH3
| 10> ! D3    #  dispersion correction
| 11> ! gCP(DFT/SV(P))
| 12> ! Freq 	# Frequency analysis to check the stabiltity of the structures
| 13> 
| 14> ! NoPop # population analysis not necessary	
| 15> 
| 16> ! DEFGRID2
| 17> ! NormalSCF
| 18> ! SloppyOpt
| 19> 
| 20> ! SmallPrint
| 21> 
| 22> 
| 23> * xyzFile 0 1 start.xyz # only maingroup elements H and Al so there should be no net spin
| 24> 
| 25>                          ****END OF INPUT****
================================================================================

                       *****************************
                       * Geometry Optimization Run *
                       *****************************

Geometry optimization settings:
Update method            Update   .... BFGS
Choice of coordinates    CoordSys .... (2022) Redundant Internals
Initial Hessian          InHess   .... Almloef's Model
Max. no of cycles        MaxIter  .... 500

Convergence Tolerances:
Energy Change            TolE     ....  8.0000e-05 Eh
Max. Gradient            TolMAXG  ....  5.0000e-03 Eh/bohr
RMS Gradient             TolRMSG  ....  1.0000e-03 Eh/bohr
Max. Displacement        TolMAXD  ....  3.0000e-02 bohr
RMS Displacement         TolRMSD  ....  2.0000e-02 bohr
Strict Convergence                .... False

------------------------------------------------------------------------------
                        ORCA OPTIMIZATION COORDINATE SETUP
------------------------------------------------------------------------------

The optimization will be done in redundant internal coordinates (2022)
Making redundant internal coordinates   ...  (2022 redundants) done
Evaluating the initial hessian          ...  (Almloef) done
Evaluating the coordinates              ...  done
Calculating the B-matrix                .... done
Calculating the G-matrix                .... done
The number of degrees of freedom        ....  795

    -----------------------------------------------------------------
                    Redundant Internal Coordinates


    -----------------------------------------------------------------
         Definition                    Initial Value    Approx d2E/dq
    -----------------------------------------------------------------
      1. B(Zr  2,Zr  1)                  3.3807         0.042655   
      2. B(Zr  3,Zr  0)                  3.3825         0.042368   
      3. B(Zr  4,Zr  1)                  3.3878         0.041548   
      4. B(Zr  4,Zr  3)                  3.4296         0.035641   
      5. B(Zr  5,Zr  0)                  3.4134         0.037824   
      6. B(Zr  5,Zr  2)                  3.4250         0.036247   
      7. B(O   6,Zr  0)                  2.1149         0.394928   
      8. B(O   6,Zr  5)                  2.0873         0.436986   
      9. B(O   6,Zr  3)                  2.1143         0.395727   
     10. B(O   7,Zr  2)                  2.1048         0.409768   
     11. B(O   7,Zr  4)                  2.0653         0.473827   
     12. B(O   7,Zr  1)                  2.1233         0.382926   
     13. B(O   8,Zr  5)                  2.1024         0.413421   
     14. B(O   8,Zr  1)                  2.1544         0.341523   
     15. B(O   8,Zr  2)                  2.0841         0.442143   
     16. B(O   9,Zr  0)                  2.1730         0.318980   
     17. B(O   9,Zr  3)                  2.0898         0.432947   
     18. B(O   9,Zr  4)                  2.1281         0.376207   
     19. B(O  10,Zr  4)                  2.1358         0.365764   
     20. B(O  10,Zr  3)                  2.1547         0.341220   
     21. B(O  10,Zr  1)                  2.1754         0.316157   
     22. B(O  11,Zr  2)                  2.1543         0.341654   
     23. B(O  11,Zr  5)                  2.1330         0.369526   
     24. B(O  11,Zr  0)                  2.1698         0.322781   
     25. B(O  12,Zr  0)                  1.9821         0.643124   
     26. B(O  13,Zr  0)                  1.9829         0.641368   
     27. B(O  14,Zr  0)                  2.0379         0.523909   
     28. B(O  15,Zr  0)                  2.0657         0.473091   
     29. B(O  16,Zr  1)                  2.0702         0.465416   
     30. B(O  17,Zr  1)                  2.0328         0.533914   
     31. B(O  18,Zr  1)                  1.9866         0.632607   
     32. B(O  19,Zr  1)                  1.9758         0.658161   
     33. B(O  20,Zr  2)                  1.9900         0.624726   
     34. B(O  21,Zr  2)                  1.9888         0.627671   
     35. B(O  22,Zr  2)                  1.9919         0.620501   
     36. B(O  23,Zr  2)                  2.0696         0.466381   
     37. B(O  24,Zr  3)                  2.0699         0.465789   
     38. B(O  25,Zr  3)                  1.9865         0.632863   
     39. B(O  26,Zr  3)                  1.9868         0.632117   
     40. B(O  27,Zr  3)                  1.9987         0.605119   
     41. B(O  28,Zr  4)                  1.9891         0.626897   
     42. B(O  29,Zr  4)                  2.0291         0.541275   
     43. B(O  30,Zr  4)                  1.9770         0.655410   
     44. B(O  31,Zr  4)                  2.0616         0.480294   
     45. B(O  32,Zr  5)                  2.0588         0.485237   
     46. B(O  33,Zr  5)                  1.9716         0.668490   
     47. B(O  34,Zr  5)                  2.0477         0.505530   
     48. B(O  35,Zr  5)                  1.9949         0.613669   
     49. B(C  36,O  33)                  1.2979         0.784867   
     50. B(C  36,O  12)                  1.2984         0.783339   
     51. B(C  37,O  25)                  1.2998         0.779406   
     52. B(C  37,O  13)                  1.3006         0.777253   
     53. B(C  38,O  14)                  1.2958         0.791089   
     54. B(C  38,O  21)                  1.2964         0.789204   
     55. B(C  39,O  29)                  1.2992         0.781178   
     56. B(C  39,O  15)                  1.2976         0.785686   
     57. B(C  40,O  34)                  1.3010         0.775988   
     58. B(C  40,O  16)                  1.2990         0.781847   
     59. B(C  41,O  26)                  1.2949         0.793475   
     60. B(C  41,O  17)                  1.2954         0.792035   
     61. B(C  42,O  18)                  1.3018         0.773611   
     62. B(C  42,O  22)                  1.3008         0.776481   
     63. B(C  43,O  19)                  1.2986         0.782861   
     64. B(C  43,O  30)                  1.2984         0.783457   
     65. B(C  44,O  35)                  1.3018         0.773621   
     66. B(C  44,O  20)                  1.3017         0.774018   
     67. B(C  45,O  31)                  1.2965         0.788806   
     68. B(C  45,O  23)                  1.2967         0.788336   
     69. B(C  46,O  32)                  1.2971         0.787128   
     70. B(C  46,O  24)                  1.2968         0.787962   
     71. B(C  47,O  28)                  1.3023         0.772385   
     72. B(C  47,O  27)                  1.3024         0.771933   
     73. B(H  48,C  41)                  1.0860         0.365470   
     74. B(H  49,C  42)                  1.0920         0.357407   
     75. B(H  50,C  38)                  1.0864         0.364842   
     76. B(H  51,C  37)                  1.0913         0.358351   
     77. B(H  52,C  43)                  1.0900         0.360159   
     78. B(H  53,C  47)                  1.0920         0.357466   
     79. B(H  54,C  39)                  1.0868         0.364402   
     80. B(H  55,C  45)                  1.0847         0.367200   
     81. B(H  56,C  40)                  1.0874         0.363602   
     82. B(H  57,C  46)                  1.0848         0.367005   
     83. B(H  58,C  36)                  1.0898         0.360299   
     84. B(H  59,C  44)                  1.0917         0.357912   
     85. B(Al 60,H  50)                  3.5316         0.010000   
     86. B(Al 60,O  21)                  3.3976         0.010000   
     87. B(Al 60,O  20)                  3.2344         0.010000   
     88. B(Al 61,O  23)                  3.3800         0.010000   
     89. B(Al 61,Al 60)                  3.3168         0.025873   
     90. B(Al 61,H  50)                  3.5632         0.010000   
     91. B(Al 61,O  21)                  3.2726         0.010000   
     92. B(H  62,H  55)                  3.0203         0.010000   
     93. B(H  62,O  23)                  2.8413         0.010000   
     94. B(H  62,Al 61)                  1.6696         0.300076   
     95. B(H  62,C  45)                  3.3776         0.010000   
     96. B(H  63,C  45)                  3.0620         0.010000   
     97. B(H  63,O  23)                  3.0104         0.010000   
     98. B(H  63,H  55)                  2.9801         0.010000   
     99. B(H  63,H  50)                  2.9639         0.010000   
    100. B(H  63,O  21)                  2.7823         0.010000   
    101. B(H  63,Al 61)                  1.5966         0.392449   
    102. B(H  63,C  38)                  3.1849         0.010000   
    103. B(H  64,H  50)                  2.9860         0.010000   
    104. B(H  64,O  21)                  2.8557         0.010000   
    105. B(H  64,Al 61)                  1.6696         0.300165   
    106. B(H  64,Al 60)                  1.6696         0.300145   
    107. B(H  64,C  38)                  3.3607         0.010000   
    108. B(H  65,C  38)                  3.0149         0.010000   
    109. B(H  65,O  21)                  3.0038         0.010000   
    110. B(H  65,H  50)                  2.9106         0.010000   
    111. B(H  65,O  20)                  2.7425         0.010000   
    112. B(H  65,Al 60)                  1.5968         0.392193   
    113. B(H  65,H  59)                  3.5170         0.010000   
    114. B(H  65,C  44)                  3.4547         0.010000   
    115. B(H  66,O  20)                  2.8038         0.010000   
    116. B(H  66,Al 60)                  1.6697         0.300029   
    117. B(H  66,C  44)                  3.5373         0.010000   
    118. B(H  66,H  59)                  3.3390         0.010000   
    119. B(H  67,Al 61)                  1.5955         0.394054   
    120. B(Al 68,H  62)                  1.6699         0.299834   
    121. B(Al 68,Al 61)                  3.3181         0.025747   
    122. B(Al 68,H  55)                  3.5521         0.010000   
    123. B(Al 68,O  23)                  3.2627         0.010000   
    124. B(H  69,O  22)                  2.9444         0.010000   
    125. B(H  69,Al 68)                  1.6689         0.300847   
    126. B(H  69,C  42)                  3.5084         0.010000   
    127. B(H  69,H  49)                  3.2963         0.010000   
    128. B(H  70,C  42)                  2.9776         0.010000   
    129. B(H  70,H  55)                  2.8998         0.010000   
    130. B(H  70,O  23)                  2.8515         0.010000   
    131. B(H  70,H  49)                  2.7999         0.010000   
    132. B(H  70,Al 68)                  1.5962         0.392985   
    133. B(H  70,O  22)                  3.2604         0.010000   
    134. B(H  70,C  45)                  3.1904         0.010000   
    135. B(H  71,Al 60)                  1.5955         0.394041   
    136. B(Al 72,H  69)                  1.6689         0.300836   
    137. B(Al 72,Al 68)                  3.3138         0.026159   
    138. B(Al 72,H  66)                  1.6696         0.300109   
    139. B(Al 72,Al 60)                  3.3181         0.025751   
    140. B(Al 72,O  20)                  3.3861         0.010000   
    141. B(Al 72,O  22)                  3.2778         0.010000   
    142. B(H  73,C  44)                  3.0413         0.010000   
    143. B(H  73,O  20)                  3.0060         0.010000   
    144. B(H  73,H  59)                  2.8097         0.010000   
    145. B(H  73,O  22)                  2.7485         0.010000   
    146. B(H  73,Al 72)                  1.5964         0.392766   
    147. B(H  73,C  42)                  3.5368         0.010000   
    148. B(H  73,H  49)                  3.4507         0.010000   
    149. B(H  74,Al 72)                  1.5955         0.393993   
    150. B(H  75,Al 68)                  1.5955         0.393954   
    151. A(O  12,Zr  0,O  15)          129.0469         0.520469   
    152. A(Zr  3,Zr  0,O   6)           36.8830         0.339535   
    153. A(O   6,Zr  0,O  15)          133.1397         0.475381   
    154. A(Zr  5,Zr  0,O  13)          112.6132         0.361510   
    155. A(Zr  5,Zr  0,O   6)           35.4107         0.333184   
    156. A(Zr  3,Zr  0,O  14)          152.6999         0.356085   
    157. A(O  12,Zr  0,O  14)           82.2268         0.530549   
    158. A(O   9,Zr  0,O  15)           68.6783         0.457148   
    159. A(O  11,Zr  0,O  14)           71.1244         0.466760   
    160. A(O   9,Zr  0,O  11)           98.0852         0.426631   
    161. A(O  14,Zr  0,O  15)           73.5142         0.500904   
    162. A(O   9,Zr  0,O  14)          118.9961         0.465749   
    163. A(Zr  3,Zr  0,O  12)          120.8817         0.368771   
    164. A(Zr  3,Zr  0,Zr  5)           72.0834         0.253938   
    165. A(Zr  3,Zr  0,O  15)           98.1300         0.349988   
    166. A(O  13,Zr  0,O  15)           81.9467         0.520202   
    167. A(Zr  5,Zr  0,O  15)          157.2610         0.343371   
    168. A(O   6,Zr  0,O  11)           66.0308         0.443353   
    169. A(Zr  5,Zr  0,O  12)           72.1373         0.361678   
    170. A(Zr  3,Zr  0,O  13)           71.0590         0.368598   
    171. A(O   6,Zr  0,O  12)           94.7082         0.503189   
    172. A(O  11,Zr  0,O  12)           81.0122         0.484703   
    173. A(O  13,Zr  0,O  14)          131.0709         0.530275   
    174. A(Zr  3,Zr  0,O   9)           36.6383         0.327713   
    175. A(Zr  5,Zr  0,O   9)           93.4614         0.321661   
    176. A(Zr  5,Zr  0,O  14)          105.5365         0.349314   
    177. A(O   6,Zr  0,O   9)           64.9872         0.442404   
    178. A(O   6,Zr  0,O  13)           90.2039         0.502932   
    179. A(O  12,Zr  0,O  13)           81.5210         0.551235   
    180. A(O  11,Zr  0,O  13)          149.0155         0.484458   
    181. A(O   6,Zr  0,O  14)          136.9709         0.484408   
    182. A(Zr  5,Zr  0,O  11)           37.1296         0.322286   
    183. A(Zr  3,Zr  0,O  11)           96.6791         0.328354   
    184. A(O   9,Zr  0,O  13)           88.5821         0.483399   
    185. A(O   9,Zr  0,O  12)          157.4767         0.483643   
    186. A(O  11,Zr  0,O  15)          128.6803         0.458136   
    187. A(O   7,Zr  1,O  17)          136.1582         0.483340   
    188. A(O   8,Zr  1,O  16)           68.6768         0.461501   
    189. A(Zr  4,Zr  1,O   7)           35.4452         0.336693   
    190. A(O   7,Zr  1,O  18)           86.3444         0.498774   
    191. A(Zr  2,Zr  1,O  19)          127.2693         0.370668   
    192. A(Zr  2,Zr  1,O   8)           36.3853         0.331801   
    193. A(Zr  2,Zr  1,O  10)           96.1070         0.327597   
    194. A(Zr  2,Zr  1,Zr  4)           72.0095         0.257739   
    195. A(Zr  4,Zr  1,O   8)           93.6603         0.330360   
    196. A(O  10,Zr  1,O  17)           71.7317         0.466604   
    197. A(O  17,Zr  1,O  18)          136.7990         0.530791   
    198. A(O  10,Zr  1,O  16)          134.0433         0.455050   
    199. A(O  16,Zr  1,O  18)           82.2600         0.517273   
    200. A(O  10,Zr  1,O  19)           79.4788         0.484915   
    201. A(O  10,Zr  1,O  18)          143.2819         0.481383   
    202. A(O   8,Zr  1,O  19)          163.3666         0.491892   
    203. A(O   7,Zr  1,O  19)           99.4727         0.502463   
    204. A(Zr  2,Zr  1,O  16)           95.6624         0.349421   
    205. A(O   7,Zr  1,O  10)           65.8712         0.439238   
    206. A(O  17,Zr  1,O  19)           82.9557         0.534769   
    207. A(O   8,Zr  1,O  17)          111.7645         0.473258   
    208. A(O   8,Zr  1,O  10)           97.3637         0.430284   
    209. A(Zr  4,Zr  1,O  17)          107.9792         0.356046   
    210. A(O   8,Zr  1,O  18)           91.2714         0.488297   
    211. A(Zr  4,Zr  1,O  19)           73.7485         0.368996   
    212. A(Zr  2,Zr  1,O  18)           70.6425         0.368155   
    213. A(O   7,Zr  1,O   8)           64.7094         0.445410   
    214. A(Zr  2,Zr  1,O  17)          145.7739         0.357641   
    215. A(O   7,Zr  1,O  16)          131.5875         0.471274   
    216. A(Zr  4,Zr  1,O  18)          106.3062         0.366498   
    217. A(Zr  2,Zr  1,O   7)           36.7230         0.338172   
    218. A(Zr  4,Zr  1,O  16)          160.8502         0.347875   
    219. A(O  16,Zr  1,O  17)           73.7608         0.501143   
    220. A(Zr  4,Zr  1,O  10)           37.7895         0.326181   
    221. A(O  18,Zr  1,O  19)           82.1893         0.552215   
    222. A(O  16,Zr  1,O  19)          124.9928         0.521129   
    223. A(O   7,Zr  2,O   8)           66.2565         0.472700   
    224. A(O  20,Zr  2,O  22)           81.4227         0.544783   
    225. A(Zr  5,Zr  2,O   8)           35.2814         0.337102   
    226. A(Zr  1,Zr  2,Zr  5)           70.1726         0.252605   
    227. A(O  11,Zr  2,O  23)          138.1828         0.461708   
    228. A(O  21,Zr  2,O  23)           77.5405         0.516715   
    229. A(O  22,Zr  2,O  23)           79.8460         0.515604   
    230. A(Zr  1,Zr  2,O   8)           37.8226         0.346415   
    231. A(O  11,Zr  2,O  20)           76.3255         0.487200   
    232. A(Zr  5,Zr  2,O  23)          155.8079         0.340118   
    233. A(O   7,Zr  2,O  20)          157.3929         0.503927   
    234. A(Zr  5,Zr  2,O  22)          105.7555         0.356882   
    235. A(O   8,Zr  2,O  11)           68.6626         0.457233   
    236. A(O  20,Zr  2,O  23)          131.9094         0.516260   
    237. A(O   8,Zr  2,O  23)          127.1852         0.484105   
    238. A(Zr  1,Zr  2,O   7)           37.0984         0.342022   
    239. A(Zr  5,Zr  2,O   7)           85.5392         0.332869   
    240. A(O  20,Zr  2,O  21)           85.9596         0.545970   
    241. A(O  21,Zr  2,O  22)          135.5400         0.545269   
    242. A(O  11,Zr  2,O  22)          140.9749         0.486589   
    243. A(O   7,Zr  2,O  22)          101.4740         0.503290   
    244. A(O  11,Zr  2,O  21)           74.5356         0.487624   
    245. A(O   7,Zr  2,O  23)           70.2689         0.477363   
    246. A(O   7,Zr  2,O  11)           88.3038         0.450949   
    247. A(Zr  1,Zr  2,O  22)           73.9659         0.366937   
    248. A(O   7,Zr  2,O  21)          106.0572         0.504369   
    249. A(Zr  1,Zr  2,O  11)           94.2179         0.331823   
    250. A(Zr  1,Zr  2,O  23)           89.5096         0.349543   
    251. A(Zr  5,Zr  2,O  21)          110.5265         0.357579   
    252. A(O   8,Zr  2,O  20)           92.4411         0.511130   
    253. A(Zr  5,Zr  2,O  20)           72.2002         0.357294   
    254. A(Zr  1,Zr  2,O  21)          142.7027         0.367660   
    255. A(Zr  1,Zr  2,O  20)          126.5508         0.367364   
    256. A(Zr  5,Zr  2,O  11)           36.7629         0.323038   
    257. A(O   8,Zr  2,O  21)          142.4279         0.511579   
    258. A(O   8,Zr  2,O  22)           80.8430         0.510482   
    259. A(Zr  4,Zr  3,O  27)           71.2800         0.354349   
    260. A(O   6,Zr  3,O  27)          156.8636         0.497704   
    261. A(O   9,Zr  3,O  10)           68.9543         0.455379   
    262. A(Zr  4,Zr  3,O  10)           36.7414         0.322079   
    263. A(O  25,Zr  3,O  27)           80.9459         0.543530   
    264. A(O  10,Zr  3,O  26)           74.9638         0.488147   
    265. A(Zr  0,Zr  3,O  24)           88.7753         0.349071   
    266. A(O   6,Zr  3,O  10)           87.2018         0.448000   
    267. A(O  24,Zr  3,O  25)           80.8034         0.517390   
    268. A(Zr  4,Zr  3,O  25)          105.8158         0.357055   
    269. A(Zr  0,Zr  3,O  27)          127.1223         0.364940   
    270. A(O   9,Zr  3,O  27)           92.1326         0.506105   
    271. A(O   9,Zr  3,O  24)          126.9591         0.482117   
    272. A(Zr  4,Zr  3,O  26)          110.6617         0.356984   
    273. A(Zr  4,Zr  3,O   9)           35.9740         0.334984   
    274. A(O  24,Zr  3,O  26)           76.9820         0.517275   
    275. A(Zr  0,Zr  3,Zr  4)           71.1787         0.251733   
    276. A(O   6,Zr  3,O   9)           66.4604         0.467877   
    277. A(Zr  0,Zr  3,O  26)          142.4183         0.367680   
    278. A(O   9,Zr  3,O  26)          143.2714         0.510246   
    279. A(O   9,Zr  3,O  25)           80.8659         0.510359   
    280. A(O  10,Zr  3,O  25)          141.1277         0.488253   
    281. A(O   6,Zr  3,O  25)          103.0113         0.501872   
    282. A(Zr  0,Zr  3,O  25)           75.0289         0.367754   
    283. A(O  10,Zr  3,O  24)          137.0739         0.461493   
    284. A(Zr  0,Zr  3,O   9)           38.3531         0.344802   
    285. A(O  25,Zr  3,O  26)          134.5161         0.548043   
    286. A(O   6,Zr  3,O  24)           70.0430         0.474199   
    287. A(Zr  0,Zr  3,O   6)           36.8942         0.339650   
    288. A(O  24,Zr  3,O  27)          132.8445         0.513065   
    289. A(O  10,Zr  3,O  27)           76.4386         0.484223   
    290. A(O  26,Zr  3,O  27)           85.8526         0.543409   
    291. A(O   6,Zr  3,O  26)          105.8101         0.501762   
    292. A(Zr  0,Zr  3,O  10)           94.0931         0.331382   
    293. A(Zr  4,Zr  3,O   6)           85.8045         0.330030   
    294. A(Zr  4,Zr  3,O  24)          155.8457         0.339089   
    295. A(O   9,Zr  4,O  10)           68.6170         0.449538   
    296. A(O   7,Zr  4,O  10)           67.5948         0.468864   
    297. A(Zr  3,Zr  4,O  10)           37.1210         0.325773   
    298. A(O  30,Zr  4,O  31)           81.0365         0.523805   
    299. A(O  28,Zr  4,O  30)           82.3329         0.550827   
    300. A(Zr  3,Zr  4,O  31)          156.6129         0.340831   
    301. A(O  29,Zr  4,O  30)          137.5453         0.535729   
    302. A(O   9,Zr  4,O  30)          142.1426         0.500419   
    303. A(Zr  1,Zr  4,O  31)           90.8690         0.349725   
    304. A(O  10,Zr  4,O  30)           79.8366         0.497806   
    305. A(Zr  3,Zr  4,O  30)          107.5512         0.359188   
    306. A(Zr  1,Zr  4,O  30)           75.1737         0.368731   
    307. A(O   9,Zr  4,O  28)           78.2859         0.496298   
    308. A(Zr  3,Zr  4,O  29)          106.3292         0.347737   
    309. A(O  10,Zr  4,O  28)           91.5782         0.493711   
    310. A(Zr  1,Zr  4,O  29)          140.9166         0.356875   
    311. A(O   7,Zr  4,O  28)          157.1090         0.518131   
    312. A(O   7,Zr  4,O  29)          105.1644         0.504102   
    313. A(Zr  3,Zr  4,O   9)           35.2302         0.327286   
    314. A(O   9,Zr  4,O  29)           72.5504         0.482983   
    315. A(O  10,Zr  4,O  31)          129.1160         0.470031   
    316. A(Zr  1,Zr  4,O   9)           91.5150         0.335702   
    317. A(O  28,Zr  4,O  31)          131.5958         0.519450   
    318. A(O  28,Zr  4,O  29)           84.7416         0.531254   
    319. A(Zr  1,Zr  4,O   7)           36.5985         0.348927   
    320. A(O  10,Zr  4,O  29)          140.9169         0.480480   
    321. A(Zr  1,Zr  4,Zr  3)           71.1965         0.251015   
    322. A(O   9,Zr  4,O  31)          135.3517         0.472467   
    323. A(O   7,Zr  4,O  31)           71.2010         0.493022   
    324. A(O  29,Zr  4,O  31)           77.9085         0.505377   
    325. A(Zr  1,Zr  4,O  28)          127.6536         0.365929   
    326. A(Zr  3,Zr  4,O  28)           71.7190         0.356481   
    327. A(O   7,Zr  4,O   9)           85.0078         0.471292   
    328. A(O   7,Zr  4,O  30)          102.2227         0.522473   
    329. A(Zr  3,Zr  4,O   7)           85.6009         0.340059   
    330. A(Zr  1,Zr  4,O  10)           38.6195         0.334135   
    331. A(O  11,Zr  5,O  35)           89.8671         0.492696   
    332. A(O  34,Zr  5,O  35)           83.1381         0.522371   
    333. A(O  33,Zr  5,O  35)           82.0699         0.550663   
    334. A(O  32,Zr  5,O  35)          132.8704         0.518371   
    335. A(O   8,Zr  5,O  35)           78.9043         0.503084   
    336. A(O   6,Zr  5,O  35)          155.8743         0.508312   
    337. A(Zr  2,Zr  5,O  35)           71.5405         0.356211   
    338. A(O  33,Zr  5,O  34)          135.4415         0.530846   
    339. A(O  32,Zr  5,O  34)           78.4889         0.499940   
    340. A(O  11,Zr  5,O  34)          140.7311         0.475367   
    341. A(Zr  0,Zr  5,O  35)          125.2177         0.358800   
    342. A(O  32,Zr  5,O  33)           81.4990         0.526768   
    343. A(O   6,Zr  5,O  34)          109.5839         0.490312   
    344. A(Zr  2,Zr  5,O  34)          104.9484         0.344741   
    345. A(Zr  0,Zr  5,O  34)          144.0047         0.347219   
    346. A(O  11,Zr  5,O  33)           80.9561         0.500591   
    347. A(O   8,Zr  5,O  33)          143.9525         0.511181   
    348. A(O   6,Zr  5,O  33)          100.6173         0.516512   
    349. A(Zr  0,Zr  5,O  33)           75.7744         0.364076   
    350. A(O  11,Zr  5,O  32)          130.1866         0.471801   
    351. A(O   8,Zr  5,O  32)          133.1292         0.481651   
    352. A(O   6,Zr  5,O  32)           70.9120         0.486608   
    353. A(Zr  2,Zr  5,O  32)          155.3067         0.342380   
    354. A(Zr  2,Zr  5,O   6)           85.1516         0.336445   
    355. A(Zr  0,Zr  5,Zr  2)           70.0976         0.248215   
    356. A(Zr  0,Zr  5,O   6)           35.9501         0.338842   
    357. A(O   8,Zr  5,O  34)           71.9968         0.485309   
    358. A(Zr  0,Zr  5,O  32)           92.5482         0.344835   
    359. A(O   8,Zr  5,O  11)           68.7379         0.458172   
    360. A(O   6,Zr  5,O  11)           67.1748         0.462833   
    361. A(Zr  2,Zr  5,O  11)           37.1925         0.327229   
    362. A(Zr  0,Zr  5,O  11)           37.8821         0.329537   
    363. A(O   6,Zr  5,O   8)           85.5784         0.472452   
    364. A(Zr  2,Zr  5,O  33)          109.6421         0.361437   
    365. A(Zr  2,Zr  5,O   8)           34.9296         0.333359   
    366. A(Zr  0,Zr  5,O   8)           90.7071         0.335727   
    367. A(Zr  3,O   6,Zr  5)          144.2319         0.468674   
    368. A(Zr  0,O   6,Zr  5)          108.6392         0.468501   
    369. A(Zr  0,O   6,Zr  3)          106.2229         0.460077   
    370. A(Zr  1,O   7,Zr  4)          107.9563         0.472827   
    371. A(Zr  2,O   7,Zr  4)          145.1624         0.478758   
    372. A(Zr  1,O   7,Zr  2)          106.1785         0.460413   
    373. A(Zr  1,O   8,Zr  2)          105.7922         0.457201   
    374. A(Zr  2,O   8,Zr  5)          109.7890         0.473471   
    375. A(Zr  1,O   8,Zr  5)          133.5648         0.451645   
    376. A(Zr  3,O   9,Zr  4)          108.7959         0.463564   
    377. A(Zr  0,O   9,Zr  4)          134.3714         0.438541   
    378. A(Zr  0,O   9,Zr  3)          105.0086         0.449833   
    379. A(Zr  3,O  10,Zr  4)          106.1377         0.441659   
    380. A(Zr  1,O  10,Zr  4)          103.5910         0.435622   
    381. A(Zr  1,O  10,Zr  3)          132.8414         0.430215   
    382. A(Zr  2,O  11,Zr  5)          106.0446         0.442579   
    383. A(Zr  0,O  11,Zr  5)          104.9883         0.438061   
    384. A(Zr  0,O  11,Zr  2)          130.5144         0.431920   
    385. A(Zr  0,O  12,C  36)          134.3465         0.506748   
    386. A(Zr  0,O  13,C  37)          131.1453         0.505754   
    387. A(Zr  0,O  14,C  38)          135.5429         0.488696   
    388. A(Zr  0,O  15,C  39)          131.0900         0.478966   
    389. A(Zr  1,O  16,C  40)          128.2536         0.477094   
    390. A(Zr  1,O  17,C  41)          140.0097         0.490519   
    391. A(Zr  1,O  18,C  42)          128.6672         0.504017   
    392. A(Zr  1,O  19,C  43)          132.8054         0.508881   
    393. A(Al 60,O  20,Al 72)           60.1041         0.130329   
    394. A(C  44,O  20,Al 72)          102.7413         0.205925   
    395. A(Zr  2,O  20,Al 72)          103.6144         0.217958   
    396. A(C  44,O  20,Al 60)          125.3902         0.221645   
    397. A(Zr  2,O  20,Al 60)          107.4248         0.235295   
    398. A(Zr  2,O  20,C  44)          127.1832         0.502890   
    399. A(Zr  2,O  21,C  38)          139.2117         0.505157   
    400. A(Al 60,O  21,Al 61)           59.6016         0.128656   
    401. A(C  38,O  21,Al 60)           97.4278         0.205323   
    402. A(Zr  2,O  21,Al 60)          101.8608         0.216867   
    403. A(C  38,O  21,Al 61)          108.9796         0.218066   
    404. A(Zr  2,O  21,Al 61)          111.7914         0.230874   
    405. A(Zr  2,O  22,C  42)          125.4149         0.502552   
    406. A(C  42,O  22,Al 72)          123.7461         0.217033   
    407. A(Zr  2,O  22,Al 72)          107.3157         0.229891   
    408. A(Al 61,O  23,Al 68)           59.9047         0.129575   
    409. A(C  45,O  23,Al 61)           99.8054         0.207011   
    410. A(Zr  2,O  23,Al 61)          105.7163         0.210319   
    411. A(C  45,O  23,Al 68)          109.1836         0.219102   
    412. A(Zr  2,O  23,Al 68)          112.2942         0.222748   
    413. A(Zr  2,O  23,C  45)          138.0862         0.478003   
    414. A(Zr  3,O  24,C  46)          136.0545         0.477850   
    415. A(Zr  3,O  25,C  37)          126.2698         0.504756   
    416. A(Zr  3,O  26,C  41)          138.3612         0.506332   
    417. A(Zr  3,O  27,C  47)          126.7486         0.499663   
    418. A(Zr  4,O  28,C  47)          127.0138         0.503017   
    419. A(Zr  4,O  29,C  39)          137.3677         0.490509   
    420. A(Zr  4,O  30,C  43)          130.6758         0.508556   
    421. A(Zr  4,O  31,C  45)          137.9648         0.480653   
    422. A(Zr  5,O  32,C  46)          139.5685         0.481373   
    423. A(Zr  5,O  33,C  36)          129.6582         0.510608   
    424. A(Zr  5,O  34,C  40)          136.1396         0.483752   
    425. A(Zr  5,O  35,C  44)          127.6927         0.501173   
    426. A(O  12,C  36,O  33)          127.4084         0.466476   
    427. A(O  33,C  36,H  58)          116.3196         0.365120   
    428. A(O  12,C  36,H  58)          116.2712         0.364998   
    429. A(O  13,C  37,O  25)          126.9024         0.465216   
    430. A(O  25,C  37,H  51)          116.5443         0.364346   
    431. A(O  13,C  37,H  51)          116.5505         0.364174   
    432. A(O  14,C  38,O  21)          129.0974         0.467791   
    433. A(O  21,C  38,H  50)          115.5125         0.366250   
    434. A(O  14,C  38,H  50)          115.3866         0.366400   
    435. A(O  15,C  39,O  29)          129.4543         0.466329   
    436. A(O  29,C  39,H  54)          115.3230         0.365534   
    437. A(O  15,C  39,H  54)          115.2172         0.365894   
    438. A(O  16,C  40,O  34)          129.6911         0.465343   
    439. A(O  34,C  40,H  56)          115.2234         0.364979   
    440. A(O  16,C  40,H  56)          115.0821         0.365450   
    441. A(O  17,C  41,O  26)          129.0486         0.468356   
    442. A(O  26,C  41,H  48)          115.4741         0.366697   
    443. A(O  17,C  41,H  48)          115.4727         0.366583   
    444. A(O  18,C  42,O  22)          126.6753         0.464496   
    445. A(O  22,C  42,H  49)          116.6135         0.363948   
    446. A(O  18,C  42,H  49)          116.7095         0.363717   
    447. A(O  30,C  43,H  52)          116.2495         0.364983   
    448. A(O  19,C  43,H  52)          116.2083         0.364936   
    449. A(O  19,C  43,O  30)          127.5422         0.466271   
    450. A(O  35,C  44,H  59)          116.3311         0.363806   
    451. A(O  20,C  44,H  59)          116.3189         0.363838   
    452. A(O  20,C  44,O  35)          127.3498         0.464227   
    453. A(O  31,C  45,H  55)          114.8937         0.366623   
    454. A(O  23,C  45,H  55)          114.9972         0.366585   
    455. A(O  23,C  45,O  31)          130.1011         0.467449   
    456. A(O  32,C  46,H  57)          114.9116         0.366456   
    457. A(O  24,C  46,H  57)          114.9672         0.366522   
    458. A(O  24,C  46,O  32)          130.1116         0.467226   
    459. A(O  28,C  47,H  53)          116.3730         0.363629   
    460. A(O  27,C  47,H  53)          116.3811         0.363593   
    461. A(O  27,C  47,O  28)          127.2458         0.463863   
    462. A(O  20,Al 60,O  21)           48.2065         0.129935   
    463. A(O  21,Al 60,Al 72)           93.1437         0.156353   
    464. A(O  21,Al 60,H  71)          154.0577         0.191380   
    465. A(O  21,Al 60,H  66)           95.0591         0.185255   
    466. A(O  21,Al 60,H  64)           57.0169         0.185263   
    467. A(O  21,Al 60,Al 61)           58.3248         0.156425   
    468. A(O  20,Al 60,Al 72)           62.2161         0.166142   
    469. A(O  20,Al 60,H  71)          152.1527         0.206261   
    470. A(O  20,Al 60,H  66)           60.0774         0.199245   
    471. A(O  20,Al 60,H  65)           57.8942         0.206136   
    472. A(O  20,Al 60,H  64)           97.8898         0.199255   
    473. A(O  20,Al 60,Al 61)           95.8427         0.166225   
    474. A(O  21,Al 60,H  65)           62.1376         0.191271   
    475. A(H  71,Al 60,Al 72)          111.4181         0.281933   
    476. A(H  66,Al 60,Al 72)            6.4616         0.270390   
    477. A(H  65,Al 60,Al 72)          116.1291         0.281728   
    478. A(H  64,Al 60,Al 72)           96.3807         0.270406   
    479. A(Al 61,Al 60,Al 72)           89.8419         0.216060   
    480. A(H  66,Al 60,H  71)          110.2801         0.364724   
    481. A(H  65,Al 60,H  71)          110.8280         0.381958   
    482. A(H  64,Al 60,H  71)          109.9066         0.364748   
    483. A(Al 61,Al 60,H  71)          111.5863         0.282140   
    484. A(H  65,Al 60,H  66)          111.6410         0.364431   
    485. A(H  64,Al 60,H  66)          102.6063         0.348251   
    486. A(Al 61,Al 60,H  66)           96.1027         0.270584   
    487. A(H  64,Al 60,H  65)          111.3033         0.364455   
    488. A(Al 61,Al 60,H  65)          115.5576         0.281934   
    489. A(Al 61,Al 60,H  64)            6.6325         0.270600   
    490. A(O  21,Al 61,O  23)           44.8946         0.129242   
    491. A(O  23,Al 61,Al 68)           58.2924         0.157345   
    492. A(O  23,Al 61,H  67)          155.8159         0.192893   
    493. A(O  23,Al 61,H  64)           93.3797         0.186687   
    494. A(O  23,Al 61,H  63)           62.9327         0.192797   
    495. A(O  23,Al 61,H  62)           57.0490         0.186680   
    496. A(O  23,Al 61,Al 60)           90.8493         0.157421   
    497. A(O  21,Al 61,Al 68)           93.7786         0.163729   
    498. A(O  21,Al 61,H  67)          154.2192         0.202597   
    499. A(O  21,Al 61,H  64)           60.7333         0.195810   
    500. A(O  21,Al 61,H  63)           58.1276         0.202492   
    501. A(O  21,Al 61,H  62)           95.5268         0.195803   
    502. A(O  21,Al 61,Al 60)           62.0736         0.163811   
    503. A(H  67,Al 61,Al 68)          111.6730         0.281929   
    504. A(H  64,Al 61,Al 68)           96.6519         0.270403   
    505. A(H  63,Al 61,Al 68)          115.5407         0.281750   
    506. A(H  62,Al 61,Al 68)            6.4880         0.270391   
    507. A(Al 60,Al 61,Al 68)           90.1049         0.216056   
    508. A(H  64,Al 61,H  67)          110.1934         0.364754   
    509. A(H  63,Al 61,H  67)          110.8460         0.382004   
    510. A(H  62,Al 61,H  67)          110.2242         0.364736   
    511. A(Al 60,Al 61,H  67)          111.9743         0.282141   
    512. A(H  63,Al 61,H  64)          111.1208         0.364500   
    513. A(H  62,Al 61,H  64)          102.9660         0.348263   
    514. A(Al 60,Al 61,H  64)            6.6325         0.270603   
    515. A(H  62,Al 61,H  63)          111.2403         0.364481   
    516. A(Al 60,Al 61,H  63)          115.2835         0.281963   
    517. A(Al 60,Al 61,H  62)           96.4477         0.270591   
    518. A(Al 61,H  62,Al 68)          167.0249         0.348199   
    519. A(Al 60,H  64,Al 61)          166.7350         0.348277   
    520. A(Al 60,H  66,Al 72)          167.0765         0.348243   
    521. A(O  23,Al 68,H  75)          157.9924         0.203530   
    522. A(O  23,Al 68,Al 72)           90.3932         0.164618   
    523. A(O  23,Al 68,H  70)           60.9230         0.203467   
    524. A(O  23,Al 68,H  69)           91.5519         0.196750   
    525. A(O  23,Al 68,H  62)           60.5304         0.196668   
    526. A(O  23,Al 68,Al 61)           61.8029         0.164347   
    527. A(Al 72,Al 68,H  75)          110.9525         0.282611   
    528. A(H  70,Al 68,H  75)          110.7651         0.382078   
    529. A(H  69,Al 68,H  75)          110.2863         0.364880   
    530. A(H  62,Al 68,H  75)          109.9268         0.364670   
    531. A(Al 61,Al 68,H  75)          111.1835         0.281917   
    532. A(H  70,Al 68,Al 72)          116.8118         0.282503   
    533. A(H  69,Al 68,Al 72)            6.8884         0.271148   
    534. A(H  62,Al 68,Al 72)           96.2244         0.271010   
    535. A(Al 61,Al 68,Al 72)           89.8928         0.216373   
    536. A(H  69,Al 68,H  70)          111.6458         0.364727   
    537. A(H  62,Al 68,H  70)          111.2576         0.364516   
    538. A(Al 61,Al 68,H  70)          115.7308         0.281810   
    539. A(H  62,Al 68,H  69)          102.6950         0.348349   
    540. A(Al 61,Al 68,H  69)           96.4248         0.270496   
    541. A(Al 61,Al 68,H  62)            6.4871         0.270358   
    542. A(Al 68,H  69,Al 72)          166.2233         0.348545   
    543. A(O  20,Al 72,O  22)           45.8406         0.128863   
    544. A(O  20,Al 72,H  74)          151.1476         0.192361   
    545. A(O  20,Al 72,H  69)           97.7733         0.186239   
    546. A(O  20,Al 72,Al 68)           96.0979         0.157242   
    547. A(O  20,Al 72,H  66)           55.5762         0.186186   
    548. A(O  20,Al 72,Al 60)           57.6799         0.157000   
    549. A(O  22,Al 72,H  74)          156.3305         0.202099   
    550. A(O  22,Al 72,H  73)           56.7482         0.202020   
    551. A(O  22,Al 72,H  69)           63.6275         0.195400   
    552. A(O  22,Al 72,Al 68)           65.9184         0.163672   
    553. A(O  22,Al 72,H  66)           93.8323         0.195342   
    554. A(O  22,Al 72,Al 60)           92.7026         0.163406   
    555. A(H  73,Al 72,H  74)          110.5305         0.382047   
    556. A(O  20,Al 72,H  73)           62.5824         0.192288   
    557. A(H  69,Al 72,H  74)          110.3548         0.364884   
    558. A(Al 68,Al 72,H  74)          111.0549         0.282615   
    559. A(H  66,Al 72,H  74)          109.8020         0.364733   
    560. A(Al 60,Al 72,H  74)          110.9263         0.281928   
    561. A(H  69,Al 72,H  73)          111.1334         0.364689   
    562. A(Al 68,Al 72,H  73)          116.3273         0.282479   
    563. A(H  66,Al 72,H  73)          111.8779         0.364539   
    564. A(Al 60,Al 72,H  73)          116.4238         0.281791   
    565. A(Al 68,Al 72,H  69)            6.8883         0.271147   
    566. A(H  66,Al 72,H  69)          102.9124         0.348401   
    567. A(Al 60,Al 72,H  69)           96.7053         0.270500   
    568. A(H  66,Al 72,Al 68)           96.4301         0.271047   
    569. A(Al 60,Al 72,Al 68)           90.1573         0.216377   
    570. A(Al 60,Al 72,H  66)            6.4619         0.270401   
    571. D(Zr  5,Zr  2,Zr  1,O   7)    109.8591         0.010000   
    572. D(Zr  5,Zr  2,Zr  1,Zr  4)    105.5557         0.010000   
    573. D(O   7,Zr  2,Zr  1,Zr  4)     -4.3034         0.010000   
    574. D(Zr  4,Zr  3,Zr  0,O   6)   -108.9843         0.010000   
    575. D(O   6,Zr  3,Zr  0,Zr  5)      4.9396         0.010000   
    576. D(Zr  4,Zr  3,Zr  0,Zr  5)   -104.0448         0.010000   
    577. D(O   7,Zr  4,Zr  3,Zr  0)     67.7641         0.010000   
    578. D(O   7,Zr  4,Zr  1,Zr  2)      4.4374         0.010000   
    579. D(Zr  3,Zr  4,Zr  1,O   7)   -108.8201         0.010000   
    580. D(Zr  1,Zr  4,Zr  3,Zr  0)    102.2356         0.010000   
    581. D(Zr  1,Zr  4,Zr  3,O   6)     67.5405         0.010000   
    582. D(Zr  3,Zr  4,Zr  1,Zr  2)   -104.3827         0.010000   
    583. D(O   6,Zr  5,Zr  0,Zr  3)     -5.1169         0.010000   
    584. D(Zr  2,Zr  5,Zr  0,O   6)    110.2497         0.010000   
    585. D(Zr  2,Zr  5,Zr  0,Zr  3)    105.1327         0.010000   
    586. D(Zr  0,Zr  5,Zr  2,Zr  1)   -103.5408         0.010000   
    587. D(O   6,Zr  5,Zr  2,Zr  1)    -69.9834         0.010000   
    588. D(Zr  0,Zr  5,Zr  2,O   7)    -68.8576         0.010000   
    589. D(Zr  0,O   6,Zr  5,Zr  2)    -62.2917         0.010000   
    590. D(Zr  0,O   6,Zr  5,O   8)    -97.3371         0.010000   
    591. D(Zr  0,O   6,Zr  3,Zr  4)     63.8249         0.010000   
    592. D(Zr  3,O   6,Zr  0,O   9)    -31.4040         0.010000   
    593. D(Zr  5,O   6,Zr  3,Zr  0)   -166.7489         0.010000   
    594. D(Zr  3,O   6,Zr  5,Zr  0)    166.5690         0.010000   
    595. D(Zr  3,O   6,Zr  0,Zr  5)   -171.8714         0.010000   
    596. D(Zr  5,O   6,Zr  0,Zr  3)    171.8714         0.010000   
    597. D(Zr  0,O   6,Zr  3,O   9)     32.3817         0.010000   
    598. D(Zr  1,O   7,Zr  2,Zr  5)    -62.5562         0.010000   
    599. D(Zr  2,O   7,Zr  1,O   8)     31.1627         0.010000   
    600. D(Zr  4,O   7,Zr  1,Zr  2)   -172.9309         0.010000   
    601. D(Zr  2,O   7,Zr  1,Zr  4)    172.9309         0.010000   
    602. D(Zr  2,O   7,Zr  4,Zr  1)   -168.0591         0.010000   
    603. D(Zr  1,O   7,Zr  4,O   9)     99.3312         0.010000   
    604. D(Zr  4,O   7,Zr  2,Zr  1)    168.1740         0.010000   
    605. D(Zr  1,O   7,Zr  4,Zr  3)     63.9834         0.010000   
    606. D(Zr  1,O   7,Zr  2,O   8)    -31.8957         0.010000   
    607. D(Zr  1,O   8,Zr  2,Zr  5)    149.6459         0.010000   
    608. D(Zr  2,O   8,Zr  5,Zr  0)     52.2466         0.010000   
    609. D(Zr  1,O   8,Zr  5,Zr  2)   -137.8487         0.010000   
    610. D(Zr  5,O   8,Zr  2,Zr  1)   -149.6459         0.010000   
    611. D(Zr  1,O   8,Zr  5,Zr  0)    -85.6021         0.010000   
    612. D(Zr  5,O   8,Zr  1,Zr  2)    138.9871         0.010000   
    613. D(Zr  2,O   8,Zr  1,O   7)    -31.4397         0.010000   
    614. D(Zr  2,O   8,Zr  1,Zr  4)    -52.5163         0.010000   
    615. D(Zr  1,O   8,Zr  2,O   7)     31.3141         0.010000   
    616. D(Zr  3,O   9,Zr  4,Zr  1)    -53.3875         0.010000   
    617. D(Zr  0,O   9,Zr  4,Zr  3)    135.6961         0.010000   
    618. D(Zr  0,O   9,Zr  4,Zr  1)     82.3086         0.010000   
    619. D(Zr  4,O   9,Zr  3,Zr  0)    148.8747         0.010000   
    620. D(Zr  4,O   9,Zr  0,Zr  3)   -136.7982         0.010000   
    621. D(Zr  0,O   9,Zr  3,Zr  4)   -148.8747         0.010000   
    622. D(Zr  0,O   9,Zr  3,O   6)    -31.2082         0.010000   
    623. D(Zr  3,O   9,Zr  0,O   6)     31.6048         0.010000   
    624. D(Zr  3,O   9,Zr  0,Zr  5)     53.2892         0.010000   
    625. D(Zr  1,O  10,Zr  4,O   7)    -28.9278         0.010000   
    626. D(Zr  1,O  10,Zr  4,Zr  3)   -142.9593         0.010000   
    627. D(Zr  4,O  10,Zr  3,Zr  0)    -50.4648         0.010000   
    628. D(Zr  1,O  10,Zr  3,Zr  4)    127.0099         0.010000   
    629. D(Zr  1,O  10,Zr  3,Zr  0)     76.5451         0.010000   
    630. D(Zr  4,O  10,Zr  1,Zr  2)     49.8413         0.010000   
    631. D(Zr  3,O  10,Zr  1,Zr  2)    -78.0512         0.010000   
    632. D(Zr  3,O  10,Zr  4,Zr  1)    142.9593         0.010000   
    633. D(Zr  3,O  10,Zr  1,Zr  4)   -127.8925         0.010000   
    634. D(Zr  2,O  11,Zr  5,Zr  0)   -140.9662         0.010000   
    635. D(Zr  0,O  11,Zr  5,Zr  2)    140.9662         0.010000   
    636. D(Zr  5,O  11,Zr  2,Zr  1)     48.1654         0.010000   
    637. D(Zr  0,O  11,Zr  2,Zr  5)   -126.8499         0.010000   
    638. D(Zr  0,O  11,Zr  2,Zr  1)    -78.6845         0.010000   
    639. D(Zr  5,O  11,Zr  0,Zr  3)    -48.1024         0.010000   
    640. D(Zr  0,O  11,Zr  5,O   6)     27.2040         0.010000   
    641. D(Zr  2,O  11,Zr  0,Zr  5)    127.2385         0.010000   
    642. D(Zr  2,O  11,Zr  0,Zr  3)     79.1361         0.010000   
    643. D(C  36,O  12,Zr  0,Zr  5)      7.9932         0.010000   
    644. D(C  36,O  12,Zr  0,Zr  3)     63.2890         0.010000   
    645. D(C  37,O  13,Zr  0,Zr  5)    -88.2930         0.010000   
    646. D(C  37,O  13,Zr  0,Zr  3)    -27.9807         0.010000   
    647. D(C  38,O  14,Zr  0,Zr  5)     53.5946         0.010000   
    648. D(C  38,O  14,Zr  0,Zr  3)    -27.3415         0.010000   
    649. D(C  39,O  15,Zr  0,Zr  5)     -7.0565         0.010000   
    650. D(C  39,O  15,Zr  0,Zr  3)    -69.4691         0.010000   
    651. D(C  40,O  16,Zr  1,Zr  4)     25.4668         0.010000   
    652. D(C  40,O  16,Zr  1,Zr  2)     74.1195         0.010000   
    653. D(C  41,O  17,Zr  1,Zr  4)    -37.1852         0.010000   
    654. D(C  41,O  17,Zr  1,Zr  2)     47.0603         0.010000   
    655. D(C  42,O  18,Zr  1,Zr  4)     97.8283         0.010000   
    656. D(C  42,O  18,Zr  1,Zr  2)     34.1788         0.010000   
    657. D(C  43,O  19,Zr  1,Zr  4)     -1.7691         0.010000   
    658. D(C  43,O  19,Zr  1,Zr  2)    -53.0072         0.010000   
    659. D(Al 60,O  20,Zr  2,Zr  1)    163.5162         0.010000   
    660. D(C  44,O  20,Zr  2,Zr  5)     30.1003         0.010000   
    661. D(C  44,O  20,Zr  2,Zr  1)    -16.9411         0.010000   
    662. D(Al 61,O  21,Zr  2,Zr  1)   -111.6353         0.010000   
    663. D(C  38,O  21,Zr  2,Zr  5)    -13.7823         0.010000   
    664. D(C  38,O  21,Zr  2,Zr  1)     70.1228         0.010000   
    665. D(Al 72,O  22,Zr  2,Zr  1)   -172.8059         0.010000   
    666. D(C  42,O  22,Zr  2,Zr  5)     91.2559         0.010000   
    667. D(C  42,O  22,Zr  2,Zr  1)     27.8571         0.010000   
    668. D(Al 68,O  23,Zr  2,Zr  1)   -115.5186         0.010000   
    669. D(C  45,O  23,Zr  2,Zr  5)     23.6044         0.010000   
    670. D(C  45,O  23,Zr  2,Zr  1)     55.7411         0.010000   
    671. D(C  46,O  24,Zr  3,Zr  4)    -31.2940         0.010000   
    672. D(C  46,O  24,Zr  3,Zr  0)    -64.5456         0.010000   
    673. D(C  37,O  25,Zr  3,Zr  4)    -88.0834         0.010000   
    674. D(C  37,O  25,Zr  3,Zr  0)    -23.0977         0.010000   
    675. D(C  41,O  26,Zr  3,Zr  4)     24.9366         0.010000   
    676. D(C  41,O  26,Zr  3,Zr  0)    -60.7430         0.010000   
    677. D(C  47,O  27,Zr  3,Zr  4)    -33.0645         0.010000   
    678. D(C  47,O  27,Zr  3,Zr  0)     13.8015         0.010000   
    679. D(C  47,O  28,Zr  4,Zr  1)     15.1456         0.010000   
    680. D(C  47,O  28,Zr  4,Zr  3)    -31.7245         0.010000   
    681. D(C  39,O  29,Zr  4,Zr  3)     -1.0034         0.010000   
    682. D(C  39,O  29,Zr  4,Zr  1)    -81.0976         0.010000   
    683. D(C  43,O  30,Zr  4,Zr  3)    -66.4508         0.010000   
    684. D(C  43,O  30,Zr  4,Zr  1)     -2.1358         0.010000   
    685. D(C  45,O  31,Zr  4,Zr  3)    -11.0656         0.010000   
    686. D(C  45,O  31,Zr  4,Zr  1)    -50.0752         0.010000   
    687. D(C  46,O  32,Zr  5,Zr  2)     -3.1852         0.010000   
    688. D(C  46,O  32,Zr  5,Zr  0)     40.8523         0.010000   
    689. D(C  36,O  33,Zr  5,Zr  2)     68.1129         0.010000   
    690. D(C  36,O  33,Zr  5,Zr  0)      5.7175         0.010000   
    691. D(C  40,O  34,Zr  5,Zr  2)      2.0976         0.010000   
    692. D(C  40,O  34,Zr  5,Zr  0)     78.6843         0.010000   
    693. D(C  44,O  35,Zr  5,Zr  2)     30.9270         0.010000   
    694. D(C  44,O  35,Zr  5,Zr  0)    -16.6251         0.010000   
    695. D(O  12,C  36,O  33,Zr  5)     -2.8593         0.047265   
    696. D(H  58,C  36,O  12,Zr  0)    173.0096         0.047060   
    697. D(O  33,C  36,O  12,Zr  0)     -7.3324         0.047060   
    698. D(H  58,C  36,O  33,Zr  5)    176.7986         0.047265   
    699. D(H  51,C  37,O  25,Zr  3)   -165.1078         0.046534   
    700. D(O  13,C  37,O  25,Zr  3)     14.2543         0.046534   
    701. D(H  51,C  37,O  13,Zr  0)   -157.6256         0.046248   
    702. D(O  25,C  37,O  13,Zr  0)     23.0123         0.046248   
    703. D(H  50,C  38,O  21,Zr  2)    162.6318         0.081407   
    704. D(O  14,C  38,O  21,Al 61)    163.6417         0.081407   
    705. D(O  14,C  38,O  21,Zr  2)    -18.0846         0.081407   
    706. D(H  50,C  38,O  14,Zr  0)    170.7715         0.062424   
    707. D(O  21,C  38,O  14,Zr  0)     -8.5128         0.062424   
    708. D(H  54,C  39,O  29,Zr  4)   -147.5423         0.046771   
    709. D(O  15,C  39,O  29,Zr  4)     33.3592         0.046771   
    710. D(H  54,C  39,O  15,Zr  0)   -165.1991         0.047375   
    711. D(O  29,C  39,O  15,Zr  0)     13.9002         0.047375   
    712. D(H  56,C  40,O  34,Zr  5)    144.0629         0.046081   
    713. D(O  16,C  40,O  34,Zr  5)    -36.6482         0.046081   
    714. D(H  56,C  40,O  16,Zr  1)    165.1668         0.046860   
    715. D(O  34,C  40,O  16,Zr  1)    -14.1228         0.046860   
    716. D(H  48,C  41,O  26,Zr  3)   -170.8933         0.048431   
    717. D(O  17,C  41,O  26,Zr  3)      9.9358         0.048431   
    718. D(H  48,C  41,O  17,Zr  1)    178.9725         0.048234   
    719. D(O  26,C  41,O  17,Zr  1)     -1.8566         0.048234   
    720. D(H  49,C  42,O  22,Zr  2)    163.1187         0.075037   
    721. D(O  18,C  42,O  22,Al 72)   -172.4877         0.075037   
    722. D(O  18,C  42,O  22,Zr  2)    -16.3877         0.075037   
    723. D(H  49,C  42,O  18,Zr  1)    151.8484         0.059367   
    724. D(O  22,C  42,O  18,Zr  1)    -28.6456         0.059367   
    725. D(H  52,C  43,O  30,Zr  4)   -178.2127         0.047076   
    726. D(O  19,C  43,O  30,Zr  4)      1.8632         0.047076   
    727. D(H  52,C  43,O  19,Zr  1)   -178.9254         0.046996   
    728. D(O  30,C  43,O  19,Zr  1)      0.9988         0.046996   
    729. D(H  59,C  44,O  35,Zr  5)    156.6525         0.059369   
    730. D(O  20,C  44,O  35,Zr  5)    -23.1672         0.059369   
    731. D(H  59,C  44,O  20,Zr  2)    158.6732         0.077908   
    732. D(O  35,C  44,O  20,Al 60)    157.9578         0.077908   
    733. D(O  35,C  44,O  20,Zr  2)    -21.5070         0.077908   
    734. D(H  55,C  45,O  31,Zr  4)   -177.0216         0.062019   
    735. D(O  23,C  45,O  31,Zr  4)      4.0674         0.062019   
    736. D(H  55,C  45,O  23,Zr  2)    173.0229         0.081205   
    737. D(O  31,C  45,O  23,Al 68)    163.3720         0.081205   
    738. D(O  31,C  45,O  23,Zr  2)     -8.0670         0.081205   
    739. D(H  57,C  46,O  32,Zr  5)   -177.8302         0.047569   
    740. D(O  24,C  46,O  32,Zr  5)      0.9760         0.047569   
    741. D(H  57,C  46,O  24,Zr  3)   -165.6182         0.047682   
    742. D(O  32,C  46,O  24,Zr  3)     15.5761         0.047682   
    743. D(H  53,C  47,O  28,Zr  4)   -157.8053         0.045606   
    744. D(O  27,C  47,O  28,Zr  4)     22.0968         0.045606   
    745. D(H  53,C  47,O  27,Zr  3)   -154.7747         0.045546   
    746. D(O  28,C  47,O  27,Zr  3)     25.3233         0.045546   
    747. D(H  64,Al 60,O  21,Zr  2)    116.1530         0.010000   
    748. D(Al 61,Al 60,O  21,C  38)   -107.6845         0.010000   
    749. D(Al 61,Al 60,O  21,Zr  2)    108.4559         0.010000   
    750. D(H  64,Al 60,O  20,Zr  2)     -2.8930         0.010000   
    751. D(Al 61,Al 60,O  20,C  44)    171.1992         0.010000   
    752. D(Al 61,Al 60,O  20,Zr  2)     -9.2476         0.010000   
    753. D(H  62,Al 61,Al 60,H  65)   -118.1951         0.010000   
    754. D(H  62,Al 61,Al 60,H  64)   -169.4406         0.010000   
    755. D(H  62,Al 61,O  23,Zr  2)    114.5402         0.010000   
    756. D(Al 60,Al 61,O  23,C  45)    163.8270         0.010000   
    757. D(Al 60,Al 61,O  23,Zr  2)     17.4039         0.010000   
    758. D(H  62,Al 61,O  21,Zr  2)      3.1162         0.010000   
    759. D(Al 60,Al 61,O  21,C  38)     87.5200         0.010000   
    760. D(H  63,Al 61,Al 60,H  64)    -52.2731         0.010000   
    761. D(Al 60,Al 61,O  21,Zr  2)    -91.2656         0.010000   
    762. D(Al 68,H  62,Al 61,H  63)   -132.5289         0.010000   
    763. D(Al 68,H  62,Al 61,Al 60)    -12.1930         0.010000   
    764. D(Al 60,H  64,Al 61,H  63)    129.9440         0.010000   
    765. D(Al 60,H  64,Al 61,H  62)     10.7696         0.010000   
    766. D(Al 61,H  64,Al 60,H  66)    -11.4371         0.010000   
    767. D(Al 61,H  64,Al 60,H  65)   -130.9635         0.010000   
    768. D(Al 72,H  66,Al 60,H  64)     15.6948         0.010000   
    769. D(Al 72,H  66,Al 60,Al 61)     14.3750         0.010000   
    770. D(H  69,Al 68,H  62,Al 61)     15.0167         0.010000   
    771. D(H  69,Al 68,Al 61,Al 60)      2.6211         0.010000   
    772. D(H  62,Al 68,Al 61,H  63)     49.5760         0.010000   
    773. D(H  62,Al 68,Al 61,Al 60)    167.8852         0.010000   
    774. D(H  62,Al 68,O  23,Zr  2)   -103.0447         0.010000   
    775. D(Al 61,Al 68,O  23,C  45)     90.3878         0.010000   
    776. D(H  70,Al 68,H  62,Al 61)    134.5779         0.010000   
    777. D(Al 61,Al 68,O  23,Zr  2)    -95.7820         0.010000   
    778. D(Al 72,H  69,Al 68,H  62)    -20.2783         0.010000   
    779. D(Al 72,H  69,Al 68,Al 61)    -18.5902         0.010000   
    780. D(H  66,Al 72,H  69,Al 68)     19.9924         0.010000   
    781. D(Al 60,Al 72,H  69,Al 68)     18.1680         0.010000   
    782. D(Al 60,Al 72,Al 68,H  62)     -1.8442         0.010000   
    783. D(Al 60,Al 72,Al 68,Al 61)     -0.4297         0.010000   
    784. D(H  69,Al 72,H  66,Al 60)    -16.3164         0.010000   
    785. D(Al 68,Al 72,H  66,Al 60)    -13.9514         0.010000   
    786. D(Al 68,Al 72,Al 60,Al 61)      0.4299         0.010000   
    787. D(H  66,Al 72,Al 60,H  64)   -164.5952         0.010000   
    788. D(H  66,Al 72,Al 60,Al 61)   -165.7082         0.010000   
    789. D(H  66,Al 72,O  22,Zr  2)      0.6526         0.010000   
    790. D(Al 60,Al 72,O  22,C  42)    154.0457         0.010000   
    791. D(Al 60,Al 72,O  22,Zr  2)     -5.7202         0.010000   
    792. D(H  66,Al 72,Al 68,Al 61)      1.1251         0.010000   
    793. D(H  66,Al 72,O  20,Zr  2)    109.8023         0.010000   
    794. D(Al 60,Al 72,O  20,C  44)   -123.7038         0.010000   
    795. D(Al 60,Al 72,O  20,Zr  2)    102.4836         0.010000   
    -----------------------------------------------------------------

Number of atoms                         .... 76
Number of degrees of freedom            .... 795


         *************************************************************
         *                GEOMETRY OPTIMIZATION CYCLE   1            *
         *************************************************************
---------------------------------
CARTESIAN COORDINATES (ANGSTROEM)
---------------------------------
  Zr    -0.427384    1.919702    1.646267
  Zr     0.665395   -1.994690   -1.504068
  Zr     1.795630   -1.317456    1.609285
  Zr    -1.554413    1.294905   -1.481176
  Zr     1.872901    1.170646   -1.494751
  Zr    -1.628992   -1.274561    1.581714
  O     -1.421627    0.475704    0.463464
  O      1.657488   -0.525229   -0.335861
  O      0.094786   -1.930335    0.572414
  O      0.163310    1.879947   -0.444536
  O      0.126239    0.052479   -2.004957
  O      0.080133   -0.129897    2.145790
  O     -1.609174    1.682760    3.219821
  O     -1.808722    3.263501    1.179467
  O      1.019362    1.929781    3.081543
  O      0.837074    3.489061    1.193030
  O     -0.414779   -3.677289   -0.967723
  O     -0.955400   -2.044359   -2.729951
  O      2.204834   -3.180165   -1.090029
  O      1.642436   -1.770580   -3.206744
  O      1.163217   -2.143897    3.305537
  O      2.502218    0.149121    2.751657
  O      2.315961   -3.203017    1.233130
  O      3.693556   -1.025172    0.837471
  O     -3.450987    1.027062   -0.696354
  O     -2.025988    3.193411   -1.135482
  O     -2.312585   -0.142942   -2.623657
  O     -0.890097    2.099444   -3.185948
  O      1.299231    2.693377   -2.638715
  O      2.501132    2.612952   -0.213279
  O      2.435356    0.419755   -3.234939
  O      3.743781    0.488837   -0.960769
  O     -3.486902   -0.660535    0.941521
  O     -2.296325   -0.540215    3.285418
  O     -2.166636   -2.817724    0.347820
  O     -1.025422   -2.755069    2.774774
  C     -2.212628    0.666173    3.756799
  C     -2.177229    3.748180    0.030224
  C      2.085018    1.234176    3.325491
  C      1.961034    3.518976    0.545220
  C     -1.544235   -3.738114   -0.329028
  C     -1.967858   -1.309812   -3.066890
  C      2.546306   -3.700442    0.053434
  C      2.270385   -0.765749   -3.738138
  C      0.058520   -2.806137    3.493975
  C      4.265002   -0.293258   -0.067631
  C     -4.015856    0.187536    0.114765
  C      0.212770    2.771989   -3.352399
  H     -2.626182   -1.737661   -3.817147
  H      3.088290   -4.647885    0.019318
  H      2.723255    1.621155    4.114952
  H     -2.674844    4.719302    0.047307
  H      2.708748   -0.937466   -4.721171
  H      0.228774    3.479600   -4.183958
  H      2.540819    4.430229    0.665765
  H      5.347548   -0.356753   -0.092177
  H     -2.049366   -4.699863   -0.376409
  H     -5.100459    0.209721    0.114516
  H     -2.709751    0.848317    4.709409
  H      0.037829   -3.478290    4.353918
  Al     3.387062   -1.526798    5.571618
  Al     5.658774   -0.299289    3.489889
  H      5.842673   -1.684008    2.575328
  H      5.168935    0.926365    2.591609
  H      4.490863   -0.736006    4.600151
  H      1.968401   -0.794198    5.553039
  H      3.307021   -3.041587    4.873882
  H      7.023804    0.053886    4.236542
  Al     5.831499   -3.228776    1.941304
  H      4.651538   -3.987705    2.845225
  H      5.464823   -3.214122    0.387849
  H      3.951380   -1.632726    7.060202
  Al     3.543821   -4.447887    4.005648
  H      2.191410   -4.968418    3.336015
  H      4.166824   -5.569933    4.953565
  H      7.246504   -3.925616    2.181983

----------------------------
CARTESIAN COORDINATES (A.U.)
----------------------------
  NO LB      ZA    FRAG     MASS         X           Y           Z
   0 Zr   12.0000*   0    91.220   -0.807639    3.627711    3.110994
   1 Zr   12.0000*   0    91.220    1.257414   -3.769419   -2.842277
   2 Zr   12.0000*   0    91.220    3.393249   -2.489631    3.041108
   3 Zr   12.0000*   0    91.220   -2.937415    2.447015   -2.799018
   4 Zr   12.0000*   0    91.220    3.539270    2.212200   -2.824670
   5 Zr   12.0000*   0    91.220   -3.078349   -2.408571    2.989007
   6 O     8.0000    0    15.999   -2.686485    0.898951    0.875819
   7 O     8.0000    0    15.999    3.132198   -0.992538   -0.634685
   8 O     8.0000    0    15.999    0.179119   -3.647804    1.081706
   9 O     8.0000    0    15.999    0.308611    3.552584   -0.840050
  10 O     8.0000    0    15.999    0.238558    0.099171   -3.788819
  11 O     8.0000    0    15.999    0.151429   -0.245469    4.054956
  12 O     8.0000    0    15.999   -3.040898    3.179956    6.084580
  13 O     8.0000    0    15.999   -3.417989    6.167123    2.228869
  14 O     8.0000    0    15.999    1.926314    3.646757    5.823273
  15 O     8.0000    0    15.999    1.581841    6.593370    2.254500
  16 O     8.0000    0    15.999   -0.783819   -6.949069   -1.828731
  17 O     8.0000    0    15.999   -1.805445   -3.863278   -5.158860
  18 O     8.0000    0    15.999    4.166533   -6.009640   -2.059856
  19 O     8.0000    0    15.999    3.103754   -3.345911   -6.059867
  20 O     8.0000    0    15.999    2.198161   -4.051377    6.246560
  21 O     8.0000    0    15.999    4.728507    0.281798    5.199878
  22 O     8.0000    0    15.999    4.376532   -6.052824    2.330279
  23 O     8.0000    0    15.999    6.979808   -1.937295    1.582592
  24 O     8.0000    0    15.999   -6.521421    1.940867   -1.315919
  25 O     8.0000    0    15.999   -3.828563    6.034672   -2.145750
  26 O     8.0000    0    15.999   -4.370153   -0.270122   -4.957993
  27 O     8.0000    0    15.999   -1.682039    3.967374   -6.020569
  28 O     8.0000    0    15.999    2.455191    5.089746   -4.986449
  29 O     8.0000    0    15.999    4.726454    4.937764   -0.403039
  30 O     8.0000    0    15.999    4.602156    0.793222   -6.113148
  31 O     8.0000    0    15.999    7.074720    0.923768   -1.815591
  32 O     8.0000    0    15.999   -6.589290   -1.248230    1.779217
  33 O     8.0000    0    15.999   -4.339426   -1.020858    6.208541
  34 O     8.0000    0    15.999   -4.094349   -5.324726    0.657284
  35 O     8.0000    0    15.999   -1.937766   -5.206325    5.243563
  36 C     6.0000    0    12.011   -4.181261    1.258884    7.099321
  37 C     6.0000    0    12.011   -4.114367    7.083034    0.057115
  38 C     6.0000    0    12.011    3.940113    2.332254    6.284267
  39 C     6.0000    0    12.011    3.705817    6.649901    1.030317
  40 C     6.0000    0    12.011   -2.918181   -7.064012   -0.621772
  41 C     6.0000    0    12.011   -3.718712   -2.475185   -5.795583
  42 C     6.0000    0    12.011    4.811821   -6.992822    0.100975
  43 C     6.0000    0    12.011    4.290406   -1.447057   -7.064057
  44 C     6.0000    0    12.011    0.110588   -5.302830    6.602656
  45 C     6.0000    0    12.011    8.059685   -0.554177   -0.127805
  46 C     6.0000    0    12.011   -7.588869    0.354392    0.216874
  47 C     6.0000    0    12.011    0.402077    5.238301   -6.335115
  48 H     1.0000    0     1.008   -4.962766   -3.283704   -7.213363
  49 H     1.0000    0     1.008    5.836022   -8.783230    0.036505
  50 H     1.0000    0     1.008    5.146207    3.063539    7.776132
  51 H     1.0000    0     1.008   -5.054722    8.918188    0.089397
  52 H     1.0000    0     1.008    5.118793   -1.771554   -8.921720
  53 H     1.0000    0     1.008    0.432321    6.575491   -7.906535
  54 H     1.0000    0     1.008    4.801453    8.371919    1.258114
  55 H     1.0000    0     1.008   10.105402   -0.674166   -0.174189
  56 H     1.0000    0     1.008   -3.872741   -8.881454   -0.711310
  57 H     1.0000    0     1.008   -9.638471    0.396315    0.216404
  58 H     1.0000    0     1.008   -5.120687    1.603086    8.899493
  59 H     1.0000    0     1.008    0.071486   -6.573016    8.227712
  60 Al   13.0000    0    26.982    6.400620   -2.885230   10.528832
  61 Al   13.0000    0    26.982   10.693533   -0.565575    6.594935
  62 H     1.0000    0     1.008   11.041051   -3.182313    4.866664
[...]
Cut-Off Frequency   ...     1.00 cm^-1

Throughout the following assumptions are being made:
  (1) The electronic state is orbitally nondegenerate
  (2) There are no thermally accessible electronically excited states
  (3) Hindered rotations indicated by low frequency modes are not
      treated as such but are treated as vibrations and this may
      cause some error
  (4) All equations used are the standard statistical mechanics
      equations for an ideal gas
  (5) All vibrations are strictly harmonic

freq.       5.56  E(vib)   ...       0.58 
freq.      16.89  E(vib)   ...       0.57 
freq.      25.29  E(vib)   ...       0.56 
freq.      30.66  E(vib)   ...       0.55 
freq.      35.13  E(vib)   ...       0.54 
freq.      36.13  E(vib)   ...       0.54 
freq.      41.18  E(vib)   ...       0.54 
freq.      44.35  E(vib)   ...       0.53 
freq.      53.14  E(vib)   ...       0.52 
freq.      57.82  E(vib)   ...       0.51 
freq.      66.10  E(vib)   ...       0.50 
freq.      68.89  E(vib)   ...       0.50 
freq.      78.28  E(vib)   ...       0.49 
freq.      81.46  E(vib)   ...       0.48 
freq.      90.35  E(vib)   ...       0.47 
freq.      94.99  E(vib)   ...       0.47 
freq.      97.06  E(vib)   ...       0.46 
freq.      99.83  E(vib)   ...       0.46 
freq.     101.80  E(vib)   ...       0.46 
freq.     104.04  E(vib)   ...       0.46 
freq.     104.92  E(vib)   ...       0.46 
freq.     106.08  E(vib)   ...       0.45 
freq.     109.71  E(vib)   ...       0.45 
freq.     115.96  E(vib)   ...       0.44 
freq.     116.90  E(vib)   ...       0.44 
freq.     122.11  E(vib)   ...       0.43 
freq.     126.87  E(vib)   ...       0.43 
freq.     129.95  E(vib)   ...       0.43 
freq.     144.39  E(vib)   ...       0.41 
freq.     145.54  E(vib)   ...       0.41 
freq.     146.98  E(vib)   ...       0.41 
freq.     150.78  E(vib)   ...       0.40 
freq.     152.20  E(vib)   ...       0.40 
freq.     153.16  E(vib)   ...       0.40 
freq.     154.44  E(vib)   ...       0.40 
freq.     157.69  E(vib)   ...       0.40 
freq.     160.38  E(vib)   ...       0.39 
freq.     164.31  E(vib)   ...       0.39 
freq.     165.24  E(vib)   ...       0.39 
freq.     166.75  E(vib)   ...       0.39 
freq.     168.89  E(vib)   ...       0.38 
freq.     170.10  E(vib)   ...       0.38 
freq.     172.12  E(vib)   ...       0.38 
freq.     185.63  E(vib)   ...       0.37 
freq.     188.94  E(vib)   ...       0.36 
freq.     189.68  E(vib)   ...       0.36 
freq.     192.95  E(vib)   ...       0.36 
freq.     194.67  E(vib)   ...       0.36 
freq.     198.23  E(vib)   ...       0.35 
freq.     204.12  E(vib)   ...       0.35 
freq.     210.30  E(vib)   ...       0.34 
freq.     211.25  E(vib)   ...       0.34 
freq.     212.93  E(vib)   ...       0.34 
freq.     229.78  E(vib)   ...       0.32 
freq.     232.18  E(vib)   ...       0.32 
freq.     233.06  E(vib)   ...       0.32 
freq.     236.47  E(vib)   ...       0.32 
freq.     242.56  E(vib)   ...       0.31 
freq.     261.08  E(vib)   ...       0.30 
freq.     261.74  E(vib)   ...       0.30 
freq.     262.54  E(vib)   ...       0.29 
freq.     263.78  E(vib)   ...       0.29 
freq.     265.06  E(vib)   ...       0.29 
freq.     266.75  E(vib)   ...       0.29 
freq.     270.80  E(vib)   ...       0.29 
freq.     271.98  E(vib)   ...       0.29 
freq.     273.86  E(vib)   ...       0.28 
freq.     274.13  E(vib)   ...       0.28 
freq.     274.84  E(vib)   ...       0.28 
freq.     276.65  E(vib)   ...       0.28 
freq.     278.40  E(vib)   ...       0.28 
freq.     279.59  E(vib)   ...       0.28 
freq.     281.39  E(vib)   ...       0.28 
freq.     282.85  E(vib)   ...       0.28 
freq.     285.04  E(vib)   ...       0.28 
freq.     287.30  E(vib)   ...       0.27 
freq.     290.61  E(vib)   ...       0.27 
freq.     292.06  E(vib)   ...       0.27 
freq.     293.57  E(vib)   ...       0.27 
freq.     295.43  E(vib)   ...       0.27 
freq.     302.77  E(vib)   ...       0.26 
freq.     306.70  E(vib)   ...       0.26 
freq.     308.88  E(vib)   ...       0.26 
freq.     309.62  E(vib)   ...       0.26 
freq.     310.24  E(vib)   ...       0.26 
freq.     315.50  E(vib)   ...       0.25 
freq.     316.16  E(vib)   ...       0.25 
freq.     318.05  E(vib)   ...       0.25 
freq.     321.85  E(vib)   ...       0.25 
freq.     325.92  E(vib)   ...       0.24 
freq.     329.51  E(vib)   ...       0.24 
freq.     339.21  E(vib)   ...       0.23 
freq.     341.72  E(vib)   ...       0.23 
freq.     352.43  E(vib)   ...       0.23 
freq.     352.77  E(vib)   ...       0.22 
freq.     360.42  E(vib)   ...       0.22 
freq.     371.01  E(vib)   ...       0.21 
freq.     385.34  E(vib)   ...       0.20 
freq.     396.32  E(vib)   ...       0.20 
freq.     399.80  E(vib)   ...       0.19 
freq.     402.22  E(vib)   ...       0.19 
freq.     404.38  E(vib)   ...       0.19 
freq.     409.05  E(vib)   ...       0.19 
freq.     417.74  E(vib)   ...       0.18 
freq.     418.95  E(vib)   ...       0.18 
freq.     420.33  E(vib)   ...       0.18 
freq.     421.03  E(vib)   ...       0.18 
freq.     430.93  E(vib)   ...       0.18 
freq.     431.57  E(vib)   ...       0.18 
freq.     439.44  E(vib)   ...       0.17 
freq.     472.71  E(vib)   ...       0.15 
freq.     474.78  E(vib)   ...       0.15 
freq.     476.30  E(vib)   ...       0.15 
freq.     477.91  E(vib)   ...       0.15 
freq.     486.30  E(vib)   ...       0.15 
freq.     499.01  E(vib)   ...       0.14 
freq.     521.92  E(vib)   ...       0.13 
freq.     538.74  E(vib)   ...       0.12 
freq.     627.25  E(vib)   ...       0.09 
freq.     673.23  E(vib)   ...       0.08 
freq.     674.93  E(vib)   ...       0.08 
freq.     681.15  E(vib)   ...       0.08 
freq.     685.18  E(vib)   ...       0.07 
freq.     689.28  E(vib)   ...       0.07 
freq.     689.38  E(vib)   ...       0.07 
freq.     690.92  E(vib)   ...       0.07 
freq.     696.63  E(vib)   ...       0.07 
freq.     699.33  E(vib)   ...       0.07 
freq.     703.69  E(vib)   ...       0.07 
freq.     706.66  E(vib)   ...       0.07 
freq.     724.51  E(vib)   ...       0.06 
freq.     729.02  E(vib)   ...       0.06 
freq.     731.49  E(vib)   ...       0.06 
freq.     733.71  E(vib)   ...       0.06 
freq.     734.77  E(vib)   ...       0.06 
freq.     735.07  E(vib)   ...       0.06 
freq.     736.33  E(vib)   ...       0.06 
freq.     737.93  E(vib)   ...       0.06 
freq.     738.60  E(vib)   ...       0.06 
freq.     738.84  E(vib)   ...       0.06 
freq.     739.64  E(vib)   ...       0.06 
freq.     740.10  E(vib)   ...       0.06 
freq.     741.14  E(vib)   ...       0.06 
freq.     741.89  E(vib)   ...       0.06 
freq.     743.19  E(vib)   ...       0.06 
freq.     750.68  E(vib)   ...       0.06 
freq.     775.43  E(vib)   ...       0.05 
freq.     994.54  E(vib)   ...       0.02 
freq.     995.75  E(vib)   ...       0.02 
freq.     999.71  E(vib)   ...       0.02 
freq.    1000.10  E(vib)   ...       0.02 
freq.    1001.26  E(vib)   ...       0.02 
freq.    1001.40  E(vib)   ...       0.02 
freq.    1001.89  E(vib)   ...       0.02 
freq.    1003.05  E(vib)   ...       0.02 
freq.    1005.69  E(vib)   ...       0.02 
freq.    1006.34  E(vib)   ...       0.02 
freq.    1006.58  E(vib)   ...       0.02 
freq.    1007.03  E(vib)   ...       0.02 
freq.    1349.86  E(vib)   ...       0.01 
freq.    1350.37  E(vib)   ...       0.01 
freq.    1352.49  E(vib)   ...       0.01 
freq.    1353.42  E(vib)   ...       0.01 
freq.    1353.70  E(vib)   ...       0.01 
freq.    1354.85  E(vib)   ...       0.01 
freq.    1355.05  E(vib)   ...       0.01 
freq.    1355.57  E(vib)   ...       0.01 
freq.    1356.67  E(vib)   ...       0.01 
freq.    1357.26  E(vib)   ...       0.01 
freq.    1357.39  E(vib)   ...       0.01 
freq.    1358.39  E(vib)   ...       0.01 
freq.    1361.43  E(vib)   ...       0.01 
freq.    1361.74  E(vib)   ...       0.01 
freq.    1363.55  E(vib)   ...       0.01 
freq.    1364.70  E(vib)   ...       0.01 
freq.    1365.45  E(vib)   ...       0.01 
freq.    1366.24  E(vib)   ...       0.01 
freq.    1366.73  E(vib)   ...       0.01 
freq.    1367.73  E(vib)   ...       0.01 
freq.    1368.70  E(vib)   ...       0.01 
freq.    1371.97  E(vib)   ...       0.01 
freq.    1373.08  E(vib)   ...       0.01 
freq.    1381.02  E(vib)   ...       0.01 
freq.    1537.29  E(vib)   ...       0.00 
freq.    1545.70  E(vib)   ...       0.00 
freq.    1562.21  E(vib)   ...       0.00 
freq.    1563.55  E(vib)   ...       0.00 
freq.    1567.69  E(vib)   ...       0.00 
freq.    1575.70  E(vib)   ...       0.00 
freq.    1576.38  E(vib)   ...       0.00 
freq.    1630.82  E(vib)   ...       0.00 
freq.    1631.98  E(vib)   ...       0.00 
freq.    1635.51  E(vib)   ...       0.00 
freq.    1637.40  E(vib)   ...       0.00 
freq.    1638.14  E(vib)   ...       0.00 
freq.    1828.46  E(vib)   ...       0.00 
freq.    1863.42  E(vib)   ...       0.00 
freq.    1866.70  E(vib)   ...       0.00 
freq.    1867.08  E(vib)   ...       0.00 
freq.    1883.83  E(vib)   ...       0.00 
freq.    1897.24  E(vib)   ...       0.00 
freq.    1898.11  E(vib)   ...       0.00 
freq.    1904.43  E(vib)   ...       0.00 
freq.    1908.86  E(vib)   ...       0.00 
freq.    1957.58  E(vib)   ...       0.00 
freq.    1958.91  E(vib)   ...       0.00 
freq.    1987.73  E(vib)   ...       0.00 
freq.    2881.75  E(vib)   ...       0.00 
freq.    2885.86  E(vib)   ...       0.00 
freq.    2891.29  E(vib)   ...       0.00 
freq.    2892.52  E(vib)   ...       0.00 
freq.    2895.74  E(vib)   ...       0.00 
freq.    2896.56  E(vib)   ...       0.00 
freq.    2906.55  E(vib)   ...       0.00 
freq.    2907.35  E(vib)   ...       0.00 
freq.    2907.61  E(vib)   ...       0.00 
freq.    2909.19  E(vib)   ...       0.00 
freq.    2909.74  E(vib)   ...       0.00 
freq.    2911.00  E(vib)   ...       0.00 

------------
INNER ENERGY
------------

The inner energy is: U= E(el) + E(ZPE) + E(vib) + E(rot) + E(trans)
    E(el)   - is the total energy from the electronic structure calculation
              = E(kin-el) + E(nuc-el) + E(el-el) + E(nuc-nuc)
    E(ZPE)  - the the zero temperature vibrational energy from the frequency calculation
    E(vib)  - the the finite temperature correction to E(ZPE) due to population
              of excited vibrational states
    E(rot)  - is the rotational thermal energy
    E(trans)- is the translational thermal energy

Summary of contributions to the inner energy U:
Electronic energy                ...  -3976.49861861 Eh
Zero point energy                ...      0.38932669 Eh     244.31 kcal/mol
Thermal vibrational correction   ...      0.06545235 Eh      41.07 kcal/mol
Thermal rotational correction    ...      0.00141627 Eh       0.89 kcal/mol
Thermal translational correction ...      0.00141627 Eh       0.89 kcal/mol
-----------------------------------------------------------------------
Total thermal energy                  -3976.04100703 Eh


Summary of corrections to the electronic energy:
(perhaps to be used in another calculation)
Total thermal correction                  0.06828489 Eh      42.85 kcal/mol
Non-thermal (ZPE) correction              0.38932669 Eh     244.31 kcal/mol
-----------------------------------------------------------------------
Total correction                          0.45761158 Eh     287.15 kcal/mol


--------
ENTHALPY
--------

The enthalpy is H = U + kB*T
                kB is Boltzmann's constant
Total thermal energy              ...  -3976.04100703 Eh 
Thermal Enthalpy correction       ...      0.00094421 Eh       0.59 kcal/mol
-----------------------------------------------------------------------
Total Enthalpy                    ...  -3976.04006282 Eh


Note: Only C1 symmetry has been detected, increase convergence thresholds 
      if your molecule has a higher symmetry. Symmetry factor of 1.0 is   
      used for the rotational entropy correction. 
 

Note: Rotational entropy computed according to Herzberg 
Infrared and Raman Spectra, Chapter V,1, Van Nostrand Reinhold, 1945 
Point Group:  C1, Symmetry Number:   1  
Rotational constants in cm-1:     0.001702     0.001165     0.001137 

Vibrational entropy computed according to the QRRHO of S. Grimme
Chem.Eur.J. 2012 18 9955 using a reference frequency of 100.0 cm-1


-------
ENTROPY
-------

The entropy contributions are T*S = T*(S(el)+S(vib)+S(rot)+S(trans))
     S(el)   - electronic entropy
     S(vib)  - vibrational entropy
     S(rot)  - rotational entropy
     S(trans)- translational entropy
The entropies will be listed as multiplied by the temperature to get
units of energy

Electronic entropy                ...      0.00000000 Eh      0.00 kcal/mol
Vibrational entropy               ...      0.11872575 Eh     74.50 kcal/mol
Rotational entropy                ...      0.01891035 Eh     11.87 kcal/mol
Translational entropy             ...      0.02250776 Eh     14.12 kcal/mol
-----------------------------------------------------------------------
Final entropy term                ...      0.16014387 Eh    100.49 kcal/mol

In case the symmetry of your molecule has not been determined correctly
or in case you have a reason to use a different symmetry number we print 
out the resulting rotational entropy values for sn=1,12:

 non-linear molecules -----------------------------------
|  sn= 1 | S(rot)=       0.01891035 Eh     11.87 kcal/mol|
|  sn= 2 | S(rot)=       0.01825590 Eh     11.46 kcal/mol|
|  sn= 3 | S(rot)=       0.01787307 Eh     11.22 kcal/mol|
|  sn= 4 | S(rot)=       0.01760144 Eh     11.05 kcal/mol|
|  sn= 5 | S(rot)=       0.01739075 Eh     10.91 kcal/mol|
|  sn= 6 | S(rot)=       0.01721861 Eh     10.80 kcal/mol|
|  sn= 7 | S(rot)=       0.01707306 Eh     10.71 kcal/mol|
|  sn= 8 | S(rot)=       0.01694699 Eh     10.63 kcal/mol|
|  sn= 9 | S(rot)=       0.01683578 Eh     10.56 kcal/mol|
|  sn=10 | S(rot)=       0.01673630 Eh     10.50 kcal/mol|
|  sn=11 | S(rot)=       0.01664631 Eh     10.45 kcal/mol|
|  sn=12 | S(rot)=       0.01656415 Eh     10.39 kcal/mol|
 linear molecules ---------------------------------------
|  Dinfh | S(rot)=       0.01172659 Eh      7.36 kcal/mol|
|  Cinfv | S(rot)=       0.01238104 Eh      7.77 kcal/mol|
 --------------------------------------------------------


-------------------
GIBBS FREE ENERGY
-------------------

The Gibbs free energy is G = H - T*S

Total enthalpy                    ...  -3976.04006282 Eh 
Total entropy correction          ...     -0.16014387 Eh   -100.49 kcal/mol
-----------------------------------------------------------------------
Final Gibbs free energy         ...  -3976.20020669 Eh

For completeness - the Gibbs free energy minus the electronic energy
G-E(el)                           ...      0.29841192 Eh    187.26 kcal/mol


Maximum memory used throughout the entire PROP-calculation: 152.5 MB

--------------------------------
SUGGESTED CITATIONS FOR THIS RUN
--------------------------------

Below you find a list of papers that are relevant to this ORCA run
We neither can nor want to force you to cite these papers, but we appreciate if you do
You receive ORCA, which is the product of decades of hard work by many enthusiastic individuals, for free
The only thing we kindly ask in return is that you cite our papers,
We deeply appreciate it, if you show your appreciation for ORCA by not just citing the generic ORCA reference.

Please note that relegating all ORCA citations to the supporting information does *not* help us.
SI sections are not indexed - citations you put there will not count into any citation statistics
But we need these citations in order to attract the funding resources that allow us to do what we are doing

Therefore, if you are a happy ORCA user, please consider citing a few of the papers listed below in the main body of your paper

In addition to the list printed below, the program has created the file run.bibtex that contains the list in bibtex format
You can import this file easily into all common literature databanks and citation aid programs


List of essential papers. We consider these as the minimum necessary citations

  1. Neese, F.
     Software update: the ORCA program system, version 6.0
     WIRES Comput. Molec. Sci. 2025 15(1), e70019
     doi.org/10.1002/wcms.7019

List of papers to cite with high priority. The work reported in these papers was absolutely
necessary for this run to complete.
Our perspective: the developers of density functionals and basis sets usually get cited in chemistry papers
Good! But without the algorithms to do something with them, the functionals or basis sets would not do anything.
Hence, in our opinion, the algorithm design and method developments papers are equally worthy of getting cited

  1. Neese, F.
     An improvement of the resolution of the identity approximation for the formation of the Coulomb matrix
     J. Comp. Chem. 2003 24(14), 1740-1747
     doi.org/10.1002/jcc.10318
  2. Grimme, S.; Antony, J.; Ehrlich, S.; Krieg, H.
     A consistent and accurate ab initio parametrization of density functional dispersion correction (DFT-D) for the 94 elements H-Pu
     J. Chem. Phys. 2010 132 , 154104
     doi.org/10.1063/1.3382344
  3. Grimme, S.; Ehrlich, S.; Goerigk, L.
     Effect of the damping function in dispersion corrected density functional theory
     J. Comput. Chem. 2011 32(7), 1456-1465
     doi.org/10.1002/jcc.21759
  4. Bykov, D.; Petrenko, T.; Izsak, R.; Kossmann, S.; Becker, U.; Valeev, E.; Neese, F.
     Efficient implementation of the analytic second derivatives of Hartree-Fock and hybrid DFT energies: a detailed analysis of different approximations
     Molec. Phys. 2015 113 , 1961-1977
     doi.org/10.1080/00268976.2015.1025114
  5. Helmich-Paris, B.
     A trust-region augmented Hessian implementation for restricted and unrestricted Hartree–Fock and Kohn–Sham methods
     J. Chem. Phys. 2021 154 , 164104
     doi.org/10.1063/5.0040798
  6. Neese, F.
     The SHARK Integral Generation and Digestion System
     J. Comp. Chem. 2022 44(3), 381
     doi.org/10.1002/jcc.26942

List of suggested additional citations. These are papers that are important in the 'surrounding' of 
of this run, or papers that preceded the highly important papers. If you like your results we are grateful for a citation.

  1. Neese, F.
     The ORCA program system
     WIRES Comput. Molec. Sci. 2012 2(1), 73-78
     doi.org/10.1002/wcms.81
  2. Neese, F.
     Software update: the ORCA program system, version 4.0
     WIRES Comput. Molec. Sci. 2018 8(1), 1-6
     doi.org/10.1002/wcms.1327
  3. Neese, F.; Wennmohs, F.; Becker, U.; Riplinger, C.
     The ORCA quantum chemistry program package
     J. Chem. Phys. 2020 152(22), 224108
     doi.org/10.1063/5.0004608
  4. Neese, F.
     Software update: The ORCA program system—Version 5.0
     WIRES Comput. Molec. Sci. 2022 12(1), e1606
     doi.org/10.1002/wcms.1606

List of optional additional citations

  1. Neese, F.
     Approximate second-order SCF convergence for spin unrestricted wavefunctions
     Chem. Phys. Lett. 2000 325(1-3), 93-98
     doi.org/10.1016/s0009-2614(00)00662-x

Timings for individual modules:

Sum of individual times          ...     9484.006 sec (= 158.067 min)
Startup calculation              ...      352.967 sec (=   5.883 min)   3.7 %
SCF iterations                   ...     2573.235 sec (=  42.887 min)  27.1 %
Property integrals               ...     2147.652 sec (=  35.794 min)  22.6 %
SCF Response                     ...     1520.030 sec (=  25.334 min)  16.0 %
Property calculations            ...     2005.284 sec (=  33.421 min)  21.1 %
SCF Gradient evaluation          ...      870.835 sec (=  14.514 min)   9.2 %
Geometry relaxation              ...       14.004 sec (=   0.233 min)   0.1 %
                             ****ORCA TERMINATED NORMALLY****
TOTAL RUN TIME: 0 days 2 hours 38 minutes 27 seconds 327 msec
