
                                 *****************
                                 * O   R   C   A *
                                 *****************

                                            #,                                       
                                            ###                                      
                                            ####                                     
                                            #####                                    
                                            ######                                   
                                           ########,                                 
                                     ,,################,,,,,                         
                               ,,#################################,,                 
                          ,,##########################################,,             
                       ,#########################################, ''#####,          
                    ,#############################################,,   '####,        
                  ,##################################################,,,,####,       
                ,###########''''           ''''###############################       
              ,#####''   ,,,,##########,,,,          '''####'''          '####       
            ,##' ,,,,###########################,,,                        '##       
           ' ,,###''''                  '''############,,,                           
         ,,##''                                '''############,,,,        ,,,,,,###''
      ,#''                                            '''#######################'''  
     '                                                          ''''####''''         
             ,#######,   #######,   ,#######,      ##                                
            ,#'     '#,  ##    ##  ,#'     '#,    #''#        ,####,    ,#,          
            ##       ##  ##   ,#'  ##            #'  '#       #'       ,# #          
            ##       ##  #######   ##           ,######,      #####,      #          
            '#,     ,#'  ##    ##  '#,     ,#' ,#      #,     #,   #      #          
             '#######'   ##     ##  '#######'  #'      '#     '####' #    #          



                #########################################################
                #                        -***-                          #
                #          Department of theory and spectroscopy        #
                #                                                       #
                #                      Frank Neese                      #
                #                                                       #
                #     Directorship, Architecture, Infrastructure        #
                #                    SHARK, DRIVERS                     #
                #        Core code/Algorithms in most modules           #
                #                                                       #
                #        Max Planck Institute fuer Kohlenforschung      #
                #                Kaiser Wilhelm Platz 1                 #
                #                 D-45470 Muelheim/Ruhr                 #
                #                      Germany                          #
                #                                                       #
                #                  All rights reserved                  #
                #                        -***-                          #
                #########################################################


                         Program Version 6.1.0  -  RELEASE   -
                                (GIT: $679e74b$)
                          ($2025-06-10 18:02:51 +0200$)


 With contributions from (in alphabetic order):
[Max-Planck-Institut fuer Kohlenforschung]                               
  Daniel Aravena         : Magnetic Suceptibility                        
  Michael Atanasov       : Ab Initio Ligand Field Theory (pilot matlab implementation)
  Alexander A. Auer      : GIAO ZORA, VPT2 properties, NMR spectrum      
  Ute Becker             : All parallelization in ORCA, NUMFREQ, NUMCALC 
  Giovanni Bistoni       : ED, misc. LED, open-shell LED, HFLD           
  Dmytro Bykov           : pre 5.0 version of the SCF Hessian            
  Marcos Casanova-Páez   : Triplet and SCS-CIS(D). UHF-(DLPNO)-IP/EA/STEOM-CCSD. UHF-CVS-IP/STEOM-CCSD   
  Vijay G. Chilkuri      : MRCI spin determinant printing, contributions to CSF-ICE 
  Pauline Colinet        : FMM embedding                                 
  Dipayan Datta          : RHF DLPNO-CCSD density                        
  Achintya Kumar Dutta   : EOM-CC, STEOM-CC                              
  Nicolas Foglia         : Exact transition moments, OPA infrastructure, MCD improvements    
  Dmitry Ganyushin       : Spin-Orbit,Spin-Spin,Magnetic field MRCI      
  Miquel Garcia-Rates    : C-PCM and meta-GGA Hessian, CCSD/C-PCM, Gaussian charge scheme 
  Tiago L. C. Gouveia    : GS-ROHF, GS-ROCIS                             
  Yang Guo               : DLPNO-NEVPT2, F12-NEVPT2, CIM, IAO-localization        
  Andreas Hansen         : Spin unrestricted coupled pair/coupled cluster methods 
  Ingolf Harden          : AUTO-CI MPn and infrastructure                
  Benjamin Helmich-Paris : MC-RPA, TRAH-(SCF,CASSCF), AVAS, COSX integrals, SCF dyn. polar., MC-PDFT, srDFT 
  Lee Huntington         : MR-EOM, pCC                                   
  Robert Izsak           : Overlap fitted RIJCOSX, COSX-SCS-MP3, EOM     
  Riya Kayal             : Wick's Theorem for AUTO-CI, AUTO-CI UHF-CCSDT 
  Emily Kempfer          : AUTO-CI RHF CISDT and CCSDT, approximate NEVPT4
  Christian Kollmar      : KDIIS, OOCD, Brueckner-CCSD(T), CCSD density, CASPT2, CASPT2-K, improved NEVPT2 
  Axel Koslowski         : Symmetry handling                             
  Simone Kossmann        : meta-GGA functionals, TD-DFT gradient, OOMP2, (MP2 Hessian; deprecated post 5.0) 
  Lucas Lang             : DCDCAS, Hyperfine gauge corrections, ICE-SOC+SSC
  Marvin Lechner         : AUTO-CI (C++ implementation), FIC-MRCC        
  Spencer Leger          : CASSCF response                               
  Dagmar Lenk            : GEPOL surface, SMD, ORCA-2-JSON               
  Dimitrios Liakos       : Extrapolation schemes; Compound Job, Property file
  Dimitrios Manganas     : Further ROCIS development; embedding schemes. LFT, Crystal Embedding 
  Dimitrios Pantazis     : SARC Basis sets                               
  Anastasios Papadopoulos: AUTO-CI, single reference methods and gradients 
  Taras Petrenko         : pre 6.0 DFT Hessian and TD-DFT gradient,  ECA, NRVS 
  Petra Pikulova         : Analytic Raman intensities                    
  Peter Pinski           : DLPNO-MP2, DLPNO-MP2 Gradient                 
  Shashank Vittal Rao    : ES-AILFT, MagRelax                            
  Christoph Reimann      : Effective Core Potentials                     
  Marius Retegan         : Local ZFS, SOC                                
  Christoph Riplinger    : Optimizer, TS searches, QM/MM, DLPNO-CCSD(T), (RO)-DLPNO pert. Triples 
  Michael Roemelt        : Original ROCIS implementation, recursive CI coupling coefficients
  Masaaki Saitow         : Open-shell DLPNO-CCSD energy and density      
  Barbara Sandhoefer     : DKH picture change effects                    
  Yorick L. A. Schmerwitz: GMF and freeze-and-release deltaSCF, NEB S-IDPP initial path                    
  Kantharuban Sivalingam : CASSCF convergence/infrastructure, NEVPT2, NEVPT3, NEVPT4(SD), FIC-MRCI and CEPA variants
  Bernardo de Souza      : ESD, SOC TD-DFT                               
  Georgi L. Stoychev     : AutoAux, RI-MP2 NMR, DLPNO-MP2 response, X2C  
  Van Anh Tran           : RI-MP2 g-tensors                              
  Willem Van den Heuvel  : Paramagnetic NMR                              
  Zikuan Wang            : NOTCH, Electric field optimization            
  Frank Wennmohs         : Technical directorship and infrastructure     
  Hang Xu                : AUTO-CI-Response properties                   
                                                                         
[FACCTs GmbH]                                                            
  Markus Bursch, Nicolas Foglia, Miquel Garcia-Rates, Ingolf Harden, Hagen Neugebauer, Anastasios Papadopoulos, 
  Christoph Riplinger, Bernardo de Souza, Georgi L. Stoychev                                                    
                                                                 
  APM, various basis sets, CI-OPT, improved COSX, DLPNO-Multilevel,           
  DOCKER, DRACO, updates on ESD, Fragmentator, GOAT, IRC, LR-CPCM, L-BFGS, MBIS, meta-GGA TD-DFT gradient, ML-optimized integration grids, 
  MM, NACMEs, nearIR, NEB, NEB-TS, NL-DFT gradient (VV10), 2- and 3-layer-ONIOM, interface openCOSMO-RS, QMMM,   
  Crystal-QMMM, RESP, rigid body optimization, SF, symmetry and pop. for TD-DFT, various functionals, SOLVATOR                                   
                                                                         
[Other institutions]                                                     
  V. Asgeirsson          : NEB                                           
  Christoph Bannwarth    : sTDA-DFT, sTD-DFT, PBEh-3c, B97-3c, D3        
  Giovanni Bistoni       : ETS/NOCV, ADLD/ADEX, COVALED                  
  Martin Brehm           : Molecular dynamics                            
  Ronald Cardenas        : ETS/NOCV                                      
  Martina Colucci        : COVALED                                       
  Sebastian Ehlert       : rSCAN, r2SCAN, r2SCAN-3c, D4, dhf basis sets  
  Marvin Friede          : D4 for Fr, Ra, Ac-Lr                          
  Lars Goerigk           : TD-DFT with DH, B97 family of functionals     
  Stefan Grimme          : VdW corrections, initial TS optimization, DFT functionals, gCP, sTDA/sTD-DF 
  Waldemar Hujo          : DFT-NL                                        
  H. Jonsson             : NEB                                           
  Holger Kruse           : gCP                                           
  Marcel Mueller         : wB97X-3c, vDZP basis set                      
  Hagen Neugebauer       : wr2SCAN, Native XTB                           
  Gianluca Regni         : ADLD/ADEX                                     
  Tobias Risthaus        : pre 6.0 range-separated hybrid DFT and stability analysis
  Lukas Wittmann         : regularized MP2, r2SCAN double-hybrids, wr2SCAN        
                                                                         
We gratefully acknowledge several colleagues who have allowed us to      
interface, adapt or use parts of their codes:                            
  Ed Valeev, F. Pavosevic, A. Kumar             : LibInt (2-el integral package), F12 methods 
  Garnet Chan, S. Sharma, J. Yang, R. Olivares  : DMRG                   
  Ulf Ekstrom                                   : XCFun DFT Library      
  Mihaly Kallay                                 : mrcc  (arbitrary order and MRCC methods)
  Frank Weinhold                                : gennbo (NPA and NBO analysis)           
  Simon Mueller                                 : openCOSMO-RS                            
  Christopher J. Cramer and Donald G. Truhlar   : smd solvation model                     
  S Lehtola, MJT Oliveira, MAL Marques          : LibXC Library                           
  Liviu Ungur et al                             : ANISO software                          


 Your calculation uses the libint2 library for the computation of 2-el integrals
 For citations please refer to: http://libint.valeyev.net

 Your ORCA version has been built with support for libXC version: 7.0.0
 For citations please refer to: https://libxc.gitlab.io

 This ORCA versions uses:
   CBLAS   interface :  Fast vector & matrix operations
   LAPACKE interface :  Fast linear algebra routines
   SCALAPACK package :  Parallel linear algebra routines
   Shared memory     :  Shared parallel matrices
   BLAS/LAPACK       :  OpenBLAS 0.3.29  USE64BITINT DYNAMIC_ARCH NO_AFFINITY Prescott SINGLE_THREADED
        Core in use  :  Prescott
   Copyright (c) 2011-2014, The OpenBLAS Project


  ***********************************
  * Starting time: Fri Aug  8 15:34:35 2025
  * Host name:     cuda2
  * Process ID:    101139
  * Working dir.:  /local/scratch/mehlhorn/61789
  ***********************************



***************************************
The coordinates will be read from file: start.xyz
***************************************


Your calculation utilizes the geometrical counterpoise correction gCP
Please cite in your paper:
H.Kruse, S. Grimme J.Chem.Phys., 136, (2012), 154101 
   

Your calculation utilizes the atom-pairwise dispersion correction
with the Becke-Johnson damping scheme (D3BJ)


Warning: RI is on but no J-basis has been assigned. Assigning Def2/J (nothing to worry about!)
================================================================================

cite the ECPs for Zr [Def2-ECP] as follows:
Ce-Yb(ecp-28): M. Dolg, H. Stoll, H.Preuss, J. Chem. Phys., 1989, 90, 1730-1734.
Y-Cd(ecp-28), Hf-Hg(ecp-46): D. Andrae,U. Haeussermann, M. Dolg, H. Stoll, H. Preuss, Theor. Chim. Acta, 1990, 77, 123-141.
In-Sb(ecp-28), Tl-Bi(ecp-46): B. Metz, H. Stoll, M. Dolg, J. Chem. Phys., 2000, 113, 2563-2569.
Te-Xe(ecp-28), Po-Rn(ecp-46): K. A. Peterson, D. Figgen, E. Goll, H. Stoll, M. Dolg, J. Chem. Phys., 2003, 119, 11113-11123.
Rb(ecp-28), Cs(ecp-46): T. Leininger, A. Nicklass, W. Kuechle, H. Stoll, M. Dolg, A. Bergner, Chem. Phys. Lett., 1996, 255, 274-280.
Sr(ecp-28), Ba(ecp-46): M. Kaupp, P. V. Schleyer, H. Stoll and H. Preuss, J. Chem. Phys., 1991, 94, 1360-1366.
La(ecp-46): M. Dolg, H. Stoll, A. Savin, H. Preuss, Theor. Chim. Acta, 1989, 75, 173-194.
Lu(ecp-28): X. Cao, M. Dolg, J. Chem. Phys., 2001, 115, 7348-7355.

ECP parameters for Zr [Def2-ECP] have been obtained from:
TURBOMOLE (7.0.2)

----- Orbital basis set information -----
Your calculation utilizes the basis: def2-SV(P)
   F. Weigend and R. Ahlrichs, Phys. Chem. Chem. Phys. 7, 3297 (2005).

----- AuxJ basis set information -----
Your calculation utilizes the auxiliary basis: def2/J
   H-Rn: F. Weigend, Phys. Chem. Chem. Phys. 8, 1057 (2006).
   Fr-Lr: K. Eichkorn, F. Weigend, O. Treutler, R. Ahlrichs; Theor. Chem. Acc. 97, 119 (1997).

================================================================================
                                        WARNINGS
                       Please study these warnings very carefully!
================================================================================


WARNING: Gradients are needed
  ===> : At least TightSCF should be used for SCF convergence

WARNING: Geometry Optimization
  ===> : Switching off AutoStart
         For restart on a previous wavefunction, please use MOREAD

================================================================================
                                       INPUT FILE
================================================================================
NAME = run.inp
|  1> # Geometry optimization for (AlH3)n cluster
|  2> 
|  3> %pal nprocs 24  end
|  4> 
|  5> %geom MaxIter 500 end
|  6> 
|  7> 
|  8> ! PBE def2-SV(P)
|  9> ! RKS	# closed shell for AlH3
| 10> ! D3    #  dispersion correction
| 11> ! gCP(DFT/SV(P))
| 12> ! Freq 	# Frequency analysis to check the stabiltity of the structures
| 13> 
| 14> ! NoPop # population analysis not necessary	
| 15> 
| 16> ! DEFGRID2
| 17> ! NormalSCF
| 18> ! SloppyOpt
| 19> 
| 20> ! SmallPrint
| 21> 
| 22> 
| 23> * xyzFile 0 1 start.xyz # only maingroup elements H and Al so there should be no net spin
| 24> 
| 25>                          ****END OF INPUT****
================================================================================

                       *****************************
                       * Geometry Optimization Run *
                       *****************************

Geometry optimization settings:
Update method            Update   .... BFGS
Choice of coordinates    CoordSys .... (2022) Redundant Internals
Initial Hessian          InHess   .... Almloef's Model
Max. no of cycles        MaxIter  .... 500

Convergence Tolerances:
Energy Change            TolE     ....  8.0000e-05 Eh
Max. Gradient            TolMAXG  ....  5.0000e-03 Eh/bohr
RMS Gradient             TolRMSG  ....  1.0000e-03 Eh/bohr
Max. Displacement        TolMAXD  ....  3.0000e-02 bohr
RMS Displacement         TolRMSD  ....  2.0000e-02 bohr
Strict Convergence                .... False

------------------------------------------------------------------------------
                        ORCA OPTIMIZATION COORDINATE SETUP
------------------------------------------------------------------------------

The optimization will be done in redundant internal coordinates (2022)
Making redundant internal coordinates   ...  (2022 redundants) done
Evaluating the initial hessian          ...  (Almloef) done
Evaluating the coordinates              ...  done
Calculating the B-matrix                .... done
Calculating the G-matrix                .... done
The number of degrees of freedom        ....  619

    -----------------------------------------------------------------
                    Redundant Internal Coordinates


    -----------------------------------------------------------------
         Definition                    Initial Value    Approx d2E/dq
    -----------------------------------------------------------------
      1. B(Zr  2,Zr  1)                  3.4231         0.036503   
      2. B(Zr  3,Zr  0)                  3.4210         0.036786   
      3. B(Zr  4,Zr  1)                  3.4236         0.036432   
      4. B(Zr  4,Zr  3)                  3.4211         0.036772   
      5. B(Zr  5,Zr  2)                  3.4216         0.036709   
      6. B(Zr  5,Zr  0)                  3.4200         0.036913   
      7. B(O   6,Zr  0)                  2.0971         0.421566   
      8. B(O   6,Zr  3)                  2.1422         0.357184   
      9. B(O   6,Zr  5)                  2.1279         0.376532   
     10. B(O   7,Zr  2)                  2.1473         0.350623   
     11. B(O   7,Zr  1)                  2.0976         0.420859   
     12. B(O   7,Zr  4)                  2.1335         0.368864   
     13. B(O   8,Zr  5)                  2.1460         0.352221   
     14. B(O   8,Zr  2)                  2.0971         0.421517   
     15. B(O   8,Zr  1)                  2.1316         0.371429   
     16. B(O   9,Zr  4)                  2.1424         0.356938   
     17. B(O   9,Zr  3)                  2.0984         0.419619   
     18. B(O   9,Zr  0)                  2.1293         0.374500   
     19. B(O  10,Zr  3)                  2.1296         0.374123   
     20. B(O  10,Zr  4)                  2.0993         0.418165   
     21. B(O  10,Zr  1)                  2.1416         0.358035   
     22. B(O  11,Zr  0)                  2.1456         0.352824   
     23. B(O  11,Zr  5)                  2.0994         0.418011   
     24. B(O  11,Zr  2)                  2.1288         0.375271   
     25. B(O  12,Zr  0)                  1.9687         0.675632   
     26. B(O  13,Zr  0)                  1.9772         0.654770   
     27. B(O  14,Zr  0)                  2.0689         0.467644   
     28. B(O  15,Zr  0)                  2.0389         0.522040   
     29. B(O  16,Zr  1)                  2.0387         0.522409   
     30. B(O  17,Zr  1)                  2.0730         0.460530   
     31. B(O  18,Zr  1)                  1.9765         0.656529   
     32. B(O  19,Zr  1)                  1.9672         0.679500   
     33. B(O  20,Zr  2)                  1.9789         0.650701   
     34. B(O  21,Zr  2)                  2.0399         0.520190   
     35. B(O  22,Zr  2)                  1.9668         0.680489   
     36. B(O  23,Zr  2)                  2.0687         0.467905   
     37. B(O  24,Zr  3)                  2.0719         0.462490   
     38. B(O  25,Zr  3)                  1.9692         0.674406   
     39. B(O  26,Zr  3)                  2.0372         0.525376   
     40. B(O  27,Zr  3)                  1.9774         0.654332   
     41. B(O  28,Zr  4)                  1.9703         0.671580   
     42. B(O  29,Zr  4)                  2.0741         0.458780   
     43. B(O  30,Zr  4)                  1.9769         0.655500   
     44. B(O  31,Zr  4)                  2.0360         0.527711   
     45. B(O  32,Zr  5)                  2.0407         0.518548   
     46. B(O  33,Zr  5)                  1.9768         0.655755   
     47. B(O  34,Zr  5)                  2.0700         0.465731   
     48. B(O  35,Zr  5)                  1.9687         0.675527   
     49. B(C  36,O  33)                  1.2983         0.783889   
     50. B(C  36,O  12)                  1.2981         0.784380   
     51. B(C  37,O  13)                  1.2982         0.783989   
     52. B(C  37,O  25)                  1.2980         0.784477   
     53. B(C  38,O  14)                  1.2991         0.781583   
     54. B(C  38,O  21)                  1.2969         0.787788   
     55. B(C  39,O  29)                  1.2992         0.781084   
     56. B(C  39,O  15)                  1.2971         0.787328   
     57. B(C  40,O  34)                  1.2991         0.781478   
     58. B(C  40,O  16)                  1.2969         0.787736   
     59. B(C  41,O  26)                  1.2969         0.787748   
     60. B(C  41,O  17)                  1.2990         0.781722   
     61. B(C  42,O  22)                  1.2981         0.784219   
     62. B(C  42,O  18)                  1.2982         0.784046   
     63. B(C  43,O  19)                  1.2980         0.784718   
     64. B(C  43,O  30)                  1.2982         0.784046   
     65. B(C  44,O  35)                  1.2980         0.784479   
     66. B(C  44,O  20)                  1.2983         0.783814   
     67. B(C  45,O  31)                  1.2970         0.787356   
     68. B(C  45,O  23)                  1.2989         0.782005   
     69. B(C  46,O  32)                  1.2972         0.786918   
     70. B(C  46,O  24)                  1.2994         0.780661   
     71. B(C  47,O  28)                  1.2980         0.784678   
     72. B(C  47,O  27)                  1.2981         0.784187   
     73. B(H  48,C  41)                  1.0866         0.364580   
     74. B(H  49,C  42)                  1.0900         0.360139   
     75. B(H  50,C  38)                  1.0867         0.364548   
     76. B(H  51,C  37)                  1.0898         0.360339   
     77. B(H  52,C  43)                  1.0898         0.360370   
     78. B(H  53,C  47)                  1.0898         0.360373   
     79. B(H  54,C  39)                  1.0867         0.364467   
     80. B(H  55,C  45)                  1.0867         0.364514   
     81. B(H  56,C  40)                  1.0868         0.364424   
     82. B(H  57,C  46)                  1.0868         0.364343   
     83. B(H  58,C  36)                  1.0898         0.360302   
     84. B(H  59,C  44)                  1.0898         0.360312   
     85. B(Al 60,C  42)                  3.5927         0.010000   
     86. B(Al 60,H  49)                  3.5809         0.010000   
     87. B(Al 60,C  43)                  3.5803         0.010000   
     88. B(Al 60,O  31)                  3.4230         0.010000   
     89. B(Al 60,C  45)                  3.6366         0.010000   
     90. B(H  61,C  42)                  3.1988         0.010000   
     91. B(H  61,H  52)                  3.1735         0.010000   
     92. B(H  61,C  43)                  3.1503         0.010000   
     93. B(H  61,H  49)                  3.1053         0.010000   
     94. B(H  61,O  19)                  3.0530         0.010000   
     95. B(H  61,O  18)                  2.9124         0.010000   
     96. B(H  61,Al 60)                  1.5965         0.392618   
     97. B(H  62,H  55)                  3.5264         0.010000   
     98. B(H  62,C  45)                  3.4887         0.010000   
     99. B(H  62,H  52)                  3.2067         0.010000   
    100. B(H  62,C  43)                  3.1850         0.010000   
    101. B(H  62,O  30)                  2.9755         0.010000   
    102. B(H  62,O  31)                  2.8374         0.010000   
    103. B(H  62,Al 60)                  1.5968         0.392195   
    104. B(H  63,O  23)                  3.4007         0.010000   
    105. B(H  63,O  31)                  3.3616         0.010000   
    106. B(H  63,O  22)                  3.2055         0.010000   
    107. B(H  63,C  42)                  3.1068         0.010000   
    108. B(H  63,H  49)                  3.0401         0.010000   
    109. B(H  63,C  45)                  2.9742         0.010000   
    110. B(H  63,H  55)                  2.8673         0.010000   
    111. B(H  63,Al 60)                  1.5967         0.392284   
    112. A(O   6,Zr  0,O  12)           95.6501         0.514071   
    113. A(Zr  3,Zr  0,O  13)           73.0123         0.361068   
    114. A(O  12,Zr  0,O  14)           81.3286         0.524169   
    115. A(O   9,Zr  0,O  14)          112.2716         0.469765   
    116. A(O   6,Zr  0,O  14)          137.9743         0.480105   
    117. A(Zr  5,Zr  0,O  12)           74.7944         0.363220   
    118. A(Zr  5,Zr  0,O  15)          159.7493         0.347671   
    119. A(O  14,Zr  0,O  15)           74.6391         0.499494   
    120. A(O  12,Zr  0,O  13)           83.0958         0.558615   
    121. A(Zr  3,Zr  0,O  14)          144.2742         0.341111   
    122. A(O   9,Zr  0,O  13)           92.3979         0.499905   
    123. A(Zr  3,Zr  0,O   9)           35.6799         0.328750   
    124. A(O  11,Zr  0,O  12)           82.0339         0.497285   
    125. A(Zr  5,Zr  0,O   9)           91.1611         0.328937   
    126. A(O   6,Zr  0,O  11)           67.0714         0.455944   
    127. A(O  13,Zr  0,O  14)          137.8711         0.521091   
    128. A(Zr  3,Zr  0,O   6)           36.6480         0.335261   
    129. A(Zr  5,Zr  0,O  13)          108.6126         0.361280   
    130. A(O  11,Zr  0,O  15)          132.2175         0.474135   
    131. A(O  13,Zr  0,O  15)           82.5541         0.531987   
    132. A(Zr  5,Zr  0,O   6)           36.2577         0.335453   
    133. A(O   9,Zr  0,O  15)           71.1061         0.479367   
    134. A(O   9,Zr  0,O  11)           92.3742         0.446242   
    135. A(Zr  3,Zr  0,O  12)          127.7980         0.363006   
    136. A(O   6,Zr  0,O   9)           67.3042         0.460930   
    137. A(Zr  3,Zr  0,O  15)           98.1772         0.347469   
    138. A(O   6,Zr  0,O  13)           82.3261         0.511064   
    139. A(Zr  3,Zr  0,O  11)           91.1039         0.325537   
    140. A(Zr  5,Zr  0,O  11)           35.8692         0.325721   
    141. A(Zr  5,Zr  0,O  14)          104.5979         0.341308   
    142. A(Zr  3,Zr  0,Zr  5)           70.3202         0.247867   
    143. A(O   6,Zr  0,O  15)          134.8247         0.489969   
    144. A(O  12,Zr  0,O  15)          124.2766         0.535143   
    145. A(O   9,Zr  0,O  12)          162.8549         0.502832   
    146. A(O  11,Zr  0,O  14)           71.0150         0.464661   
    147. A(O  11,Zr  0,O  13)          144.2423         0.494397   
    148. A(Zr  4,Zr  1,O  19)           74.7421         0.362761   
    149. A(O  17,Zr  1,O  18)          137.2622         0.519856   
    150. A(O  10,Zr  1,O  17)           70.9448         0.464604   
    151. A(O   7,Zr  1,O  18)           82.7270         0.511160   
    152. A(O  16,Zr  1,O  17)           74.5546         0.498138   
    153. A(O   7,Zr  1,O   8)           67.4865         0.460096   
    154. A(Zr  2,Zr  1,Zr  4)           70.3017         0.247121   
    155. A(Zr  2,Zr  1,O  10)           90.9448         0.325910   
    156. A(O   8,Zr  1,O  10)           92.2480         0.446762   
    157. A(Zr  2,Zr  1,O   8)           35.6170         0.327887   
    158. A(Zr  4,Zr  1,O   8)           91.0928         0.327781   
    159. A(O  16,Zr  1,O  19)          124.5622         0.535791   
    160. A(O  10,Zr  1,O  16)          131.4504         0.475477   
    161. A(O   7,Zr  1,O  17)          138.0655         0.478603   
    162. A(O  16,Zr  1,O  18)           82.1958         0.532327   
    163. A(O   7,Zr  1,O  10)           67.1613         0.457024   
    164. A(Zr  2,Zr  1,O   7)           36.7478         0.334739   
    165. A(Zr  4,Zr  1,O  10)           35.7526         0.325805   
    166. A(Zr  4,Zr  1,O  17)          104.2043         0.339690   
    167. A(O  10,Zr  1,O  18)          145.2710         0.495992   
    168. A(Zr  4,Zr  1,O   7)           36.3394         0.334630   
    169. A(O   7,Zr  1,O  16)          135.2665         0.489880   
    170. A(O  17,Zr  1,O  19)           81.0962         0.523223   
    171. A(O  10,Zr  1,O  19)           82.4132         0.499172   
    172. A(O   8,Zr  1,O  17)          113.1299         0.467740   
    173. A(Zr  2,Zr  1,O  18)           73.0070         0.360759   
    174. A(Zr  4,Zr  1,O  16)          159.2908         0.346946   
    175. A(O   8,Zr  1,O  18)           91.7407         0.499389   
    176. A(O  18,Zr  1,O  19)           83.4595         0.559508   
    177. A(Zr  2,Zr  1,O  19)          127.2786         0.362882   
    178. A(Zr  4,Zr  1,O  18)          109.6947         0.360639   
    179. A(O   7,Zr  1,O  19)           95.0195         0.514459   
    180. A(O   8,Zr  1,O  16)           71.1631         0.478703   
    181. A(Zr  2,Zr  1,O  17)          144.9140         0.339801   
    182. A(O   8,Zr  1,O  19)          162.3616         0.502596   
    183. A(Zr  2,Zr  1,O  16)           98.5187         0.347060   
    184. A(O  11,Zr  2,O  23)          113.0289         0.469990   
    185. A(O   7,Zr  2,O   8)           67.2049         0.455415   
    186. A(Zr  5,Zr  2,O  23)          144.9656         0.341024   
    187. A(Zr  5,Zr  2,O   8)           36.7441         0.335138   
    188. A(Zr  1,Zr  2,Zr  5)           70.3679         0.247391   
    189. A(O  20,Zr  2,O  23)          137.4617         0.520536   
    190. A(O   7,Zr  2,O  21)          131.7202         0.473281   
    191. A(O  22,Zr  2,O  23)           81.8141         0.524930   
    192. A(O  21,Zr  2,O  23)           74.5321         0.499216   
    193. A(O  21,Zr  2,O  22)          124.6352         0.535508   
    194. A(O  11,Zr  2,O  21)           71.1388         0.479235   
    195. A(Zr  1,Zr  2,O  22)           74.7119         0.362973   
    196. A(O  11,Zr  2,O  22)          161.9833         0.503697   
    197. A(O   8,Zr  2,O  22)           94.7769         0.514750   
    198. A(O   8,Zr  2,O  11)           67.4310         0.461093   
    199. A(O  20,Zr  2,O  21)           82.3450         0.531007   
    200. A(O  20,Zr  2,O  22)           82.7918         0.558714   
    201. A(Zr  1,Zr  2,O   8)           36.2938         0.334826   
    202. A(O   7,Zr  2,O  23)           70.8932         0.464177   
    203. A(O   7,Zr  2,O  22)           82.4353         0.497369   
    204. A(Zr  5,Zr  2,O  11)           35.6915         0.328748   
    205. A(Zr  1,Zr  2,O  23)          104.3103         0.340704   
    206. A(O   7,Zr  2,O  11)           92.6277         0.445903   
    207. A(O  11,Zr  2,O  20)           91.7279         0.499517   
    208. A(O   8,Zr  2,O  21)          135.1976         0.489636   
    209. A(Zr  5,Zr  2,O  21)           98.4537         0.347139   
    210. A(Zr  1,Zr  2,O  21)          159.3842         0.346812   
    211. A(Zr  1,Zr  2,O   7)           35.7638         0.324791   
    212. A(Zr  1,Zr  2,O  11)           91.1427         0.328444   
    213. A(O   8,Zr  2,O  23)          138.0345         0.480145   
    214. A(O   8,Zr  2,O  20)           82.5895         0.510458   
    215. A(O   7,Zr  2,O  20)          144.9337         0.493253   
    216. A(Zr  5,Zr  2,O  20)           72.7414         0.360555   
    217. A(Zr  5,Zr  2,O   7)           91.3261         0.325090   
    218. A(Zr  5,Zr  2,O  22)          126.7402         0.363320   
    219. A(Zr  1,Zr  2,O  20)          109.3920         0.360211   
    220. A(O   6,Zr  3,O  10)           92.1714         0.447155   
    221. A(O   9,Zr  3,O  10)           67.3076         0.460455   
    222. A(Zr  4,Zr  3,O  10)           35.7067         0.328675   
    223. A(O  24,Zr  3,O  25)           81.1759         0.522900   
    224. A(O  26,Zr  3,O  27)           82.5756         0.532559   
    225. A(O   9,Zr  3,O  25)           95.5142         0.513451   
    226. A(O   6,Zr  3,O  24)           70.9657         0.464763   
    227. A(Zr  0,Zr  3,O  27)          108.7346         0.361027   
    228. A(O  25,Zr  3,O  27)           83.0533         0.558351   
    229. A(O  24,Zr  3,O  27)          137.8252         0.519943   
    230. A(O   9,Zr  3,O  27)           82.3203         0.510558   
    231. A(O   6,Zr  3,O  27)          144.2539         0.495464   
    232. A(Zr  4,Zr  3,O  27)           73.0454         0.361003   
    233. A(O  10,Zr  3,O  27)           92.5394         0.499749   
    234. A(O   9,Zr  3,O  26)          134.9066         0.490126   
    235. A(O  25,Zr  3,O  26)          124.3193         0.535603   
    236. A(O  24,Zr  3,O  26)           74.7839         0.499056   
    237. A(O  10,Zr  3,O  26)           71.2267         0.479841   
    238. A(O   6,Zr  3,O  26)          132.1776         0.475764   
    239. A(Zr  4,Zr  3,O  26)           98.2454         0.347820   
    240. A(Zr  0,Zr  3,O  26)          159.6704         0.347842   
    241. A(O   6,Zr  3,O   9)           67.0457         0.456580   
    242. A(O  10,Zr  3,O  25)          162.7363         0.502568   
    243. A(O   6,Zr  3,O  25)           82.0724         0.498254   
    244. A(Zr  4,Zr  3,O   9)           36.6619         0.334982   
    245. A(Zr  0,Zr  3,O  25)           74.7949         0.362893   
    246. A(Zr  0,Zr  3,O   9)           36.2893         0.335003   
    247. A(Zr  4,Zr  3,O   6)           91.0275         0.326175   
    248. A(Zr  4,Zr  3,O  24)          144.4349         0.340458   
    249. A(O   9,Zr  3,O  24)          137.9219         0.478717   
    250. A(Zr  0,Zr  3,O   6)           35.7555         0.326195   
    251. A(O  10,Zr  3,O  24)          112.4207         0.468725   
    252. A(Zr  0,Zr  3,Zr  4)           70.3065         0.247730   
    253. A(Zr  4,Zr  3,O  25)          127.6960         0.362870   
    254. A(Zr  0,Zr  3,O  10)           91.0090         0.328696   
    255. A(Zr  0,Zr  3,O  24)          104.3914         0.340480   
    256. A(Zr  1,Zr  4,Zr  3)           70.3849         0.247383   
    257. A(O   9,Zr  4,O  10)           67.0563         0.456234   
    258. A(O   7,Zr  4,O  10)           67.2794         0.458976   
    259. A(Zr  3,Zr  4,O  10)           36.3032         0.334789   
    260. A(O  10,Zr  4,O  28)           95.6334         0.512715   
    261. A(O   9,Zr  4,O  29)           70.8439         0.464020   
    262. A(O  28,Zr  4,O  30)           82.8018         0.558095   
    263. A(O   7,Zr  4,O  31)           71.1268         0.478982   
    264. A(O  29,Zr  4,O  31)           74.4214         0.498720   
    265. A(O  30,Zr  4,O  31)           83.2120         0.533184   
    266. A(O  28,Zr  4,O  31)          124.1975         0.535627   
    267. A(O  10,Zr  4,O  31)          135.1934         0.490214   
    268. A(O   9,Zr  4,O  31)          131.8055         0.476092   
    269. A(Zr  3,Zr  4,O  31)          159.6295         0.348080   
    270. A(Zr  1,Zr  4,O  31)           98.6079         0.347536   
    271. A(O  29,Zr  4,O  30)          137.7772         0.519332   
    272. A(O  10,Zr  4,O  30)           82.3864         0.510397   
    273. A(O   9,Zr  4,O  30)          144.1014         0.495565   
    274. A(O   7,Zr  4,O  30)           92.0942         0.498601   
    275. A(Zr  3,Zr  4,O  30)          108.5827         0.361113   
    276. A(Zr  1,Zr  4,O  30)           72.9706         0.360542   
    277. A(O  28,Zr  4,O  29)           81.0267         0.521699   
    278. A(O  10,Zr  4,O  29)          137.8069         0.477702   
    279. A(O   7,Zr  4,O  29)          112.9943         0.466820   
    280. A(Zr  3,Zr  4,O  29)          104.3011         0.340000   
    281. A(Zr  1,Zr  4,O  29)          144.7373         0.339474   
    282. A(O   9,Zr  4,O  28)           81.9712         0.497801   
    283. A(O   7,Zr  4,O  28)          162.7358         0.500854   
    284. A(Zr  3,Zr  4,O  28)           74.7632         0.362610   
    285. A(O   7,Zr  4,O   9)           92.9428         0.445954   
    286. A(Zr  1,Zr  4,O  28)          127.5789         0.362036   
    287. A(Zr  3,Zr  4,O   9)           35.7901         0.326138   
    288. A(Zr  1,Zr  4,O   9)           91.2788         0.325640   
    289. A(Zr  3,Zr  4,O   7)           91.4416         0.327909   
    290. A(Zr  1,Zr  4,O   7)           35.6334         0.327407   
    291. A(Zr  1,Zr  4,O  10)           36.5874         0.334273   
    292. A(O  11,Zr  5,O  35)           95.9759         0.513242   
    293. A(O   6,Zr  5,O   8)           92.5819         0.446542   
    294. A(O  34,Zr  5,O  35)           81.2604         0.523750   
    295. A(O  33,Zr  5,O  35)           83.0447         0.558759   
    296. A(O  32,Zr  5,O  35)          124.0839         0.534450   
    297. A(O   8,Zr  5,O  35)           81.7958         0.497113   
    298. A(O   6,Zr  5,O  35)          163.2488         0.503325   
    299. A(Zr  2,Zr  5,O  35)           74.9807         0.362866   
    300. A(O  33,Zr  5,O  34)          137.9073         0.520837   
    301. A(O  32,Zr  5,O  34)           74.5590         0.498491   
    302. A(O  11,Zr  5,O  34)          138.0683         0.478995   
    303. A(Zr  0,Zr  5,O  35)          128.2551         0.363210   
    304. A(O  32,Zr  5,O  33)           82.6601         0.531465   
    305. A(O   6,Zr  5,O  34)          111.9595         0.469878   
    306. A(Zr  2,Zr  5,O  34)          104.7636         0.340758   
    307. A(Zr  0,Zr  5,O  34)          144.0758         0.341074   
    308. A(O  11,Zr  5,O  33)           82.2351         0.510399   
    309. A(O   8,Zr  5,O  33)          143.9004         0.494378   
    310. A(O   6,Zr  5,O  33)           92.6426         0.500549   
    311. A(Zr  0,Zr  5,O  33)           73.0444         0.361373   
    312. A(O  11,Zr  5,O  32)          134.6991         0.488593   
    313. A(O   8,Zr  5,O  32)          132.5188         0.473401   
    314. A(O   6,Zr  5,O  32)           70.9944         0.479252   
    315. A(Zr  2,Zr  5,O  32)          159.7780         0.346955   
    316. A(Zr  0,Zr  5,O  32)           97.9145         0.347278   
    317. A(Zr  2,Zr  5,O   6)           91.2118         0.328930   
    318. A(Zr  0,Zr  5,O   6)           35.6527         0.329231   
    319. A(Zr  0,Zr  5,Zr  2)           70.4754         0.247792   
    320. A(O   8,Zr  5,O  34)           71.1422         0.464167   
    321. A(O   8,Zr  5,O  11)           67.0740         0.455100   
    322. A(O   6,Zr  5,O  11)           67.3557         0.460672   
    323. A(Zr  2,Zr  5,O  11)           36.2692         0.334673   
    324. A(Zr  0,Zr  5,O  11)           36.7853         0.334982   
    325. A(Zr  2,Zr  5,O  33)          108.4139         0.361031   
    326. A(Zr  2,Zr  5,O   8)           35.7757         0.325333   
    327. A(Zr  0,Zr  5,O   8)           91.3317         0.325630   
    328. A(Zr  3,O   6,Zr  5)          134.6137         0.447676   
    329. A(Zr  0,O   6,Zr  5)          108.0896         0.461385   
    330. A(Zr  0,O   6,Zr  3)          107.5966         0.456966   
    331. A(Zr  2,O   7,Zr  4)          134.0986         0.444515   
    332. A(Zr  1,O   7,Zr  4)          108.0272         0.459514   
    333. A(Zr  1,O   7,Zr  2)          107.4885         0.455286   
    334. A(Zr  1,O   8,Zr  2)          108.0892         0.460227   
    335. A(Zr  2,O   8,Zr  5)          107.4802         0.455792   
    336. A(Zr  1,O   8,Zr  5)          134.4381         0.445439   
    337. A(Zr  3,O   9,Zr  4)          107.5481         0.456523   
    338. A(Zr  0,O   9,Zr  4)          134.5025         0.447181   
    339. A(Zr  0,O   9,Zr  3)          108.0308         0.460540   
    340. A(Zr  3,O  10,Zr  4)          107.9901         0.460164   
    341. A(Zr  1,O  10,Zr  4)          107.6600         0.456489   
    342. A(Zr  1,O  10,Zr  3)          134.9108         0.447348   
    343. A(Zr  2,O  11,Zr  5)          108.0392         0.460390   
    344. A(Zr  0,O  11,Zr  5)          107.3455         0.455241   
    345. A(Zr  0,O  11,Zr  2)          134.8905         0.446409   
    346. A(Zr  0,O  12,C  36)          131.1506         0.511564   
    347. A(Zr  0,O  13,C  37)          133.4120         0.508527   
    348. A(Zr  0,O  14,C  38)          140.1033         0.477484   
    349. A(Zr  0,O  15,C  39)          128.8245         0.487942   
    350. A(Zr  1,O  16,C  40)          129.0203         0.488053   
    351. A(Zr  1,O  17,C  41)          140.2314         0.476155   
    352. A(Zr  1,O  18,C  42)          133.3728         0.508789   
    353. A(Zr  1,O  19,C  43)          131.3065         0.512152   
    354. A(Zr  2,O  20,C  44)          133.6410         0.507915   
    355. A(Zr  2,O  21,C  38)          129.1762         0.487674   
    356. A(Zr  2,O  22,C  42)          131.2381         0.512230   
    357. A(Zr  2,O  23,C  45)          140.7159         0.477581   
    358. A(Zr  3,O  24,C  46)          139.8267         0.476408   
    359. A(Zr  3,O  25,C  37)          131.1340         0.511402   
    360. A(Zr  3,O  26,C  41)          129.2188         0.488566   
    361. A(Zr  3,O  27,C  47)          133.3813         0.508488   
    362. A(Zr  4,O  28,C  47)          131.1504         0.511025   
    363. A(Zr  4,O  29,C  39)          140.0298         0.475750   
    364. A(Zr  4,O  30,C  43)          133.4252         0.508640   
    365. A(C  45,O  31,Al 60)           88.8763         0.202832   
    366. A(Zr  4,O  31,Al 60)          117.8842         0.209375   
    367. A(Zr  4,O  31,C  45)          129.2411         0.488922   
    368. A(Zr  5,O  32,C  46)          128.6385         0.487290   
    369. A(Zr  5,O  33,C  36)          133.3721         0.508658   
    370. A(Zr  5,O  34,C  40)          139.9190         0.477112   
    371. A(Zr  5,O  35,C  44)          130.7720         0.511561   
    372. A(O  12,C  36,O  33)          127.4956         0.466483   
    373. A(O  33,C  36,H  58)          116.2385         0.365043   
    374. A(O  12,C  36,H  58)          116.2657         0.365082   
    375. A(O  13,C  37,O  25)          127.4851         0.466505   
    376. A(O  25,C  37,H  51)          116.2719         0.365096   
    377. A(O  13,C  37,H  51)          116.2427         0.365057   
    378. A(O  14,C  38,O  21)          129.2807         0.466602   
    379. A(O  21,C  38,H  50)          115.3409         0.366087   
    380. A(O  14,C  38,H  50)          115.3782         0.365591   
    381. A(O  15,C  39,O  29)          129.3119         0.466498   
    382. A(O  29,C  39,H  54)          115.3587         0.365537   
    383. A(O  15,C  39,H  54)          115.3293         0.366036   
    384. A(O  16,C  40,O  34)          129.2709         0.466585   
    385. A(O  34,C  40,H  56)          115.3837         0.365562   
    386. A(O  16,C  40,H  56)          115.3451         0.366061   
    387. A(O  17,C  41,O  26)          129.3308         0.466613   
    388. A(O  26,C  41,H  48)          115.3274         0.366089   
    389. A(O  17,C  41,H  48)          115.3418         0.365608   
    390. A(O  18,C  42,O  22)          127.4685         0.466483   
    391. A(H  49,C  42,Al 60)           80.6489         0.163497   
    392. A(O  22,C  42,Al 60)          103.7473         0.190880   
    393. A(O  18,C  42,Al 60)           84.4725         0.190874   
    394. A(O  22,C  42,H  49)          116.2623         0.365041   
    395. A(O  18,C  42,H  49)          116.2689         0.365027   
    396. A(H  52,C  43,Al 60)           87.8830         0.164279   
    397. A(O  30,C  43,Al 60)           88.2584         0.191928   
    398. A(O  19,C  43,Al 60)           93.3695         0.191948   
    399. A(O  30,C  43,H  52)          116.2634         0.365067   
    400. A(O  19,C  43,H  52)          116.2816         0.365121   
    401. A(O  19,C  43,O  30)          127.4543         0.466537   
    402. A(O  35,C  44,H  59)          116.2821         0.365091   
    403. A(O  20,C  44,H  59)          116.2513         0.365038   
    404. A(O  20,C  44,O  35)          127.4665         0.466486   
    405. A(H  55,C  45,Al 60)           84.9144         0.161022   
    406. A(O  23,C  45,Al 60)          114.1355         0.187162   
    407. A(O  31,C  45,Al 60)           70.2326         0.187314   
    408. A(O  31,C  45,H  55)          115.3474         0.366046   
    409. A(O  23,C  45,H  55)          115.3450         0.365619   
    410. A(O  23,C  45,O  31)          129.3064         0.466601   
    411. A(O  32,C  46,H  57)          115.3133         0.365982   
    412. A(O  24,C  46,H  57)          115.3441         0.365482   
    413. A(O  24,C  46,O  32)          129.3423         0.466407   
    414. A(O  28,C  47,H  53)          116.2701         0.365118   
    415. A(O  27,C  47,H  53)          116.2424         0.365079   
    416. A(O  27,C  47,O  28)          127.4872         0.466548   
    417. A(C  42,Al 60,C  45)           68.5190         0.115509   
    418. A(C  43,Al 60,C  45)           79.2350         0.115783   
    419. A(O  31,Al 60,C  45)           20.8911         0.118592   
    420. A(C  45,Al 60,H  63)           53.3706         0.175488   
    421. A(C  45,Al 60,H  62)           71.9217         0.175484   
    422. A(C  45,Al 60,H  61)          121.9678         0.175505   
    423. A(C  42,Al 60,C  43)           77.8338         0.116779   
    424. A(O  31,Al 60,C  42)           77.1217         0.119693   
    425. A(C  42,Al 60,H  63)           59.6035         0.178706   
    426. A(C  42,Al 60,H  62)          128.1402         0.178702   
    427. A(C  42,Al 60,H  61)           62.9102         0.178723   
    428. A(O  31,Al 60,C  43)           61.4562         0.120011   
    429. A(C  43,Al 60,H  63)          124.0586         0.179634   
    430. A(C  43,Al 60,H  62)           62.8119         0.179629   
    431. A(C  43,Al 60,H  61)           61.5670         0.179651   
    432. A(O  31,Al 60,H  63)           74.2551         0.189140   
    433. A(O  31,Al 60,H  62)           55.3447         0.189135   
    434. A(O  31,Al 60,H  61)          115.0532         0.189159   
    435. A(H  62,Al 60,H  63)          116.9926         0.381663   
    436. A(H  61,Al 60,H  63)          117.2405         0.381734   
    437. A(H  61,Al 60,H  62)          117.0271         0.381719   
    438. D(O   7,Zr  2,Zr  1,Zr  4)    -18.0905         0.010000   
    439. D(Zr  5,Zr  2,Zr  1,Zr  4)    104.4094         0.010000   
    440. D(Zr  5,Zr  2,Zr  1,O   7)    122.4999         0.010000   
    441. D(Zr  4,Zr  3,Zr  0,Zr  5)   -104.5365         0.010000   
    442. D(O   6,Zr  3,Zr  0,Zr  5)     17.4475         0.010000   
    443. D(Zr  4,Zr  3,Zr  0,O   6)   -121.9840         0.010000   
    444. D(O   7,Zr  4,Zr  3,Zr  0)     75.3868         0.010000   
    445. D(Zr  3,Zr  4,Zr  1,O   7)   -122.8895         0.010000   
    446. D(Zr  1,Zr  4,Zr  3,O   6)     74.9700         0.010000   
    447. D(O   7,Zr  4,Zr  1,Zr  2)     18.2715         0.010000   
    448. D(Zr  3,Zr  4,Zr  1,Zr  2)   -104.6180         0.010000   
    449. D(Zr  1,Zr  4,Zr  3,Zr  0)    104.6862         0.010000   
    450. D(O   6,Zr  5,Zr  0,Zr  3)    -17.6144         0.010000   
    451. D(Zr  2,Zr  5,Zr  0,O   6)    122.1975         0.010000   
    452. D(Zr  0,Zr  5,Zr  2,Zr  1)   -104.5871         0.010000   
    453. D(Zr  2,Zr  5,Zr  0,Zr  3)    104.5831         0.010000   
    454. D(O   6,Zr  5,Zr  2,Zr  1)    -75.0265         0.010000   
    455. D(Zr  0,Zr  5,Zr  2,O   7)    -75.0460         0.010000   
    456. D(Zr  5,O   6,Zr  3,Zr  0)   -140.3992         0.010000   
    457. D(Zr  0,O   6,Zr  5,Zr  2)    -52.9144         0.010000   
    458. D(Zr  0,O   6,Zr  3,O   9)     24.5162         0.010000   
    459. D(Zr  5,O   6,Zr  0,Zr  3)    151.4870         0.010000   
    460. D(Zr  3,O   6,Zr  5,Zr  0)    140.2676         0.010000   
    461. D(Zr  3,O   6,Zr  0,O   9)    -24.0881         0.010000   
    462. D(Zr  0,O   6,Zr  5,O   8)    -88.6849         0.010000   
    463. D(Zr  0,O   6,Zr  3,Zr  4)     53.0073         0.010000   
    464. D(Zr  3,O   6,Zr  0,Zr  5)   -151.4870         0.010000   
    465. D(Zr  1,O   7,Zr  2,Zr  5)    -52.6155         0.010000   
    466. D(Zr  2,O   7,Zr  1,O   8)     23.6911         0.010000   
    467. D(Zr  4,O   7,Zr  1,Zr  2)   -150.4385         0.010000   
    468. D(Zr  2,O   7,Zr  1,Zr  4)    150.4385         0.010000   
    469. D(Zr  2,O   7,Zr  4,Zr  1)   -139.0625         0.010000   
    470. D(Zr  1,O   7,Zr  4,O   9)     88.0883         0.010000   
    471. D(Zr  1,O   7,Zr  4,Zr  3)     52.3016         0.010000   
    472. D(Zr  4,O   7,Zr  2,Zr  1)    139.2117         0.010000   
    473. D(Zr  1,O   7,Zr  2,O   8)    -24.1573         0.010000   
    474. D(Zr  1,O   8,Zr  5,Zr  2)   -139.8823         0.010000   
    475. D(Zr  1,O   8,Zr  5,Zr  0)    -87.0461         0.010000   
    476. D(Zr  1,O   8,Zr  2,O   7)     23.8329         0.010000   
    477. D(Zr  1,O   8,Zr  2,Zr  5)    151.0530         0.010000   
    478. D(Zr  5,O   8,Zr  1,Zr  2)    139.7172         0.010000   
    479. D(Zr  2,O   8,Zr  5,Zr  0)     52.8362         0.010000   
    480. D(Zr  2,O   8,Zr  1,O   7)    -24.3806         0.010000   
    481. D(Zr  5,O   8,Zr  2,Zr  1)   -151.0530         0.010000   
    482. D(Zr  2,O   8,Zr  1,Zr  4)    -52.7334         0.010000   
    483. D(Zr  3,O   9,Zr  4,Zr  1)    -52.7617         0.010000   
    484. D(Zr  0,O   9,Zr  4,Zr  3)    139.9912         0.010000   
    485. D(Zr  0,O   9,Zr  4,Zr  1)     87.2295         0.010000   
    486. D(Zr  4,O   9,Zr  3,Zr  0)    151.1699         0.010000   
    487. D(Zr  0,O   9,Zr  3,O   6)    -24.1839         0.010000   
    488. D(Zr  0,O   9,Zr  3,Zr  4)   -151.1699         0.010000   
    489. D(Zr  4,O   9,Zr  0,Zr  3)   -139.8609         0.010000   
    490. D(Zr  3,O   9,Zr  0,O   6)     24.6885         0.010000   
    491. D(Zr  3,O   9,Zr  0,Zr  5)     52.7186         0.010000   
    492. D(Zr  1,O  10,Zr  4,O   7)    -23.9050         0.010000   
    493. D(Zr  1,O  10,Zr  4,Zr  3)   -151.9323         0.010000   
    494. D(Zr  4,O  10,Zr  3,Zr  0)    -52.9876         0.010000   
    495. D(Zr  1,O  10,Zr  3,Zr  4)    140.7233         0.010000   
    496. D(Zr  1,O  10,Zr  3,Zr  0)     87.7358         0.010000   
    497. D(Zr  4,O  10,Zr  1,Zr  2)     53.1393         0.010000   
    498. D(Zr  3,O  10,Zr  1,Zr  4)   -140.8100         0.010000   
    499. D(Zr  3,O  10,Zr  4,Zr  1)    151.9323         0.010000   
    500. D(Zr  3,O  10,Zr  1,Zr  2)    -87.6707         0.010000   
    501. D(Zr  2,O  11,Zr  5,Zr  0)   -151.5606         0.010000   
    502. D(Zr  0,O  11,Zr  5,Zr  2)    151.5606         0.010000   
    503. D(Zr  5,O  11,Zr  2,Zr  1)     52.8605         0.010000   
    504. D(Zr  0,O  11,Zr  2,Zr  5)   -140.0860         0.010000   
    505. D(Zr  0,O  11,Zr  2,Zr  1)    -87.2255         0.010000   
    506. D(Zr  5,O  11,Zr  0,Zr  3)    -53.0226         0.010000   
    507. D(Zr  0,O  11,Zr  5,O   6)     24.1676         0.010000   
    508. D(Zr  2,O  11,Zr  0,Zr  5)    140.2706         0.010000   
    509. D(Zr  2,O  11,Zr  0,Zr  3)     87.2479         0.010000   
    510. D(C  36,O  12,Zr  0,Zr  5)     -3.6999         0.010000   
    511. D(C  36,O  12,Zr  0,Zr  3)     45.5726         0.010000   
    512. D(C  37,O  13,Zr  0,Zr  5)    -59.0799         0.010000   
    513. D(C  37,O  13,Zr  0,Zr  3)      2.5968         0.010000   
    514. D(C  38,O  14,Zr  0,Zr  5)      4.8460         0.010000   
    515. D(C  38,O  14,Zr  0,Zr  3)    -71.6282         0.010000   
    516. D(C  39,O  15,Zr  0,Zr  5)    -18.2431         0.010000   
    517. D(C  39,O  15,Zr  0,Zr  3)    -71.8410         0.010000   
    518. D(C  40,O  16,Zr  1,Zr  4)     16.0895         0.010000   
    519. D(C  40,O  16,Zr  1,Zr  2)     71.5059         0.010000   
    520. D(C  41,O  17,Zr  1,Zr  4)     -6.6601         0.010000   
    521. D(C  41,O  17,Zr  1,Zr  2)     69.1842         0.010000   
    522. D(C  42,O  18,Zr  1,Zr  4)     59.4540         0.010000   
    523. D(C  42,O  18,Zr  1,Zr  2)     -1.6159         0.010000   
    524. D(C  43,O  19,Zr  1,Zr  4)      2.2742         0.010000   
    525. D(C  43,O  19,Zr  1,Zr  2)    -47.4303         0.010000   
    526. D(C  44,O  20,Zr  2,Zr  1)    -56.4944         0.010000   
    527. D(C  44,O  20,Zr  2,Zr  5)      4.6676         0.010000   
    528. D(C  38,O  21,Zr  2,Zr  5)    -71.2147         0.010000   
    529. D(C  38,O  21,Zr  2,Zr  1)    -15.9380         0.010000   
    530. D(C  42,O  22,Zr  2,Zr  5)     45.6907         0.010000   
    531. D(C  42,O  22,Zr  2,Zr  1)     -4.6153         0.010000   
    532. D(C  45,O  23,Zr  2,Zr  5)    -67.3383         0.010000   
    533. D(C  45,O  23,Zr  2,Zr  1)      8.7656         0.010000   
    534. D(C  46,O  24,Zr  3,Zr  4)     71.7533         0.010000   
    535. D(C  46,O  24,Zr  3,Zr  0)     -4.4022         0.010000   
    536. D(C  37,O  25,Zr  3,Zr  4)    -45.4336         0.010000   
    537. D(C  37,O  25,Zr  3,Zr  0)      3.9216         0.010000   
    538. D(C  41,O  26,Zr  3,Zr  4)     71.5534         0.010000   
    539. D(C  41,O  26,Zr  3,Zr  0)     17.6382         0.010000   
    540. D(C  47,O  27,Zr  3,Zr  4)     -2.6898         0.010000   
    541. D(C  47,O  27,Zr  3,Zr  0)     58.9243         0.010000   
    542. D(C  47,O  28,Zr  4,Zr  3)     -4.0474         0.010000   
    543. D(C  47,O  28,Zr  4,Zr  1)     45.5145         0.010000   
    544. D(C  39,O  29,Zr  4,Zr  3)      5.1926         0.010000   
    545. D(C  39,O  29,Zr  4,Zr  1)    -70.9480         0.010000   
    546. D(C  43,O  30,Zr  4,Zr  3)    -58.7024         0.010000   
    547. D(C  43,O  30,Zr  4,Zr  1)      3.0436         0.010000   
    548. D(Al 60,O  31,Zr  4,Zr  1)     42.3460         0.010000   
    549. D(C  45,O  31,Zr  4,Zr  3)    -16.0438         0.010000   
    550. D(C  45,O  31,Zr  4,Zr  1)    -71.4528         0.010000   
    551. D(C  46,O  32,Zr  5,Zr  2)     19.2879         0.010000   
    552. D(C  46,O  32,Zr  5,Zr  0)     72.5048         0.010000   
    553. D(C  36,O  33,Zr  5,Zr  2)     59.5790         0.010000   
    554. D(C  36,O  33,Zr  5,Zr  0)     -2.4024         0.010000   
    555. D(C  40,O  34,Zr  5,Zr  2)     -4.1015         0.010000   
    556. D(C  40,O  34,Zr  5,Zr  0)     72.8750         0.010000   
    557. D(C  44,O  35,Zr  5,Zr  2)      5.8591         0.010000   
    558. D(C  44,O  35,Zr  5,Zr  0)    -43.4320         0.010000   
    559. D(H  58,C  36,O  33,Zr  5)   -179.0263         0.047134   
    560. D(O  12,C  36,O  33,Zr  5)      0.7976         0.047134   
    561. D(H  58,C  36,O  12,Zr  0)   -176.4646         0.047200   
    562. D(O  33,C  36,O  12,Zr  0)      3.7114         0.047200   
    563. D(H  51,C  37,O  13,Zr  0)    178.9080         0.047147   
    564. D(O  25,C  37,O  13,Zr  0)     -0.9176         0.047147   
    565. D(H  51,C  37,O  25,Zr  3)    176.2748         0.047212   
    566. D(O  13,C  37,O  25,Zr  3)     -3.8997         0.047212   
    567. D(H  50,C  38,O  21,Zr  2)   -161.4654         0.047659   
    568. D(O  14,C  38,O  21,Zr  2)     18.3732         0.047659   
    569. D(H  50,C  38,O  14,Zr  0)   -153.8938         0.046825   
    570. D(O  21,C  38,O  14,Zr  0)     26.2677         0.046825   
    571. D(H  54,C  39,O  29,Zr  4)   -153.9295         0.046758   
    572. D(O  15,C  39,O  29,Zr  4)     26.2261         0.046758   
    573. D(H  54,C  39,O  15,Zr  0)   -161.3267         0.047596   
    574. D(O  29,C  39,O  15,Zr  0)     18.5177         0.047596   
    575. D(H  56,C  40,O  34,Zr  5)    153.3056         0.046811   
    576. D(O  16,C  40,O  34,Zr  5)    -26.9190         0.046811   
    577. D(H  56,C  40,O  16,Zr  1)    161.4257         0.047652   
    578. D(O  34,C  40,O  16,Zr  1)    -18.3497         0.047652   
    579. D(H  48,C  41,O  26,Zr  3)    160.8993         0.047653   
    580. D(O  17,C  41,O  26,Zr  3)    -19.0611         0.047653   
    581. D(H  48,C  41,O  17,Zr  1)    155.5236         0.046843   
    582. D(O  26,C  41,O  17,Zr  1)    -24.5161         0.046843   
    583. D(H  49,C  42,O  22,Zr  2)   -174.5890         0.065357   
    584. D(O  18,C  42,O  22,Zr  2)      5.5974         0.065357   
    585. D(H  49,C  42,O  18,Zr  1)    179.1797         0.065325   
    586. D(O  22,C  42,O  18,Zr  1)     -1.0068         0.065325   
    587. D(H  52,C  43,O  30,Zr  4)    177.5356         0.065325   
    588. D(O  19,C  43,O  30,Zr  4)     -2.7761         0.065325   
    589. D(H  52,C  43,O  19,Zr  1)    178.5055         0.065451   
    590. D(O  30,C  43,O  19,Zr  1)     -1.1827         0.065451   
    591. D(H  59,C  44,O  35,Zr  5)    174.8589         0.047213   
    592. D(O  20,C  44,O  35,Zr  5)     -5.2924         0.047213   
    593. D(H  59,C  44,O  20,Zr  2)    177.3554         0.047124   
    594. D(O  35,C  44,O  20,Zr  2)     -2.4933         0.047124   
    595. D(H  55,C  45,O  31,Zr  4)   -159.9182         0.073758   
    596. D(O  23,C  45,O  31,Al 60)   -105.5049         0.073758   
    597. D(O  23,C  45,O  31,Zr  4)     20.5074         0.073758   
    598. D(H  55,C  45,O  23,Zr  2)   -158.0866         0.064943   
    599. D(O  31,C  45,O  23,Zr  2)     21.4879         0.064943   
    600. D(H  57,C  46,O  32,Zr  5)    160.8342         0.047541   
    601. D(O  24,C  46,O  32,Zr  5)    -19.0049         0.047541   
    602. D(H  57,C  46,O  24,Zr  3)    153.4580         0.046702   
    603. D(O  32,C  46,O  24,Zr  3)    -26.7030         0.046702   
    604. D(H  53,C  47,O  28,Zr  4)   -176.1568         0.047240   
    605. D(O  27,C  47,O  28,Zr  4)      4.0173         0.047240   
    606. D(H  53,C  47,O  27,Zr  3)   -178.8648         0.047174   
    607. D(O  28,C  47,O  27,Zr  3)      0.9611         0.047174   
    608. D(H  62,Al 60,C  45,O  23)    159.9038         0.010000   
    609. D(H  61,Al 60,C  45,O  31)    -76.3913         0.010000   
    610. D(H  61,Al 60,C  45,O  23)     48.8197         0.010000   
    611. D(H  62,Al 60,C  43,O  19)   -169.1448         0.010000   
    612. D(H  61,Al 60,C  43,O  30)    169.0665         0.010000   
    613. D(H  61,Al 60,C  43,O  19)     41.6450         0.010000   
    614. D(H  62,Al 60,C  42,O  18)     62.0666         0.010000   
    615. D(H  61,Al 60,C  42,O  22)   -169.5177         0.010000   
    616. D(H  61,Al 60,C  42,O  18)    -42.2517         0.010000   
    617. D(H  62,Al 60,O  31,Zr  4)     86.2654         0.010000   
    618. D(H  61,Al 60,O  31,C  45)    114.4724         0.010000   
    619. D(H  61,Al 60,O  31,Zr  4)    -20.3926         0.010000   
    -----------------------------------------------------------------

Number of atoms                         .... 64
Number of degrees of freedom            .... 619


         *************************************************************
         *                GEOMETRY OPTIMIZATION CYCLE   1            *
         *************************************************************
---------------------------------
CARTESIAN COORDINATES (ANGSTROEM)
---------------------------------
  Zr    -0.324349    2.157496    1.427611
  Zr     0.337018   -2.158247   -1.441217
  Zr     1.665228   -1.248445    1.579647
  Zr    -1.652055    1.245073   -1.590308
  Zr     1.754581    0.947971   -1.692359
  Zr    -1.741246   -0.944723    1.683298
  O     -1.663920    0.829515    0.511179
  O      1.687564   -0.838475   -0.527994
  O     -0.104215   -1.835120    0.618998
  O      0.118408    1.833269   -0.629784
  O     -0.043712   -0.108536   -1.931150
  O      0.059960    0.106214    1.925568
  O     -1.203552    2.134971    3.188946
  O     -1.743751    3.466397    1.001497
  O      1.364769    2.058986    2.618148
  O      0.888934    3.657917    0.768944
  O     -0.900219   -3.643001   -0.792274
  O     -1.337450   -2.053186   -2.658839
  O      1.727287   -3.490929   -0.996563
  O      1.234230   -2.138652   -3.191736
  O      1.008513   -2.478913    2.983529
  O      2.119157   -0.086381    3.193542
  O      2.688716   -2.831492    1.018782
  O      3.436656   -0.296919    1.093625
  O     -3.414955    0.271210   -1.104033
  O     -2.708052    2.803085   -1.011323
  O     -2.094211    0.097132   -3.214137
  O     -1.004954    2.500319   -2.974445
  O      1.319395    2.366130   -2.989160
  O      2.443990    2.586319   -0.623568
  O      2.251381   -0.048938   -3.325657
  O      3.646690    0.467060   -1.114582
  O     -3.636284   -0.435147    1.123140
  O     -2.230021    0.049052    3.320793
  O     -2.448066   -2.559350    0.597847
  O     -1.317403   -2.376412    2.966496
  C     -1.938374    1.233428    3.765375
  C     -2.588589    3.579196    0.022267
  C      2.037282    1.201246    3.324935
  C      1.989588    3.573929    0.087864
  C     -2.002145   -3.549820   -0.114724
  C     -2.012777   -1.189479   -3.355514
  C      2.552558   -3.620685   -0.002880
  C      1.954270   -1.229976   -3.775312
  C     -0.175076   -2.823831    3.390558
  C      4.089031    0.147463    0.062078
  C     -4.075638   -0.122048   -0.056550
  C      0.177609    2.830175   -3.396262
  H     -2.593727   -1.604830   -4.174511
  H      3.208469   -4.490758   -0.031002
  H      2.616213    1.623119    4.142057
  H     -3.278615    4.421048    0.075698
  H      2.359865   -1.489904   -4.752852
  H      0.216029    3.585655   -4.180751
  H      2.623856    4.455808    0.118718
  H      5.160389    0.262088    0.203271
  H     -2.646021   -4.424534   -0.151127
  H     -5.151429   -0.202607   -0.188247
  H     -2.356690    1.500362    4.735697
  H     -0.213793   -3.577254    4.177073
  Al     5.007614   -2.425746   -2.337926
  H      3.951384   -3.494679   -2.876876
  H      5.055474   -1.013989   -3.082433
  H      5.317166   -2.429852   -0.771527

----------------------------
CARTESIAN COORDINATES (A.U.)
----------------------------
  NO LB      ZA    FRAG     MASS         X           Y           Z
   0 Zr   12.0000*   0    91.220   -0.612930    4.077077    2.697793
   1 Zr   12.0000*   0    91.220    0.636871   -4.078496   -2.723505
   2 Zr   12.0000*   0    91.220    3.146826   -2.359219    2.985101
   3 Zr   12.0000*   0    91.220   -3.121931    2.352848   -3.005246
   4 Zr   12.0000*   0    91.220    3.315678    1.791406   -3.198095
   5 Zr   12.0000*   0    91.220   -3.290478   -1.785268    3.180972
   6 O     8.0000    0    15.999   -3.144354    1.567556    0.965989
   7 O     8.0000    0    15.999    3.189033   -1.584488   -0.997764
   8 O     8.0000    0    15.999   -0.196938   -3.467874    1.169737
   9 O     8.0000    0    15.999    0.223760    3.464376   -1.190120
  10 O     8.0000    0    15.999   -0.082603   -0.205104   -3.649344
  11 O     8.0000    0    15.999    0.113308    0.200715    3.638797
  12 O     8.0000    0    15.999   -2.274383    4.034510    6.026235
  13 O     8.0000    0    15.999   -3.295212    6.550541    1.892555
  14 O     8.0000    0    15.999    2.579040    3.890920    4.947582
  15 O     8.0000    0    15.999    1.679841    6.912462    1.453094
  16 O     8.0000    0    15.999   -1.701167   -6.884275   -1.497181
  17 O     8.0000    0    15.999   -2.527414   -3.879960   -5.024478
  18 O     8.0000    0    15.999    3.264100   -6.596901   -1.883231
  19 O     8.0000    0    15.999    2.332357   -4.041466   -6.031506
  20 O     8.0000    0    15.999    1.905814   -4.684467    5.638052
  21 O     8.0000    0    15.999    4.004626   -0.163237    6.034920
  22 O     8.0000    0    15.999    5.080937   -5.350744    1.925220
  23 O     8.0000    0    15.999    6.494338   -0.561096    2.066653
  24 O     8.0000    0    15.999   -6.453330    0.512512   -2.086319
  25 O     8.0000    0    15.999   -5.117477    5.297063   -1.911123
  26 O     8.0000    0    15.999   -3.957485    0.183552   -6.073838
  27 O     8.0000    0    15.999   -1.899088    4.724918   -5.620887
  28 O     8.0000    0    15.999    2.493296    4.471339   -5.648695
  29 O     8.0000    0    15.999    4.618471    4.887434   -1.178373
  30 O     8.0000    0    15.999    4.254493   -0.092479   -6.284581
  31 O     8.0000    0    15.999    6.891245    0.882616   -2.106255
  32 O     8.0000    0    15.999   -6.871580   -0.822309    2.122427
  33 O     8.0000    0    15.999   -4.214129    0.092695    6.275389
  34 O     8.0000    0    15.999   -4.626174   -4.836470    1.129766
  35 O     8.0000    0    15.999   -2.489531   -4.490768    5.605864
  36 C     6.0000    0    12.011   -3.662997    2.330841    7.115527
  37 C     6.0000    0    12.011   -4.891724    6.763699    0.042078
  38 C     6.0000    0    12.011    3.849905    2.270026    6.283216
  39 C     6.0000    0    12.011    3.759776    6.753747    0.166040
  40 C     6.0000    0    12.011   -3.783506   -6.708188   -0.216797
  41 C     6.0000    0    12.011   -3.803597   -2.247790   -6.341003
  42 C     6.0000    0    12.011    4.823636   -6.842103   -0.005442
  43 C     6.0000    0    12.011    3.693035   -2.324318   -7.134305
  44 C     6.0000    0    12.011   -0.330845   -5.336268    6.407225
  45 C     6.0000    0    12.011    7.727149    0.278664    0.117311
  46 C     6.0000    0    12.011   -7.701840   -0.230638   -0.106864
  47 C     6.0000    0    12.011    0.335631    5.348255   -6.418005
  48 H     1.0000    0     1.008   -4.901433   -3.032688   -7.888683
  49 H     1.0000    0     1.008    6.063128   -8.486302   -0.058585
  50 H     1.0000    0     1.008    4.943925    3.067251    7.827353
  51 H     1.0000    0     1.008   -6.195684    8.354570    0.143048
  52 H     1.0000    0     1.008    4.459499   -2.815510   -8.981588
  53 H     1.0000    0     1.008    0.408235    6.775907   -7.900475
  54 H     1.0000    0     1.008    4.958369    8.420256    0.224345
  55 H     1.0000    0     1.008    9.751721    0.495274    0.384127
  56 H     1.0000    0     1.008   -5.000255   -8.361158   -0.285589
  57 H     1.0000    0     1.008   -9.734789   -0.382872   -0.355734
  58 H     1.0000    0     1.008   -4.453499    2.835273    8.949171
  59 H     1.0000    0     1.008   -0.404010   -6.760030    7.893524
  60 Al   13.0000    0    26.982    9.463018   -4.583996   -4.418040
  61 H     1.0000    0     1.008    7.467034   -6.603986   -5.436507
  62 H     1.0000    0     1.008    9.553461   -1.916161   -5.824955
  63 H     1.0000    0     1.008   10.047988   -4.591754   -1.457976
* core charge reduced due to ECP

--------------------------------
INTERNAL COORDINATES (ANGSTROEM)
--------------------------------
 Zr     0   0   0     0.000000000000     0.00000000     0.00000000
 Zr     1   0   0     5.224290888793     0.00000000     0.00000000
 Zr     2   1   0     3.423083713591    49.07657970     0.00000000
 Zr     1   2   3     3.420987082698    49.03256540   180.04697466
 Zr     4   1   2     3.421089874648    70.30649453   307.73838264
 Zr     1   2   3     3.420049339749    49.01807673   279.45843236
 O      1   2   3     2.097101033360    46.98226563   230.02456079
 O      2   1   3     2.097557793494    47.36381798   310.03829302
 O      3   2   1     2.097132505396    36.29383469    70.11392872
 O      4   1   2     2.098361400067    36.28933428   289.93129278
 O      5   4   1     2.099306162839    36.30319726   122.00732088
 O      6   1   2     2.099406059539    36.78527169    69.68450189
 O      1   2   3     1.968707152082   122.57301533   294.15476330
 O      1   2   3     1.977244690568   121.29156093   191.36487447
 O      1   2   3     2.068864687953    99.98020965    20.18461344
 O      1   2   3     2.038911138985   110.80492361    97.42460723
 O      2   1   3     2.038719017131   110.48757772    83.41747414
 O      2   1   3     2.073037087670   100.27765057   160.63871049
 O      2   1   3     1.976514547701   121.50062852   350.03737695
 O      2   1   3     1.967153024952   122.55910089   246.57586346
 O      3   2   1     1.978941722288   109.39200701   114.85502261
 O      3   2   1     2.039877412236   159.38418753   352.53714647
 O      3   2   1     1.966757062442    74.71185712   191.31530298
 O      3   2   1     2.068712733999   104.31026862   268.48506501
 O      4   1   2     2.071880990283   104.39137541    90.88182356
 O      4   1   2     1.969201451497    74.79493970   167.35758471
 O      4   1   2     2.037177369789   159.67037369     5.89348446
 O      4   1   2     1.977427029546   108.73462847   244.38271725
 O      5   4   1     1.970344303942    74.76323018   244.86830451
 O      5   4   1     2.074073512663   104.30108676   321.20234679
 O      5   4   1     1.976941570332   108.58268062   168.08217121
 O      5   4   1     2.035970311162   159.62952378    44.90638129
 O      6   1   2     2.040738168879    97.91449159   249.37342225
 O      6   1   2     1.976835416328    73.04439429   169.58194361
 O      6   1   2     2.069980289595   144.07576610   323.93049721
 O      6   1   2     1.968749141113   128.25513859   103.26097559
 C     13   1   2     1.298080755008   131.15061655   344.85270165
 C     26   4   1     1.298047337935   131.13395697     3.92162593
 C     22   3   2     1.296900773598   129.17618140   344.06195421
 C     16   1   2     1.297059681557   128.82451020   337.31760690
 C     17   2   1     1.296918671471   129.02027464    22.13174094
 C     27   4   1     1.296914504734   129.21879358    17.63819565
 C     23   3   2     1.298136664216   131.23806715   355.38474603
 C     20   2   1     1.297963517313   131.30650554    13.18312582
 C     36   6   1     1.298046477476   130.77197335   316.56802712
 C     32   5   4     1.297049964551   129.24111475   343.95621143
 C     33   6   1     1.297201454911   128.63849536    72.50480969
 C     29   5   4     1.297977476785   131.15043231   355.95255491
 H     42  27   4     1.086634289405   115.32742388   160.89928536
 H     43  23   3     1.089970805182   116.26227094   185.41095157
 H     39  22   3     1.086658320190   115.34089460   198.53464350
 H     38  26   4     1.089819376930   116.27192032   176.27480527
 H     44  20   2     1.089795751915   116.28161803   178.50549695
 H     48  29   5     1.089794048981   116.27014465   183.84321383
 H     40  16   1     1.086718997541   115.32925404   198.67331603
 H     46  32   5     1.086683714259   115.34738899   200.08179722
 H     41  17   2     1.086750489383   115.34509394   161.42567524
 H     47  33   6     1.086811231414   115.31334800   160.83416275
 H     37  13   1     1.089847399625   116.26566274   183.53535567
 H     45  36   6     1.089839557591   116.28205664   174.85888312
 Al    32   5   4     3.423012499346   117.88421100    97.75499493
 H     61  32   5     1.596466024520   115.05319252   339.60740650
 H     61  32   5     1.596759702896    55.34471247    86.26542699
 H     61  32   5     1.596697863495    74.25514452   226.45515581

---------------------------
INTERNAL COORDINATES (A.U.)
---------------------------
 Zr     0   0   0     0.000000000000     0.00000000     0.00000000
 Zr     1   0   0     9.872479023758     0.00000000     0.00000000
 Zr     2   1   0     6.468690752173    49.07657970     0.00000000
 Zr     1   2   3     6.464728693982    49.03256540   180.04697466
 Zr     4   1   2     6.464922942616    70.30649453   307.73838264
 Zr     1   2   3     6.462956616624    49.01807673   279.45843236
 O      1   2   3     3.962946628214    46.98226563   230.02456079
 O      2   1   3     3.963809779776    47.36381798   310.03829302
 O      3   2   1     3.963006101742    36.29383469    70.11392872
 O      4   1   2     3.965328376119    36.28933428   289.93129278
 O      5   4   1     3.967113719019    36.30319726   122.00732088
 O      6   1   2     3.967302496424    36.78527169    69.68450189
 O      1   2   3     3.720317355328   122.57301533   294.15476330
 O      1   2   3     3.736450964923   121.29156093   191.36487447
 O      1   2   3     3.909587668372    99.98020965    20.18461344
 O      1   2   3     3.852983664084   110.80492361    97.42460723
 O      2   1   3     3.852620606395   110.48757772    83.41747414
 O      2   1   3     3.917472361159   100.27765057   160.63871049
 O      2   1   3     3.735071194865   121.50062852   350.03737695
 O      2   1   3     3.717380480674   122.55910089   246.57586346
 O      3   2   1     3.739657890114   109.39200701   114.85502261
 O      3   2   1     3.854809655897   159.38418753   352.53714647
 O      3   2   1     3.716632219971    74.71185712   191.31530298
 O      3   2   1     3.909300517014   104.31026862   268.48506501
 O      4   1   2     3.915287653712   104.39137541    90.88182356
 O      4   1   2     3.721251445850    74.79493970   167.35758471
 O      4   1   2     3.849707315123   159.67037369     5.89348446
 O      4   1   2     3.736795535655   108.73462847   244.38271725
 O      5   4   1     3.723411123982    74.76323018   244.86830451
 O      5   4   1     3.919430920552   104.30108676   321.20234679
 O      5   4   1     3.735878150693   108.58268062   168.08217121
 O      5   4   1     3.847426304891   159.62952378    44.90638129
 O      6   1   2     3.856436250221    97.91449159   249.37342225
 O      6   1   2     3.735677548696    73.04439429   169.58194361
 O      6   1   2     3.911695849949   144.07576610   323.93049721
 O      6   1   2     3.720396703096   128.25513859   103.26097559
 C     13   1   2     2.453017126679   131.15061655   344.85270165
 C     26   4   1     2.452953977562   131.13395697     3.92162593
 C     22   3   2     2.450787284971   129.17618140   344.06195421
 C     16   1   2     2.451087577494   128.82451020   337.31760690
 C     17   2   1     2.450821107049   129.02027464    22.13174094
 C     27   4   1     2.450813233057   129.21879358    17.63819565
 C     23   3   2     2.453122779770   131.23806715   355.38474603
 C     20   2   1     2.452795579543   131.30650554    13.18312582
 C     36   6   1     2.452952351531   130.77197335   316.56802712
 C     32   5   4     2.451069215013   129.24111475   343.95621143
 C     33   6   1     2.451355490305   128.63849536    72.50480969
 C     29   5   4     2.452821959122   131.15043231   355.95255491
 H     42  27   4     2.053441214703   115.32742388   160.89928536
 H     43  23   3     2.059746315763   116.26227094   185.41095157
 H     39  22   3     2.053486626307   115.34089460   198.53464350
 H     38  26   4     2.059460157839   116.27192032   176.27480527
 H     44  20   2     2.059415513030   116.28161803   178.50549695
 H     48  29   5     2.059412294951   116.27014465   183.84321383
 H     40  16   1     2.053601289881   115.32925404   198.67331603
 H     46  32   5     2.053534614142   115.34738899   200.08179722
 H     41  17   2     2.053660800839   115.34509394   161.42567524
 H     47  33   6     2.053775586643   115.31334800   160.83416275
 H     37  13   1     2.059513113057   116.26566274   183.53535567
 H     45  36   6     2.059498293762   116.28205664   174.85888312
 Al    32   5   4     6.468556176753   117.88421100    97.75499493
 H     61  32   5     3.016883568454   115.05319252   339.60740650
 H     61  32   5     3.017438540156    55.34471247    86.26542699
 H     61  32   5     3.017321680622    74.25514452   226.45515581

---------------------
BASIS SET INFORMATION
---------------------
There are 5 groups of distinct atoms

 Group   1 Type Zr  : 7s6p5d contracted to 5s3p2d pattern {31111/411/41}
 Group   2 Type O   : 7s4p1d contracted to 3s2p1d pattern {511/31/1}
 Group   3 Type C   : 7s4p1d contracted to 3s2p1d pattern {511/31/1}
 Group   4 Type H   : 4s contracted to 2s pattern {31}
 Group   5 Type Al  : 10s7p1d contracted to 4s3p1d pattern {5311/511/1}

Atom   0Zr   basis set group =>   1
Atom   1Zr   basis set group =>   1
Atom   2Zr   basis set group =>   1
Atom   3Zr   basis set group =>   1
Atom   4Zr   basis set group =>   1
Atom   5Zr   basis set group =>   1
Atom   6O    basis set group =>   2
Atom   7O    basis set group =>   2
Atom   8O    basis set group =>   2
Atom   9O    basis set group =>   2
Atom  10O    basis set group =>   2
Atom  11O    basis set group =>   2
Atom  12O    basis set group =>   2
Atom  13O    basis set group =>   2
Atom  14O    basis set group =>   2
Atom  15O    basis set group =>   2
Atom  16O    basis set group =>   2
Atom  17O    basis set group =>   2
Atom  18O    basis set group =>   2
Atom  19O    basis set group =>   2
Atom  20O    basis set group =>   2
Atom  21O    basis set group =>   2
Atom  22O    basis set group =>   2
Atom  23O    basis set group =>   2
Atom  24O    basis set group =>   2
Atom  25O    basis set group =>   2
Atom  26O    basis set group =>   2
Atom  27O    basis set group =>   2
Atom  28O    basis set group =>   2
Atom  29O    basis set group =>   2
Atom  30O    basis set group =>   2
Atom  31O    basis set group =>   2
Atom  32O    basis set group =>   2
Atom  33O    basis set group =>   2
Atom  34O    basis set group =>   2
Atom  35O    basis set group =>   2
Atom  36C    basis set group =>   3
Atom  37C    basis set group =>   3
Atom  38C    basis set group =>   3
Atom  39C    basis set group =>   3
Atom  40C    basis set group =>   3
Atom  41C    basis set group =>   3
Atom  42C    basis set group =>   3
Atom  43C    basis set group =>   3
Atom  44C    basis set group =>   3
Atom  45C    basis set group =>   3
Atom  46C    basis set group =>   3
Atom  47C    basis set group =>   3
Atom  48H    basis set group =>   4
Atom  49H    basis set group =>   4
Atom  50H    basis set group =>   4
Atom  51H    basis set group =>   4
Atom  52H    basis set group =>   4
Atom  53H    basis set group =>   4
Atom  54H    basis set group =>   4
Atom  55H    basis set group =>   4
Atom  56H    basis set group =>   4
Atom  57H    basis set group =>   4
Atom  58H    basis set group =>   4
Atom  59H    basis set group =>   4
Atom  60Al   basis set group =>   5
Atom  61H    basis set group =>   4
Atom  62H    basis set group =>   4
Atom  63H    basis set group =>   4
---------------------------------
AUXILIARY/J BASIS SET INFORMATION
---------------------------------
There are 5 groups of distinct atoms

 Group   1 Type Zr  : 11s5p5d3f3g contracted to 8s5p5d2f3g pattern {41111111/11111/11111/21/111}
 Group   2 Type O   : 12s5p4d2f1g contracted to 6s4p3d1f1g pattern {711111/2111/211/2/1}
 Group   3 Type C   : 12s5p4d2f1g contracted to 6s4p3d1f1g pattern {711111/2111/211/2/1}
 Group   4 Type H   : 5s2p1d contracted to 3s1p1d pattern {311/2/1}
 Group   5 Type Al  : 14s5p5d2f1g contracted to 8s4p3d1f1g pattern {71111111/2111/311/2/1}

Atom   0Zr   basis set group =>   1
Atom   1Zr   basis set group =>   1
Atom   2Zr   basis set group =>   1
Atom   3Zr   basis set group =>   1
Atom   4Zr   basis set group =>   1
Atom   5Zr   basis set group =>   1
Atom   6O    basis set group =>   2
Atom   7O    basis set group =>   2
Atom   8O    basis set group =>   2
[...]
176:   1635.17   0.112746  569.77  0.021517  (-0.090746  0.014283 -0.114360)
177:   1750.93   0.052757  266.61  0.009403  ( 0.044604 -0.031150  0.080268)
178:   1810.50   0.034720  175.46  0.005984  ( 0.055487  0.050576  0.018648)
179:   1832.16   0.043274  218.69  0.007371  ( 0.062364  0.044275 -0.039002)
180:   2893.87   0.017634   89.11  0.001902  ( 0.018641  0.039053  0.005378)
181:   2894.14   0.018322   92.59  0.001976  (-0.017930  0.001180 -0.040654)
182:   2895.65   0.010469   52.90  0.001128  ( 0.022384 -0.009872 -0.023015)
183:   2896.88   0.032522  164.35  0.003503  ( 0.049306  0.020809  0.025285)
184:   2901.41   0.015326   77.45  0.001648  ( 0.023278  0.033261 -0.000418)
185:   2909.39   0.015986   80.78  0.001715  ( 0.018775 -0.010882 -0.035266)
186:   2911.98   0.015932   80.51  0.001707  ( 0.023797 -0.030682 -0.014129)
187:   2912.92   0.042036  212.43  0.004503  ( 0.001421  0.042730 -0.051725)
188:   2913.46   0.008004   40.45  0.000857  (-0.014320  0.025496 -0.001487)
189:   2930.22   0.012656   63.96  0.001348  ( 0.021992 -0.029383 -0.000931)
190:   2941.94   0.006935   35.05  0.000736  ( 0.027116  0.000473  0.000318)
191:   2954.34   0.011954   60.41  0.001263  ( 0.018591 -0.009371 -0.028796)

* The epsilon (eps) is given for a Dirac delta lineshape.
** The dipole moment derivative (T) already includes vibrational overlap.

The first frequency considered to be a vibration is 8
The total number of vibrations considered is 184


--------------------------
THERMOCHEMISTRY AT 298.15K
--------------------------

Temperature         ...   298.15 K
Pressure            ...     1.00 atm
Total Mass          ...  1213.52 AMU
Quasi RRHO          ...     True
Cut-Off Frequency   ...     1.00 cm^-1

Throughout the following assumptions are being made:
  (1) The electronic state is orbitally nondegenerate
  (2) There are no thermally accessible electronically excited states
  (3) Hindered rotations indicated by low frequency modes are not
      treated as such but are treated as vibrations and this may
      cause some error
  (4) All equations used are the standard statistical mechanics
      equations for an ideal gas
  (5) All vibrations are strictly harmonic

freq.      39.67  E(vib)   ...       0.54 
freq.      42.34  E(vib)   ...       0.53 
freq.      54.37  E(vib)   ...       0.52 
freq.      60.54  E(vib)   ...       0.51 
freq.      69.04  E(vib)   ...       0.50 
freq.      73.79  E(vib)   ...       0.49 
freq.      79.20  E(vib)   ...       0.49 
freq.      82.21  E(vib)   ...       0.48 
freq.      87.91  E(vib)   ...       0.48 
freq.      93.65  E(vib)   ...       0.47 
freq.      97.34  E(vib)   ...       0.46 
freq.     102.55  E(vib)   ...       0.46 
freq.     103.18  E(vib)   ...       0.46 
freq.     107.04  E(vib)   ...       0.45 
freq.     109.00  E(vib)   ...       0.45 
freq.     111.89  E(vib)   ...       0.45 
freq.     114.38  E(vib)   ...       0.44 
freq.     120.19  E(vib)   ...       0.44 
freq.     122.94  E(vib)   ...       0.43 
freq.     132.09  E(vib)   ...       0.42 
freq.     135.79  E(vib)   ...       0.42 
freq.     144.23  E(vib)   ...       0.41 
freq.     151.13  E(vib)   ...       0.40 
freq.     152.32  E(vib)   ...       0.40 
freq.     153.57  E(vib)   ...       0.40 
freq.     154.54  E(vib)   ...       0.40 
freq.     156.09  E(vib)   ...       0.40 
freq.     157.78  E(vib)   ...       0.40 
freq.     162.84  E(vib)   ...       0.39 
freq.     163.96  E(vib)   ...       0.39 
freq.     166.24  E(vib)   ...       0.39 
freq.     167.78  E(vib)   ...       0.38 
freq.     172.58  E(vib)   ...       0.38 
freq.     176.05  E(vib)   ...       0.38 
freq.     185.87  E(vib)   ...       0.37 
freq.     186.43  E(vib)   ...       0.37 
freq.     187.33  E(vib)   ...       0.36 
freq.     191.27  E(vib)   ...       0.36 
freq.     193.83  E(vib)   ...       0.36 
freq.     196.35  E(vib)   ...       0.36 
freq.     202.62  E(vib)   ...       0.35 
freq.     208.21  E(vib)   ...       0.34 
freq.     210.74  E(vib)   ...       0.34 
freq.     214.43  E(vib)   ...       0.34 
freq.     219.45  E(vib)   ...       0.33 
freq.     223.48  E(vib)   ...       0.33 
freq.     232.72  E(vib)   ...       0.32 
freq.     234.32  E(vib)   ...       0.32 
freq.     238.29  E(vib)   ...       0.32 
freq.     244.21  E(vib)   ...       0.31 
freq.     250.59  E(vib)   ...       0.30 
freq.     261.16  E(vib)   ...       0.30 
freq.     262.10  E(vib)   ...       0.29 
freq.     264.13  E(vib)   ...       0.29 
freq.     264.52  E(vib)   ...       0.29 
freq.     270.71  E(vib)   ...       0.29 
freq.     271.14  E(vib)   ...       0.29 
freq.     272.58  E(vib)   ...       0.29 
freq.     273.89  E(vib)   ...       0.28 
freq.     274.21  E(vib)   ...       0.28 
freq.     276.70  E(vib)   ...       0.28 
freq.     286.11  E(vib)   ...       0.27 
freq.     287.58  E(vib)   ...       0.27 
freq.     288.50  E(vib)   ...       0.27 
freq.     292.22  E(vib)   ...       0.27 
freq.     293.54  E(vib)   ...       0.27 
freq.     297.83  E(vib)   ...       0.27 
freq.     302.09  E(vib)   ...       0.26 
freq.     304.61  E(vib)   ...       0.26 
freq.     306.07  E(vib)   ...       0.26 
freq.     308.95  E(vib)   ...       0.26 
freq.     312.14  E(vib)   ...       0.25 
freq.     317.05  E(vib)   ...       0.25 
freq.     318.21  E(vib)   ...       0.25 
freq.     319.09  E(vib)   ...       0.25 
freq.     322.90  E(vib)   ...       0.25 
freq.     325.81  E(vib)   ...       0.24 
freq.     329.86  E(vib)   ...       0.24 
freq.     336.34  E(vib)   ...       0.24 
freq.     344.48  E(vib)   ...       0.23 
freq.     352.04  E(vib)   ...       0.23 
freq.     356.60  E(vib)   ...       0.22 
freq.     358.58  E(vib)   ...       0.22 
freq.     372.38  E(vib)   ...       0.21 
freq.     374.50  E(vib)   ...       0.21 
freq.     386.69  E(vib)   ...       0.20 
freq.     396.12  E(vib)   ...       0.20 
freq.     401.97  E(vib)   ...       0.19 
freq.     403.48  E(vib)   ...       0.19 
freq.     406.53  E(vib)   ...       0.19 
freq.     418.84  E(vib)   ...       0.18 
freq.     420.09  E(vib)   ...       0.18 
freq.     424.27  E(vib)   ...       0.18 
freq.     426.41  E(vib)   ...       0.18 
freq.     473.89  E(vib)   ...       0.15 
freq.     475.83  E(vib)   ...       0.15 
freq.     482.92  E(vib)   ...       0.15 
freq.     491.42  E(vib)   ...       0.14 
freq.     529.72  E(vib)   ...       0.13 
freq.     543.84  E(vib)   ...       0.12 
freq.     562.09  E(vib)   ...       0.11 
freq.     623.45  E(vib)   ...       0.09 
freq.     674.87  E(vib)   ...       0.08 
freq.     678.66  E(vib)   ...       0.08 
freq.     686.31  E(vib)   ...       0.07 
freq.     688.49  E(vib)   ...       0.07 
freq.     711.43  E(vib)   ...       0.07 
freq.     733.54  E(vib)   ...       0.06 
freq.     734.56  E(vib)   ...       0.06 
freq.     734.96  E(vib)   ...       0.06 
freq.     735.20  E(vib)   ...       0.06 
freq.     736.50  E(vib)   ...       0.06 
freq.     737.83  E(vib)   ...       0.06 
freq.     738.35  E(vib)   ...       0.06 
freq.     738.96  E(vib)   ...       0.06 
freq.     739.34  E(vib)   ...       0.06 
freq.     739.96  E(vib)   ...       0.06 
freq.     741.22  E(vib)   ...       0.06 
freq.     745.12  E(vib)   ...       0.06 
freq.     753.80  E(vib)   ...       0.06 
freq.     795.32  E(vib)   ...       0.05 
freq.     979.44  E(vib)   ...       0.03 
freq.     991.23  E(vib)   ...       0.02 
freq.    1000.29  E(vib)   ...       0.02 
freq.    1000.97  E(vib)   ...       0.02 
freq.    1001.28  E(vib)   ...       0.02 
freq.    1002.78  E(vib)   ...       0.02 
freq.    1003.41  E(vib)   ...       0.02 
freq.    1003.91  E(vib)   ...       0.02 
freq.    1005.07  E(vib)   ...       0.02 
freq.    1005.50  E(vib)   ...       0.02 
freq.    1005.93  E(vib)   ...       0.02 
freq.    1006.48  E(vib)   ...       0.02 
freq.    1287.49  E(vib)   ...       0.01 
freq.    1341.26  E(vib)   ...       0.01 
freq.    1347.11  E(vib)   ...       0.01 
freq.    1348.13  E(vib)   ...       0.01 
freq.    1349.62  E(vib)   ...       0.01 
freq.    1350.39  E(vib)   ...       0.01 
freq.    1351.16  E(vib)   ...       0.01 
freq.    1352.44  E(vib)   ...       0.01 
freq.    1353.75  E(vib)   ...       0.01 
freq.    1354.84  E(vib)   ...       0.01 
freq.    1355.66  E(vib)   ...       0.01 
freq.    1356.34  E(vib)   ...       0.01 
freq.    1360.91  E(vib)   ...       0.01 
freq.    1361.02  E(vib)   ...       0.01 
freq.    1361.39  E(vib)   ...       0.01 
freq.    1361.79  E(vib)   ...       0.01 
freq.    1364.49  E(vib)   ...       0.01 
freq.    1364.95  E(vib)   ...       0.01 
freq.    1366.01  E(vib)   ...       0.01 
freq.    1367.04  E(vib)   ...       0.01 
freq.    1370.14  E(vib)   ...       0.01 
freq.    1372.22  E(vib)   ...       0.01 
freq.    1377.73  E(vib)   ...       0.01 
freq.    1380.12  E(vib)   ...       0.01 
freq.    1538.07  E(vib)   ...       0.00 
freq.    1550.35  E(vib)   ...       0.00 
freq.    1552.47  E(vib)   ...       0.00 
freq.    1557.57  E(vib)   ...       0.00 
freq.    1566.65  E(vib)   ...       0.00 
freq.    1571.05  E(vib)   ...       0.00 
freq.    1573.75  E(vib)   ...       0.00 
freq.    1614.38  E(vib)   ...       0.00 
freq.    1621.53  E(vib)   ...       0.00 
freq.    1628.95  E(vib)   ...       0.00 
freq.    1633.75  E(vib)   ...       0.00 
freq.    1635.17  E(vib)   ...       0.00 
freq.    1750.93  E(vib)   ...       0.00 
freq.    1810.50  E(vib)   ...       0.00 
freq.    1832.16  E(vib)   ...       0.00 
freq.    2893.87  E(vib)   ...       0.00 
freq.    2894.14  E(vib)   ...       0.00 
freq.    2895.65  E(vib)   ...       0.00 
freq.    2896.88  E(vib)   ...       0.00 
freq.    2901.41  E(vib)   ...       0.00 
freq.    2909.39  E(vib)   ...       0.00 
freq.    2911.98  E(vib)   ...       0.00 
freq.    2912.92  E(vib)   ...       0.00 
freq.    2913.46  E(vib)   ...       0.00 
freq.    2930.22  E(vib)   ...       0.00 
freq.    2941.94  E(vib)   ...       0.00 
freq.    2954.34  E(vib)   ...       0.00 

------------
INNER ENERGY
------------

The inner energy is: U= E(el) + E(ZPE) + E(vib) + E(rot) + E(trans)
    E(el)   - is the total energy from the electronic structure calculation
              = E(kin-el) + E(nuc-el) + E(el-el) + E(nuc-nuc)
    E(ZPE)  - the the zero temperature vibrational energy from the frequency calculation
    E(vib)  - the the finite temperature correction to E(ZPE) due to population
              of excited vibrational states
    E(rot)  - is the rotational thermal energy
    E(trans)- is the translational thermal energy

Summary of contributions to the inner energy U:
Electronic energy                ...  -3244.53402640 Eh
Zero point energy                ...      0.32738352 Eh     205.44 kcal/mol
Thermal vibrational correction   ...      0.05423401 Eh      34.03 kcal/mol
Thermal rotational correction    ...      0.00141627 Eh       0.89 kcal/mol
Thermal translational correction ...      0.00141627 Eh       0.89 kcal/mol
-----------------------------------------------------------------------
Total thermal energy                  -3244.14957633 Eh


Summary of corrections to the electronic energy:
(perhaps to be used in another calculation)
Total thermal correction                  0.05706655 Eh      35.81 kcal/mol
Non-thermal (ZPE) correction              0.32738352 Eh     205.44 kcal/mol
-----------------------------------------------------------------------
Total correction                          0.38445008 Eh     241.25 kcal/mol


--------
ENTHALPY
--------

The enthalpy is H = U + kB*T
                kB is Boltzmann's constant
Total thermal energy              ...  -3244.14957633 Eh 
Thermal Enthalpy correction       ...      0.00094421 Eh       0.59 kcal/mol
-----------------------------------------------------------------------
Total Enthalpy                    ...  -3244.14863212 Eh


Note: Only C1 symmetry has been detected, increase convergence thresholds 
      if your molecule has a higher symmetry. Symmetry factor of 1.0 is   
      used for the rotational entropy correction. 
 

Note: Rotational entropy computed according to Herzberg 
Infrared and Raman Spectra, Chapter V,1, Van Nostrand Reinhold, 1945 
Point Group:  C1, Symmetry Number:   1  
Rotational constants in cm-1:     0.001869     0.001679     0.001630 

Vibrational entropy computed according to the QRRHO of S. Grimme
Chem.Eur.J. 2012 18 9955 using a reference frequency of 100.0 cm-1


-------
ENTROPY
-------

The entropy contributions are T*S = T*(S(el)+S(vib)+S(rot)+S(trans))
     S(el)   - electronic entropy
     S(vib)  - vibrational entropy
     S(rot)  - rotational entropy
     S(trans)- translational entropy
The entropies will be listed as multiplied by the temperature to get
units of energy

Electronic entropy                ...      0.00000000 Eh      0.00 kcal/mol
Vibrational entropy               ...      0.09644029 Eh     60.52 kcal/mol
Rotational entropy                ...      0.01852367 Eh     11.62 kcal/mol
Translational entropy             ...      0.02240642 Eh     14.06 kcal/mol
-----------------------------------------------------------------------
Final entropy term                ...      0.13737038 Eh     86.20 kcal/mol

In case the symmetry of your molecule has not been determined correctly
or in case you have a reason to use a different symmetry number we print 
out the resulting rotational entropy values for sn=1,12:

 non-linear molecules -----------------------------------
|  sn= 1 | S(rot)=       0.01852367 Eh     11.62 kcal/mol|
|  sn= 2 | S(rot)=       0.01786921 Eh     11.21 kcal/mol|
|  sn= 3 | S(rot)=       0.01748638 Eh     10.97 kcal/mol|
|  sn= 4 | S(rot)=       0.01721476 Eh     10.80 kcal/mol|
|  sn= 5 | S(rot)=       0.01700407 Eh     10.67 kcal/mol|
|  sn= 6 | S(rot)=       0.01683193 Eh     10.56 kcal/mol|
|  sn= 7 | S(rot)=       0.01668638 Eh     10.47 kcal/mol|
|  sn= 8 | S(rot)=       0.01656030 Eh     10.39 kcal/mol|
|  sn= 9 | S(rot)=       0.01644909 Eh     10.32 kcal/mol|
|  sn=10 | S(rot)=       0.01634961 Eh     10.26 kcal/mol|
|  sn=11 | S(rot)=       0.01625962 Eh     10.20 kcal/mol|
|  sn=12 | S(rot)=       0.01617747 Eh     10.15 kcal/mol|
 linear molecules ---------------------------------------
|  Dinfh | S(rot)=       0.01138654 Eh      7.15 kcal/mol|
|  Cinfv | S(rot)=       0.01204099 Eh      7.56 kcal/mol|
 --------------------------------------------------------


-------------------
GIBBS FREE ENERGY
-------------------

The Gibbs free energy is G = H - T*S

Total enthalpy                    ...  -3244.14863212 Eh 
Total entropy correction          ...     -0.13737038 Eh    -86.20 kcal/mol
-----------------------------------------------------------------------
Final Gibbs free energy         ...  -3244.28600249 Eh

For completeness - the Gibbs free energy minus the electronic energy
G-E(el)                           ...      0.24802391 Eh    155.64 kcal/mol


Maximum memory used throughout the entire PROP-calculation: 132.1 MB

--------------------------------
SUGGESTED CITATIONS FOR THIS RUN
--------------------------------

Below you find a list of papers that are relevant to this ORCA run
We neither can nor want to force you to cite these papers, but we appreciate if you do
You receive ORCA, which is the product of decades of hard work by many enthusiastic individuals, for free
The only thing we kindly ask in return is that you cite our papers,
We deeply appreciate it, if you show your appreciation for ORCA by not just citing the generic ORCA reference.

Please note that relegating all ORCA citations to the supporting information does *not* help us.
SI sections are not indexed - citations you put there will not count into any citation statistics
But we need these citations in order to attract the funding resources that allow us to do what we are doing

Therefore, if you are a happy ORCA user, please consider citing a few of the papers listed below in the main body of your paper

In addition to the list printed below, the program has created the file run.bibtex that contains the list in bibtex format
You can import this file easily into all common literature databanks and citation aid programs


List of essential papers. We consider these as the minimum necessary citations

  1. Neese, F.
     Software update: the ORCA program system, version 6.0
     WIRES Comput. Molec. Sci. 2025 15(1), e70019
     doi.org/10.1002/wcms.7019

List of papers to cite with high priority. The work reported in these papers was absolutely
necessary for this run to complete.
Our perspective: the developers of density functionals and basis sets usually get cited in chemistry papers
Good! But without the algorithms to do something with them, the functionals or basis sets would not do anything.
Hence, in our opinion, the algorithm design and method developments papers are equally worthy of getting cited

  1. Neese, F.
     An improvement of the resolution of the identity approximation for the formation of the Coulomb matrix
     J. Comp. Chem. 2003 24(14), 1740-1747
     doi.org/10.1002/jcc.10318
  2. Grimme, S.; Antony, J.; Ehrlich, S.; Krieg, H.
     A consistent and accurate ab initio parametrization of density functional dispersion correction (DFT-D) for the 94 elements H-Pu
     J. Chem. Phys. 2010 132 , 154104
     doi.org/10.1063/1.3382344
  3. Grimme, S.; Ehrlich, S.; Goerigk, L.
     Effect of the damping function in dispersion corrected density functional theory
     J. Comput. Chem. 2011 32(7), 1456-1465
     doi.org/10.1002/jcc.21759
  4. Bykov, D.; Petrenko, T.; Izsak, R.; Kossmann, S.; Becker, U.; Valeev, E.; Neese, F.
     Efficient implementation of the analytic second derivatives of Hartree-Fock and hybrid DFT energies: a detailed analysis of different approximations
     Molec. Phys. 2015 113 , 1961-1977
     doi.org/10.1080/00268976.2015.1025114
  5. Neese, F.
     The SHARK Integral Generation and Digestion System
     J. Comp. Chem. 2022 44(3), 381
     doi.org/10.1002/jcc.26942

List of suggested additional citations. These are papers that are important in the 'surrounding' of 
of this run, or papers that preceded the highly important papers. If you like your results we are grateful for a citation.

  1. Neese, F.
     The ORCA program system
     WIRES Comput. Molec. Sci. 2012 2(1), 73-78
     doi.org/10.1002/wcms.81
  2. Neese, F.
     Software update: the ORCA program system, version 4.0
     WIRES Comput. Molec. Sci. 2018 8(1), 1-6
     doi.org/10.1002/wcms.1327
  3. Neese, F.; Wennmohs, F.; Becker, U.; Riplinger, C.
     The ORCA quantum chemistry program package
     J. Chem. Phys. 2020 152(22), 224108
     doi.org/10.1063/5.0004608
  4. Neese, F.
     Software update: The ORCA program system—Version 5.0
     WIRES Comput. Molec. Sci. 2022 12(1), e1606
     doi.org/10.1002/wcms.1606

List of optional additional citations

  1. Neese, F.
     Approximate second-order SCF convergence for spin unrestricted wavefunctions
     Chem. Phys. Lett. 2000 325(1-3), 93-98
     doi.org/10.1016/s0009-2614(00)00662-x

Timings for individual modules:

Sum of individual times          ...     7253.843 sec (= 120.897 min)
Startup calculation              ...      469.906 sec (=   7.832 min)   6.5 %
SCF iterations                   ...     2117.989 sec (=  35.300 min)  29.2 %
Property integrals               ...     1309.944 sec (=  21.832 min)  18.1 %
SCF Response                     ...     1052.253 sec (=  17.538 min)  14.5 %
Property calculations            ...     1093.657 sec (=  18.228 min)  15.1 %
SCF Gradient evaluation          ...     1187.162 sec (=  19.786 min)  16.4 %
Geometry relaxation              ...       22.933 sec (=   0.382 min)   0.3 %
                             ****ORCA TERMINATED NORMALLY****
TOTAL RUN TIME: 0 days 2 hours 1 minutes 39 seconds 264 msec
