
                                 *****************
                                 * O   R   C   A *
                                 *****************

                                            #,                                       
                                            ###                                      
                                            ####                                     
                                            #####                                    
                                            ######                                   
                                           ########,                                 
                                     ,,################,,,,,                         
                               ,,#################################,,                 
                          ,,##########################################,,             
                       ,#########################################, ''#####,          
                    ,#############################################,,   '####,        
                  ,##################################################,,,,####,       
                ,###########''''           ''''###############################       
              ,#####''   ,,,,##########,,,,          '''####'''          '####       
            ,##' ,,,,###########################,,,                        '##       
           ' ,,###''''                  '''############,,,                           
         ,,##''                                '''############,,,,        ,,,,,,###''
      ,#''                                            '''#######################'''  
     '                                                          ''''####''''         
             ,#######,   #######,   ,#######,      ##                                
            ,#'     '#,  ##    ##  ,#'     '#,    #''#        ,####,    ,#,          
            ##       ##  ##   ,#'  ##            #'  '#       #'       ,# #          
            ##       ##  #######   ##           ,######,      #####,      #          
            '#,     ,#'  ##    ##  '#,     ,#' ,#      #,     #,   #      #          
             '#######'   ##     ##  '#######'  #'      '#     '####' #    #          



                #########################################################
                #                        -***-                          #
                #          Department of theory and spectroscopy        #
                #                                                       #
                #                      Frank Neese                      #
                #                                                       #
                #     Directorship, Architecture, Infrastructure        #
                #                    SHARK, DRIVERS                     #
                #        Core code/Algorithms in most modules           #
                #                                                       #
                #        Max Planck Institute fuer Kohlenforschung      #
                #                Kaiser Wilhelm Platz 1                 #
                #                 D-45470 Muelheim/Ruhr                 #
                #                      Germany                          #
                #                                                       #
                #                  All rights reserved                  #
                #                        -***-                          #
                #########################################################


                         Program Version 6.1.0  -  RELEASE   -
                                (GIT: $679e74b$)
                          ($2025-06-10 18:02:51 +0200$)


 With contributions from (in alphabetic order):
[Max-Planck-Institut fuer Kohlenforschung]                               
  Daniel Aravena         : Magnetic Suceptibility                        
  Michael Atanasov       : Ab Initio Ligand Field Theory (pilot matlab implementation)
  Alexander A. Auer      : GIAO ZORA, VPT2 properties, NMR spectrum      
  Ute Becker             : All parallelization in ORCA, NUMFREQ, NUMCALC 
  Giovanni Bistoni       : ED, misc. LED, open-shell LED, HFLD           
  Dmytro Bykov           : pre 5.0 version of the SCF Hessian            
  Marcos Casanova-Páez   : Triplet and SCS-CIS(D). UHF-(DLPNO)-IP/EA/STEOM-CCSD. UHF-CVS-IP/STEOM-CCSD   
  Vijay G. Chilkuri      : MRCI spin determinant printing, contributions to CSF-ICE 
  Pauline Colinet        : FMM embedding                                 
  Dipayan Datta          : RHF DLPNO-CCSD density                        
  Achintya Kumar Dutta   : EOM-CC, STEOM-CC                              
  Nicolas Foglia         : Exact transition moments, OPA infrastructure, MCD improvements    
  Dmitry Ganyushin       : Spin-Orbit,Spin-Spin,Magnetic field MRCI      
  Miquel Garcia-Rates    : C-PCM and meta-GGA Hessian, CCSD/C-PCM, Gaussian charge scheme 
  Tiago L. C. Gouveia    : GS-ROHF, GS-ROCIS                             
  Yang Guo               : DLPNO-NEVPT2, F12-NEVPT2, CIM, IAO-localization        
  Andreas Hansen         : Spin unrestricted coupled pair/coupled cluster methods 
  Ingolf Harden          : AUTO-CI MPn and infrastructure                
  Benjamin Helmich-Paris : MC-RPA, TRAH-(SCF,CASSCF), AVAS, COSX integrals, SCF dyn. polar., MC-PDFT, srDFT 
  Lee Huntington         : MR-EOM, pCC                                   
  Robert Izsak           : Overlap fitted RIJCOSX, COSX-SCS-MP3, EOM     
  Riya Kayal             : Wick's Theorem for AUTO-CI, AUTO-CI UHF-CCSDT 
  Emily Kempfer          : AUTO-CI RHF CISDT and CCSDT, approximate NEVPT4
  Christian Kollmar      : KDIIS, OOCD, Brueckner-CCSD(T), CCSD density, CASPT2, CASPT2-K, improved NEVPT2 
  Axel Koslowski         : Symmetry handling                             
  Simone Kossmann        : meta-GGA functionals, TD-DFT gradient, OOMP2, (MP2 Hessian; deprecated post 5.0) 
  Lucas Lang             : DCDCAS, Hyperfine gauge corrections, ICE-SOC+SSC
  Marvin Lechner         : AUTO-CI (C++ implementation), FIC-MRCC        
  Spencer Leger          : CASSCF response                               
  Dagmar Lenk            : GEPOL surface, SMD, ORCA-2-JSON               
  Dimitrios Liakos       : Extrapolation schemes; Compound Job, Property file
  Dimitrios Manganas     : Further ROCIS development; embedding schemes. LFT, Crystal Embedding 
  Dimitrios Pantazis     : SARC Basis sets                               
  Anastasios Papadopoulos: AUTO-CI, single reference methods and gradients 
  Taras Petrenko         : pre 6.0 DFT Hessian and TD-DFT gradient,  ECA, NRVS 
  Petra Pikulova         : Analytic Raman intensities                    
  Peter Pinski           : DLPNO-MP2, DLPNO-MP2 Gradient                 
  Shashank Vittal Rao    : ES-AILFT, MagRelax                            
  Christoph Reimann      : Effective Core Potentials                     
  Marius Retegan         : Local ZFS, SOC                                
  Christoph Riplinger    : Optimizer, TS searches, QM/MM, DLPNO-CCSD(T), (RO)-DLPNO pert. Triples 
  Michael Roemelt        : Original ROCIS implementation, recursive CI coupling coefficients
  Masaaki Saitow         : Open-shell DLPNO-CCSD energy and density      
  Barbara Sandhoefer     : DKH picture change effects                    
  Yorick L. A. Schmerwitz: GMF and freeze-and-release deltaSCF, NEB S-IDPP initial path                    
  Kantharuban Sivalingam : CASSCF convergence/infrastructure, NEVPT2, NEVPT3, NEVPT4(SD), FIC-MRCI and CEPA variants
  Bernardo de Souza      : ESD, SOC TD-DFT                               
  Georgi L. Stoychev     : AutoAux, RI-MP2 NMR, DLPNO-MP2 response, X2C  
  Van Anh Tran           : RI-MP2 g-tensors                              
  Willem Van den Heuvel  : Paramagnetic NMR                              
  Zikuan Wang            : NOTCH, Electric field optimization            
  Frank Wennmohs         : Technical directorship and infrastructure     
  Hang Xu                : AUTO-CI-Response properties                   
                                                                         
[FACCTs GmbH]                                                            
  Markus Bursch, Nicolas Foglia, Miquel Garcia-Rates, Ingolf Harden, Hagen Neugebauer, Anastasios Papadopoulos, 
  Christoph Riplinger, Bernardo de Souza, Georgi L. Stoychev                                                    
                                                                 
  APM, various basis sets, CI-OPT, improved COSX, DLPNO-Multilevel,           
  DOCKER, DRACO, updates on ESD, Fragmentator, GOAT, IRC, LR-CPCM, L-BFGS, MBIS, meta-GGA TD-DFT gradient, ML-optimized integration grids, 
  MM, NACMEs, nearIR, NEB, NEB-TS, NL-DFT gradient (VV10), 2- and 3-layer-ONIOM, interface openCOSMO-RS, QMMM,   
  Crystal-QMMM, RESP, rigid body optimization, SF, symmetry and pop. for TD-DFT, various functionals, SOLVATOR                                   
                                                                         
[Other institutions]                                                     
  V. Asgeirsson          : NEB                                           
  Christoph Bannwarth    : sTDA-DFT, sTD-DFT, PBEh-3c, B97-3c, D3        
  Giovanni Bistoni       : ETS/NOCV, ADLD/ADEX, COVALED                  
  Martin Brehm           : Molecular dynamics                            
  Ronald Cardenas        : ETS/NOCV                                      
  Martina Colucci        : COVALED                                       
  Sebastian Ehlert       : rSCAN, r2SCAN, r2SCAN-3c, D4, dhf basis sets  
  Marvin Friede          : D4 for Fr, Ra, Ac-Lr                          
  Lars Goerigk           : TD-DFT with DH, B97 family of functionals     
  Stefan Grimme          : VdW corrections, initial TS optimization, DFT functionals, gCP, sTDA/sTD-DF 
  Waldemar Hujo          : DFT-NL                                        
  H. Jonsson             : NEB                                           
  Holger Kruse           : gCP                                           
  Marcel Mueller         : wB97X-3c, vDZP basis set                      
  Hagen Neugebauer       : wr2SCAN, Native XTB                           
  Gianluca Regni         : ADLD/ADEX                                     
  Tobias Risthaus        : pre 6.0 range-separated hybrid DFT and stability analysis
  Lukas Wittmann         : regularized MP2, r2SCAN double-hybrids, wr2SCAN        
                                                                         
We gratefully acknowledge several colleagues who have allowed us to      
interface, adapt or use parts of their codes:                            
  Ed Valeev, F. Pavosevic, A. Kumar             : LibInt (2-el integral package), F12 methods 
  Garnet Chan, S. Sharma, J. Yang, R. Olivares  : DMRG                   
  Ulf Ekstrom                                   : XCFun DFT Library      
  Mihaly Kallay                                 : mrcc  (arbitrary order and MRCC methods)
  Frank Weinhold                                : gennbo (NPA and NBO analysis)           
  Simon Mueller                                 : openCOSMO-RS                            
  Christopher J. Cramer and Donald G. Truhlar   : smd solvation model                     
  S Lehtola, MJT Oliveira, MAL Marques          : LibXC Library                           
  Liviu Ungur et al                             : ANISO software                          


 Your calculation uses the libint2 library for the computation of 2-el integrals
 For citations please refer to: http://libint.valeyev.net

 Your ORCA version has been built with support for libXC version: 7.0.0
 For citations please refer to: https://libxc.gitlab.io

 This ORCA versions uses:
   CBLAS   interface :  Fast vector & matrix operations
   LAPACKE interface :  Fast linear algebra routines
   SCALAPACK package :  Parallel linear algebra routines
   Shared memory     :  Shared parallel matrices
   BLAS/LAPACK       :  OpenBLAS 0.3.29  USE64BITINT DYNAMIC_ARCH NO_AFFINITY Bulldozer SINGLE_THREADED
        Core in use  :  Bulldozer
   Copyright (c) 2011-2014, The OpenBLAS Project


  ***********************************
  * Starting time: Fri Aug 15 10:29:04 2025
  * Host name:     chromium07
  * Process ID:    267859
  * Working dir.:  /local/scratch/mehlhorn/61939
  ***********************************



***************************************
The coordinates will be read from file: start.xyz
***************************************


Your calculation utilizes the geometrical counterpoise correction gCP
Please cite in your paper:
H.Kruse, S. Grimme J.Chem.Phys., 136, (2012), 154101 
   

Your calculation utilizes the atom-pairwise dispersion correction
with the Becke-Johnson damping scheme (D3BJ)


Warning: RI is on but no J-basis has been assigned. Assigning Def2/J (nothing to worry about!)
================================================================================

----- Orbital basis set information -----
Your calculation utilizes the basis: def2-SV(P)
   F. Weigend and R. Ahlrichs, Phys. Chem. Chem. Phys. 7, 3297 (2005).

----- AuxJ basis set information -----
Your calculation utilizes the auxiliary basis: def2/J
   H-Rn: F. Weigend, Phys. Chem. Chem. Phys. 8, 1057 (2006).
   Fr-Lr: K. Eichkorn, F. Weigend, O. Treutler, R. Ahlrichs; Theor. Chem. Acc. 97, 119 (1997).

================================================================================
                                        WARNINGS
                       Please study these warnings very carefully!
================================================================================


WARNING: Gradients are needed
  ===> : At least TightSCF should be used for SCF convergence

WARNING: Geometry Optimization
  ===> : Switching off AutoStart
         For restart on a previous wavefunction, please use MOREAD

================================================================================
                                       INPUT FILE
================================================================================
NAME = run.inp
|  1> # Geometry optimization for (AlH3)n cluster
|  2> 
|  3> %pal nprocs 24  end
|  4> 
|  5> %geom MaxIter 500 end
|  6> 
|  7> 
|  8> ! PBE def2-SV(P)
|  9> ! RKS	# closed shell for AlH3
| 10> ! D3    #  dispersion correction
| 11> ! gCP(DFT/SV(P))
| 12> ! Freq 	# Frequency analysis to check the stabiltity of the structures
| 13> 
| 14> ! NoPop # population analysis not necessary	
| 15> 
| 16> ! RI
| 17> ! DEFGRID2
| 18> ! NormalSCF
| 19> ! SloppyOpt
| 20> 
| 21> ! SmallPrint
| 22> 
| 23> 
| 24> * xyzFile 0 1 start.xyz # only maingroup elements H and Al so there should be no net spin
| 25> 
| 26>                          ****END OF INPUT****
================================================================================

                       *****************************
                       * Geometry Optimization Run *
                       *****************************

Geometry optimization settings:
Update method            Update   .... BFGS
Choice of coordinates    CoordSys .... (2022) Redundant Internals
Initial Hessian          InHess   .... Almloef's Model
Max. no of cycles        MaxIter  .... 500

Convergence Tolerances:
Energy Change            TolE     ....  8.0000e-05 Eh
Max. Gradient            TolMAXG  ....  5.0000e-03 Eh/bohr
RMS Gradient             TolRMSG  ....  1.0000e-03 Eh/bohr
Max. Displacement        TolMAXD  ....  3.0000e-02 bohr
RMS Displacement         TolRMSD  ....  2.0000e-02 bohr
Strict Convergence                .... False

------------------------------------------------------------------------------
                        ORCA OPTIMIZATION COORDINATE SETUP
------------------------------------------------------------------------------

The optimization will be done in redundant internal coordinates (2022)
Making redundant internal coordinates   ...  (2022 redundants) done
Evaluating the initial hessian          ...  (Almloef) done
Evaluating the coordinates              ...  done
Calculating the B-matrix                .... done
Calculating the G-matrix                .... done
The number of degrees of freedom        ....  209

    -----------------------------------------------------------------
                    Redundant Internal Coordinates


    -----------------------------------------------------------------
         Definition                    Initial Value    Approx d2E/dq
    -----------------------------------------------------------------
      1. B(Al  1,Al  0)                  3.1887         0.041419   
      2. B(H   2,Al  1)                  1.7014         0.267051   
      3. B(H   3,Al  1)                  1.5963         0.392920   
      4. B(H   4,Al  1)                  1.6275         0.350343   
      5. B(H   5,Al  0)                  1.5953         0.394337   
      6. B(H   6,Al  0)                  1.7025         0.265963   
      7. B(H   7,Al  1)                  1.5576         0.452920   
      8. B(Al  8,H   2)                  1.7011         0.267316   
      9. B(Al  8,Al  1)                  3.2024         0.039391   
     10. B(H   9,Al  8)                  1.5224         0.515476   
     11. B(H  10,Al  8)                  1.5969         0.391948   
     12. B(H  11,Al  0)                  1.5979         0.390588   
     13. B(Al 12,Al  8)                  3.0079         0.080461   
     14. B(Al 12,H   6)                  1.7019         0.266550   
     15. B(Al 12,Al  0)                  3.1300         0.051382   
     16. B(Al 12,H   9)                  1.8822         0.137422   
     17. B(H  13,Al 12)                  1.9367         0.112488   
     18. B(H  14,Al 12)                  1.2193         1.569177   
     19. B(H  15,Al  8)                  1.5964         0.392662   
     20. B(Al 16,H  13)                  1.6165         0.364757   
     21. B(Al 16,Al 12)                  2.5955         0.366129   
     22. B(H  17,Al 16)                  1.9327         0.114144   
     23. B(H  18,Al 16)                  1.5655         0.439932   
     24. B(H  19,H  17)                  2.8828         0.010000   
     25. B(H  19,H  13)                  2.4224         0.010000   
     26. B(H  19,Al 16)                  2.3240         0.027119   
     27. A(H   5,Al  0,H  11)          109.6796         0.381736   
     28. A(Al  1,Al  0,H   6)           89.1448         0.285555   
     29. A(H   6,Al  0,H  11)          109.6231         0.356771   
     30. A(Al  1,Al  0,H   5)          117.4708         0.303881   
     31. A(Al  1,Al  0,Al 12)           88.3807         0.254261   
     32. A(H   5,Al  0,Al 12)          129.4012         0.314625   
     33. A(Al  1,Al  0,H  11)          119.2182         0.303417   
     34. A(H   5,Al  0,H   6)          109.2681         0.357350   
     35. A(H  11,Al  0,Al 12)           89.8896         0.314138   
     36. A(H   6,Al  0,Al 12)           23.1555         0.295383   
     37. A(H   3,Al  1,H   4)           82.5059         0.374387   
     38. A(H   2,Al  1,H   3)          109.1148         0.357379   
     39. A(Al  0,Al  1,Al  8)           87.9291         0.244613   
     40. A(H   3,Al  1,H   7)          130.4463         0.391466   
     41. A(H   4,Al  1,H   7)          134.2234         0.383716   
     42. A(Al  0,Al  1,H   4)           36.1512         0.298204   
     43. A(H   7,Al  1,Al  8)           79.4821         0.308219   
     44. A(H   2,Al  1,Al  8)           19.7470         0.283514   
     45. A(H   4,Al  1,Al  8)          107.4058         0.295841   
     46. A(Al  0,Al  1,H   3)          118.4095         0.303706   
     47. A(H   2,Al  1,H   7)           98.4486         0.366152   
     48. A(Al  0,Al  1,H   7)          101.7511         0.310724   
     49. A(H   3,Al  1,Al  8)          126.6046         0.301280   
     50. A(H   2,Al  1,H   4)           97.8023         0.350502   
     51. A(Al  0,Al  1,H   2)           89.4044         0.285737   
     52. A(Al  1,H   2,Al  8)          140.5028         0.334973   
     53. A(Al  0,H   6,Al 12)          133.6804         0.334586   
     54. A(Al 12,Al  8,H  15)          137.4727         0.338490   
     55. A(H  10,Al  8,H  15)          109.6409         0.381685   
     56. A(H   9,Al  8,H  15)          159.5759         0.400408   
     57. A(Al  1,Al  8,H  15)          100.1646         0.301249   
     58. A(H   9,Al  8,H  10)           66.1658         0.400280   
     59. A(H   2,Al  8,H  10)          109.2527         0.357289   
     60. A(Al  1,Al  8,H  10)          128.9367         0.301162   
     61. A(H   2,Al  8,H   9)           90.2838         0.374452   
     62. A(Al  1,Al  8,H   9)           97.2031         0.314734   
     63. A(Al  1,Al  8,H   2)           19.7502         0.283558   
     64. A(H   2,Al  8,H  15)          109.5674         0.357400   
     65. A(H   2,Al  8,Al 12)           93.9519         0.317694   
     66. A(Al  1,Al  8,Al 12)           90.2912         0.269850   
     67. A(H  10,Al  8,Al 12)           94.2615         0.338387   
     68. A(H   9,Al  8,Al 12)           31.3351         0.354340   
     69. A(Al  8,H   9,Al 12)          123.7917         0.334543   
     70. A(H   9,Al 12,Al 16)           88.9142         0.366200   
     71. A(Al  8,Al 12,Al 16)           95.6644         0.388549   
     72. A(H   6,Al 12,Al 16)          147.8332         0.411044   
     73. A(Al  0,Al 12,Al 16)          168.0904         0.359635   
     74. A(H  13,Al 12,H  14)          130.0297         0.390908   
     75. A(H   9,Al 12,H  14)           95.0894         0.404903   
     76. A(Al  8,Al 12,H  14)           70.2344         0.430373   
     77. A(H   6,Al 12,H  14)          107.8652         0.456009   
     78. A(Al  0,Al 12,H  14)           87.0099         0.397422   
     79. A(H   9,Al 12,H  13)          110.5416         0.262979   
     80. A(Al  8,Al 12,H  13)          127.8194         0.277006   
     81. A(H   6,Al 12,H  13)          116.9207         0.291124   
     82. A(Al  0,Al 12,H  13)          130.0472         0.258859   
     83. A(Al  8,Al 12,H   9)           24.8733         0.285721   
     84. A(H   6,Al 12,H   9)           83.2573         0.300494   
     85. A(Al  0,Al 12,H   9)           95.0081         0.266733   
     86. A(H   6,Al 12,Al  8)           90.1985         0.317546   
     87. A(Al  0,Al 12,Al  8)           92.5574         0.281062   
     88. A(H  13,Al 12,Al 16)           38.4412         0.353919   
     89. A(Al  0,Al 12,H   6)           23.1641         0.295486   
     90. A(H  14,Al 12,Al 16)          103.8703         0.570029   
     91. A(Al 16,H  13,H  19)           66.8408         0.132431   
     92. A(Al 12,H  13,H  19)          149.3546         0.122279   
     93. A(Al 12,H  13,Al 16)           93.4109         0.305996   
     94. A(H  17,Al 16,H  19)           84.7243         0.209897   
     95. A(H  13,Al 16,H  19)           73.4029         0.246258   
     96. A(Al 12,Al 16,H  19)          117.4112         0.280989   
     97. A(H  17,Al 16,H  18)          124.9782         0.316147   
     98. A(H  13,Al 16,H  18)          115.7180         0.384465   
     99. A(Al 12,Al 16,H  18)           72.6160         0.449718   
    100. A(H  18,Al 16,H  19)          130.0683         0.253072   
    101. A(H  13,Al 16,H  17)          114.6092         0.306714   
    102. A(Al 12,Al 16,H  17)          134.1853         0.354796   
    103. A(Al 12,Al 16,H  13)           48.1479         0.434739   
    104. A(Al 16,H  17,H  19)           53.3930         0.111769   
    105. A(H  13,H  19,H  17)           68.0192         0.093542   
    106. A(Al 16,H  19,H  17)           41.8827         0.105446   
    107. A(H  13,H  19,Al 16)           39.7564         0.113117   
    108. D(H   2,Al  1,Al  0,H   6)      3.2105         0.010000   
    109. D(H   3,Al  1,Al  0,H   5)      3.3638         0.010000   
    110. D(H   2,Al  1,Al  0,H   5)   -108.1482         0.010000   
    111. D(H   3,Al  1,Al  0,H  11)   -133.1616         0.010000   
    112. D(H   3,Al  1,Al  0,Al 12)    137.8710         0.010000   
    113. D(H   3,Al  1,Al  0,H   6)    114.7224         0.010000   
    114. D(H   2,Al  1,Al  0,H  11)    115.3264         0.010000   
    115. D(H   4,Al  1,Al  0,H   5)     -4.0038         0.010000   
    116. D(H   2,Al  1,Al  0,Al 12)     26.3590         0.010000   
    117. D(Al  8,H   2,Al  1,Al  0)    -85.5264         0.010000   
    118. D(Al  8,H   2,Al  1,H   7)     16.2658         0.010000   
    119. D(Al  8,H   2,Al  1,H   4)   -120.7928         0.010000   
    120. D(Al  8,H   2,Al  1,H   3)    154.4765         0.010000   
    121. D(Al 12,H   6,Al  0,Al  1)     87.8814         0.010000   
    122. D(Al 12,H   6,Al  0,H  11)    -32.9805         0.010000   
    123. D(Al 12,H   6,Al  0,H   5)   -153.2040         0.010000   
    124. D(H   9,Al  8,Al  1,H   2)    -70.2917         0.010000   
    125. D(H  10,Al  8,H   2,Al  1)    175.6990         0.010000   
    126. D(H   9,Al  8,Al  1,H   4)     -7.1771         0.010000   
    127. D(H  10,Al  8,Al  1,Al  0)     88.7882         0.010000   
    128. D(H   9,Al  8,Al  1,H   7)    126.0753         0.010000   
    129. D(H   9,Al  8,H   2,Al  1)    110.9323         0.010000   
    130. D(H   2,Al  8,Al  1,H   4)     63.1146         0.010000   
    131. D(H   2,Al  8,Al  1,H   7)   -163.6330         0.010000   
    132. D(H   9,Al  8,Al  1,H   3)   -100.7659         0.010000   
    133. D(H  15,Al  8,H   2,Al  1)    -64.1684         0.010000   
    134. D(H   2,Al  8,Al  1,Al  0)     94.0107         0.010000   
    135. D(H   2,Al  8,Al  1,H   3)    -30.4742         0.010000   
    136. D(Al 12,Al  8,H   2,Al  1)     79.7855         0.010000   
    137. D(H   9,Al  8,Al  1,Al  0)     23.7190         0.010000   
    138. D(Al 12,H   9,Al  8,Al  1)    -78.5958         0.014381   
    139. D(Al 12,H   9,Al  8,H  15)     69.5218         0.014381   
    140. D(Al 12,H   9,Al  8,H  10)    151.8589         0.014381   
    141. D(Al 12,H   9,Al  8,H   2)    -97.1457         0.014381   
    142. D(H   6,Al 12,H   9,Al  8)    105.2663         0.010000   
    143. D(Al  0,Al 12,H   9,Al  8)     85.2664         0.010000   
    144. D(H   9,Al 12,Al  8,Al  1)    103.4599         0.010000   
    145. D(H   6,Al 12,Al  8,H  10)    -98.9784         0.010000   
    146. D(H   6,Al 12,Al  8,H   9)    -73.3446         0.010000   
    147. D(H   6,Al 12,Al  8,H   2)     10.6905         0.010000   
    148. D(Al  0,Al 12,Al  8,H  15)    112.5268         0.010000   
    149. D(Al  0,Al 12,Al  8,H  10)   -122.0305         0.010000   
    150. D(Al  0,Al 12,Al  8,H   9)    -96.3967         0.010000   
    151. D(Al 16,Al 12,H   6,Al  0)    162.9478         0.010000   
    152. D(H  14,Al 12,H   6,Al  0)    -26.7905         0.010000   
    153. D(Al  0,Al 12,Al  8,Al  1)      7.0632         0.010000   
    154. D(H  13,Al 12,H   6,Al  0)    130.3659         0.010000   
    155. D(H   9,Al 12,H   6,Al  0)   -119.9862         0.010000   
    156. D(Al  8,Al 12,H   6,Al  0)    -96.0466         0.010000   
    157. D(H   9,Al 12,Al  0,H   6)     59.7064         0.010000   
    158. D(Al  8,Al 12,Al  0,H   5)    117.9327         0.010000   
    159. D(Al  8,Al 12,Al  0,H  11)   -126.3310         0.010000   
    160. D(H   9,Al 12,Al  0,Al  1)    -31.9055         0.010000   
    161. D(H   6,Al 12,Al  8,Al  1)     30.1153         0.010000   
    162. D(Al  8,Al 12,Al  0,H   6)     84.5154         0.010000   
    163. D(Al  0,Al 12,Al  8,H   2)    -12.3616         0.010000   
    164. D(Al  8,Al 12,Al  0,Al  1)     -7.0964         0.010000   
    165. D(H   6,Al 12,Al  8,H  15)    135.5789         0.010000   
    166. D(H   6,Al 12,Al  0,H  11)    149.1535         0.010000   
    167. D(H   9,Al 12,Al  0,H   5)     93.1237         0.010000   
    168. D(H   6,Al 12,Al  0,Al  1)    -91.6118         0.010000   
    169. D(H  13,Al 12,H   9,Al  8)   -138.4661         0.010000   
    170. D(H   6,Al 12,Al  0,H   5)     33.4173         0.010000   
    171. D(Al 16,Al 12,H   9,Al  8)   -105.9970         0.010000   
    172. D(H  14,Al 12,H   9,Al  8)     -2.1678         0.010000   
    173. D(H  19,H  13,Al 12,Al  8)     -8.7322         0.010000   
    174. D(H  19,H  13,Al 12,H   6)    104.7878         0.010000   
    175. D(H  19,H  13,Al 12,Al  0)    127.8370         0.010000   
    176. D(Al 16,H  13,Al 12,H  14)    -56.3126         0.010000   
    177. D(Al 16,H  13,Al 12,H   9)     59.6938         0.010000   
    178. D(Al 16,H  13,Al 12,Al  8)     39.0196         0.010000   
    179. D(Al 16,H  13,Al 12,H   6)    152.5397         0.010000   
    180. D(Al 16,H  13,Al 12,Al  0)    175.5889         0.010000   
    181. D(H  19,Al 16,H  13,Al 12)   -155.7708         0.010000   
    182. D(H  18,Al 16,H  13,H  19)    127.0115         0.010000   
    183. D(H  17,Al 16,H  13,H  19)    -75.9924         0.010000   
    184. D(H  17,Al 16,H  13,Al 12)    128.2369         0.010000   
    185. D(Al 12,Al 16,H  13,H  19)    155.7708         0.010000   
    186. D(H  17,Al 16,Al 12,H  13)    -84.7791         0.010000   
    187. D(H  17,Al 16,Al 12,H   9)    149.1796         0.010000   
    188. D(H  17,Al 16,Al 12,Al  8)    125.2064         0.010000   
    189. D(H  17,Al 16,Al 12,H   6)   -135.3401         0.010000   
    190. D(H  17,Al 16,Al 12,Al  0)   -101.3561         0.010000   
    191. D(H  13,Al 16,Al 12,H  14)    138.9843         0.010000   
    192. D(H  13,Al 16,Al 12,H   9)   -126.0413         0.010000   
    193. D(H  18,Al 16,H  13,Al 12)    -28.7593         0.010000   
    194. D(H  13,Al 16,Al 12,Al  8)   -150.0145         0.010000   
    195. D(H  13,Al 16,Al 12,H   6)    -50.5611         0.010000   
    196. D(H  13,Al 16,Al 12,Al  0)    -16.5771         0.010000   
    197. D(H  19,H  17,Al 16,H  18)   -136.4141         0.010000   
    198. D(H  19,H  17,Al 16,H  13)     69.0344         0.010000   
    199. D(H  19,H  17,Al 16,Al 12)    123.7096         0.010000   
    200. D(H  13,H  19,H  17,Al 16)    -37.6587         0.010000   
    201. D(H  17,H  19,Al 16,H  18)    132.4239         0.010000   
    202. D(H  17,H  19,Al 16,H  13)   -117.6392         0.010000   
    203. D(H  17,H  19,Al 16,Al 12)   -137.7812         0.010000   
    204. D(H  13,H  19,Al 16,H  18)   -109.9368         0.010000   
    205. D(H  13,H  19,Al 16,H  17)    117.6392         0.010000   
    206. D(H  13,H  19,Al 16,Al 12)    -20.1420         0.010000   
    207. D(H  17,H  19,H  13,Al 16)     39.6269         0.010000   
    208. D(H  17,H  19,H  13,Al 12)     93.1113         0.010000   
    209. D(Al 16,H  19,H  13,Al 12)     53.4843         0.010000   
    -----------------------------------------------------------------

Number of atoms                         .... 20
Number of degrees of freedom            .... 209


         *************************************************************
         *                GEOMETRY OPTIMIZATION CYCLE   1            *
         *************************************************************
---------------------------------
CARTESIAN COORDINATES (ANGSTROEM)
---------------------------------
  Al    -0.334910    1.128240    2.788780
  Al     0.131570   -0.237880   -0.054440
  H     -0.138010   -1.761440    0.653210
  H     -0.952330    0.005180   -1.200790
  H     -0.933150    0.611160    0.836730
  H     -1.687050    1.948480    2.998140
  H     -0.504810   -0.419960    3.476290
  H      1.686410   -0.292100   -0.129050
  Al     0.695350   -2.986740    1.488620
  H     -0.073070   -2.653160    2.759770
  H     -0.339650   -4.118820    1.932870
  H      0.875790    1.897910    3.492360
  Al     0.594870   -1.544490    4.126330
  H      0.170530   -2.280430    5.866800
  H      1.677000   -1.359000    3.595910
  H      1.808520   -3.621220    0.536310
  Al     0.971960   -3.656210    5.587480
  H      2.248440   -4.136350    6.957000
  H      1.052110   -4.103570    4.089410
  H     -0.623360   -4.134620    7.208260

----------------------------
CARTESIAN COORDINATES (A.U.)
----------------------------
  NO LB      ZA    FRAG     MASS         X           Y           Z
   0 Al   13.0000    0    26.982   -0.632888    2.132065    5.270030
   1 Al   13.0000    0    26.982    0.248631   -0.449528   -0.102877
   2 H     1.0000    0     1.008   -0.260801   -3.328639    1.234388
   3 H     1.0000    0     1.008   -1.799643    0.009789   -2.269164
   4 H     1.0000    0     1.008   -1.763398    1.154925    1.581191
   5 H     1.0000    0     1.008   -3.188062    3.682094    5.665664
   6 H     1.0000    0     1.008   -0.953953   -0.793609    6.569236
   7 H     1.0000    0     1.008    3.186853   -0.551989   -0.243869
   8 Al   13.0000    0    26.982    1.314021   -5.644121    2.813084
   9 H     1.0000    0     1.008   -0.138082   -5.013746    5.215209
  10 H     1.0000    0     1.008   -0.641845   -7.783442    3.652595
  11 H     1.0000    0     1.008    1.655003    3.586530    6.599604
  12 Al   13.0000    0    26.982    1.124141   -2.918663    7.797634
  13 H     1.0000    0     1.008    0.322255   -4.309388   11.086645
  14 H     1.0000    0     1.008    3.169071   -2.568138    6.795285
  15 H     1.0000    0     1.008    3.417608   -6.843114    1.013479
  16 Al   13.0000    0    26.982    1.836738   -6.909236   10.558807
  17 H     1.0000    0     1.008    4.248936   -7.816569   13.146825
  18 H     1.0000    0     1.008    1.988200   -7.754623    7.727865
  19 H     1.0000    0     1.008   -1.177980   -7.813299   13.621637

--------------------------------
INTERNAL COORDINATES (ANGSTROEM)
--------------------------------
 Al     0   0   0     0.000000000000     0.00000000     0.00000000
 Al     1   0   0     3.188696820521     0.00000000     0.00000000
 H      2   1   0     1.701375024061    89.40442192     0.00000000
 H      2   1   3     1.596256776368   118.40948604   111.51198666
 H      2   1   3     1.627477056336    36.15121844   104.14441292
 H      1   2   3     1.595276730477   117.47081525   251.85176374
 H      1   2   3     1.702486196743    89.14476205     3.21046077
 H      2   1   3     1.557573075685   101.75109048   261.49404049
 Al     3   2   1     1.701105184196   140.50277328   274.47363588
 H      9   3   2     1.522355817574    90.28375695   110.93226490
 H      9   3   2     1.596930865410   109.25269562   175.69900891
 H      1   2   3     1.597877096431   119.21817801   115.32643808
 Al     7   1   2     1.701885961191   133.68037010    87.88138971
 H     13   7   1     1.936726088041   116.92065137   130.36593246
 H     13   7   1     1.219326557326   107.86521132   333.20948599
 H      9   3   2     1.596435609538   109.56737133   295.83155502
 Al    14  13   7     1.616502494802    93.41086894   152.53970090
 H     17  14  13     1.932749502755   114.60924408   128.23686184
 H     17  14  13     1.565493122629   115.71800657   331.24074761
 H     17  14  13     2.323972856748    73.40288193   204.22923330

---------------------------
INTERNAL COORDINATES (A.U.)
---------------------------
 Al     0   0   0     0.000000000000     0.00000000     0.00000000
 Al     1   0   0     6.025763714890     0.00000000     0.00000000
 H      2   1   0     3.215132846570    89.40442192     0.00000000
 H      2   1   3     3.016488146751   118.40948604   111.51198666
 H      2   1   3     3.075485925715    36.15121844   104.14441292
 H      1   2   3     3.014636128418   117.47081525   251.85176374
 H      1   2   3     3.217232658625    89.14476205     3.21046077
 H      2   1   3     2.943386546615   101.75109048   261.49404049
 Al     3   2   1     3.214622923125   140.50277328   274.47363588
 H      9   3   2     2.876835573596    90.28375695   110.93226490
 H      9   3   2     3.017761990431   109.25269562   175.69900891
 H      1   2   3     3.019550107921   119.21817801   115.32643808
 Al     7   1   2     3.216098377817   133.68037010    87.88138971
 H     13   7   1     3.659881902819   116.92065137   130.36593246
 H     13   7   1     2.304193261163   107.86521132   333.20948599
 H      9   3   2     3.016826092466   109.56737133   295.83155502
 Al    14  13   7     3.054747009976    93.41086894   152.53970090
 H     17  14  13     3.652367245680   114.60924408   128.23686184
 H     17  14  13     2.958353266307   115.71800657   331.24074761
 H     17  14  13     4.391672241920    73.40288193   204.22923330

---------------------
BASIS SET INFORMATION
---------------------
There are 2 groups of distinct atoms

 Group   1 Type Al  : 10s7p1d contracted to 4s3p1d pattern {5311/511/1}
 Group   2 Type H   : 4s contracted to 2s pattern {31}

Atom   0Al   basis set group =>   1
Atom   1Al   basis set group =>   1
Atom   2H    basis set group =>   2
Atom   3H    basis set group =>   2
Atom   4H    basis set group =>   2
Atom   5H    basis set group =>   2
Atom   6H    basis set group =>   2
Atom   7H    basis set group =>   2
Atom   8Al   basis set group =>   1
Atom   9H    basis set group =>   2
Atom  10H    basis set group =>   2
Atom  11H    basis set group =>   2
Atom  12Al   basis set group =>   1
Atom  13H    basis set group =>   2
Atom  14H    basis set group =>   2
Atom  15H    basis set group =>   2
Atom  16Al   basis set group =>   1
Atom  17H    basis set group =>   2
Atom  18H    basis set group =>   2
Atom  19H    basis set group =>   2
---------------------------------
AUXILIARY/J BASIS SET INFORMATION
---------------------------------
There are 2 groups of distinct atoms

 Group   1 Type Al  : 14s5p5d2f1g contracted to 8s4p3d1f1g pattern {71111111/2111/311/2/1}
 Group   2 Type H   : 5s2p1d contracted to 3s1p1d pattern {311/2/1}

Atom   0Al   basis set group =>   1
Atom   1Al   basis set group =>   1
Atom   2H    basis set group =>   2
Atom   3H    basis set group =>   2
Atom   4H    basis set group =>   2
Atom   5H    basis set group =>   2
Atom   6H    basis set group =>   2
Atom   7H    basis set group =>   2
Atom   8Al   basis set group =>   1
Atom   9H    basis set group =>   2
Atom  10H    basis set group =>   2
Atom  11H    basis set group =>   2
Atom  12Al   basis set group =>   1
Atom  13H    basis set group =>   2
Atom  14H    basis set group =>   2
Atom  15H    basis set group =>   2
Atom  16Al   basis set group =>   1
Atom  17H    basis set group =>   2
Atom  18H    basis set group =>   2
Atom  19H    basis set group =>   2


           ************************************************************
           *        Program running with 24 parallel MPI-processes    *
           *              working on a common directory               *
           ************************************************************
------------------------------------------------------------------------------
                             ORCA STARTUP CALCULATIONS
                           -- RI-GTO INTEGRALS CHOSEN --
------------------------------------------------------------------------------
------------------------------------------------------------------------------
                   ___                                                        
                  /   \      - P O W E R E D   B Y -                         
                 /     \                                                     
                 |  |  |   _    _      __       _____    __    __             
                 |  |  |  | |  | |    /  \     |  _  \  |  |  /  |          
                  \  \/   | |  | |   /    \    | | | |  |  | /  /          
                 / \  \   | |__| |  /  /\  \   | |_| |  |  |/  /          
                |  |  |   |  __  | /  /__\  \  |    /   |      \           
                |  |  |   | |  | | |   __   |  |    \   |  |\   \          
                \     /   | |  | | |  |  |  |  | |\  \  |  | \   \       
                 \___/    |_|  |_| |__|  |__|  |_| \__\ |__|  \__/        
                                                                              
                      - O R C A' S   B I G   F R I E N D -                    
                                      &                                       
                       - I N T E G R A L  F E E D E R -                       
                                                                              
 v1 FN, 2020, v2 2021, v3 2022-2024                                           
------------------------------------------------------------------------------


----------------------
SHARK INTEGRAL PACKAGE
----------------------

Number of atoms                             ...     20
Number of basis functions                   ...    120
Number of shells                            ...     70
Maximum angular momentum                    ...      2
Integral batch strategy                     ... SHARK/LIBINT Hybrid
RI-J (if used) integral strategy            ... SPLIT-RIJ (Revised 2003 algorithm where possible)
Printlevel                                  ...      1
Contraction scheme used                     ... SEGMENTED contraction
Prescreening option                         ... SCHWARTZ
   Thresh                                   ... 1.000e-10
   Tcut                                     ... 1.000e-11
   Tpresel                                  ... 1.000e-11 
Coulomb Range Separation                    ... NOT USED
Exchange Range Separation                   ... NOT USED
Multipole approximations                    ... NOT USED
Finite Nucleus Model                        ... NOT USED
CABS basis                                  ... NOT available
Auxiliary Coulomb fitting basis             ... AVAILABLE
   # of basis functions in Aux-J            ...    420
   # of shells in Aux-J                     ...    160
   Maximum angular momentum in Aux-J        ...      4
Auxiliary J/K fitting basis                 ... NOT available
Auxiliary Correlation fitting basis         ... NOT available
Auxiliary 'external' fitting basis          ... NOT available

Checking pre-screening integrals            ... done (  0.0 sec) Dimension = 70
   => SHARK Basis and OBASIS are compatible. Storing Pre-screening
Shell pair information
Shell pair cut-off parameter TPreSel        ...   1.0e-11
Total number of shell pairs                 ...      2485
Shell pairs after pre-screening             ...      2258
Total number of primitive shell pairs       ...     11485
Primitive shell pairs kept                  ...      6864
          la=0 lb=0:   1137 shell pairs
          la=1 lb=0:    684 shell pairs
          la=1 lb=1:    113 shell pairs
          la=2 lb=0:    236 shell pairs
          la=2 lb=1:     73 shell pairs
          la=2 lb=2:     15 shell pairs

Checking whether 4 symmetric matrices of dimension 120 fit in memory
:Max Core in MB      =   4096.00
 MB in use           =      6.32
 MB left             =   4089.68
 MB needed           =      0.22
 Data fit in memory  = YES
Calculating RI/J V-Matrix + Cholesky decomp.... done (  0.1 sec)
Calculating Nuclear repulsion               ... done (  0.0 sec) ENN=    421.825199668336 Eh

Diagonalization of the overlap matrix:
Smallest eigenvalue                        ... 3.124e-03
Time for diagonalization                   ...    0.037 sec
Threshold for overlap eigenvalues          ... 1.000e-07
Number of eigenvalues below threshold      ... 0
Time for construction of square roots      ...    0.002 sec
Total time needed                          ...    0.041 sec

-------------------
DFT GRID GENERATION
-------------------

General Integration Accuracy     IntAcc      ... 4.388
Radial Grid Type                 RadialGrid  ... OptM3 with GC (2021)
Angular Grid (max. ang.)         AngularGrid ... 4 (Lebedev-302)
Angular grid pruning method      GridPruning ... 4 (adaptive)
Weight generation scheme         WeightScheme... mBecke (2022)
Basis function cutoff            BFCut       ... 1.0000e-10
Integration weight cutoff        WCut        ... 1.0000e-14
Partially contracted basis set               ... off
Rotationally invariant grid construction     ... off
Angular grids for H and He will be reduced by one unit

Total number of grid points                  ...    84799
Total number of batches                      ...     1336
Average number of points per batch           ...       63
Average number of grid points per atom       ...     4240
Grids setup in   1.3 sec
Initializing property integral containers    ... done (  0.0 sec)

SHARK setup successfully completed in   1.8 seconds

Maximum memory used throughout the entire STARTUP-calculation: 20.0 MB


           ************************************************************
           *        Program running with 24 parallel MPI-processes    *
           *              working on a common directory               *
           ************************************************************
-------------------------------------------------------------------------------
                                 ORCA GUESS
                   Start orbitals & Density for SCF / CASSCF
-------------------------------------------------------------------------------

------------
SCF SETTINGS
------------
Hamiltonian:
 Density Functional     Method          .... DFT(GTOs)
 Exchange Functional    Exchange        .... PBE
   PBE kappa parameter   XKappa         ....  0.804000
   PBE mue parameter    XMuePBE         ....  0.219520
 Correlation Functional Correlation     .... PBE
   PBE beta parameter  CBetaPBE         ....  0.066725
 LDA part of GGA corr.  LDAOpt          .... PW91-LDA
 Gradients option       PostSCFGGA      .... off
   NL short-range parameter             ....  6.400000
 RI-approximation to the Coulomb term is turned on
   Number of AuxJ basis functions       .... 420


General Settings:
 Integral files         IntName         .... run
 Hartree-Fock type      HFTyp           .... RHF
 Total Charge           Charge          ....    0
 Multiplicity           Mult            ....    1
 Number of Electrons    NEL             ....   80
 Basis Dimension        Dim             ....  120
 Nuclear Repulsion      ENuc            ....    421.8251996683 Eh

Convergence Acceleration:
 AO-DIIS                CNVDIIS         .... on
   Start iteration      DIISMaxIt       ....    12
   Startup error        DIISStart       ....  0.200000
   # of expansion vecs  DIISMaxEq       ....     5
   Bias factor          DIISBfac        ....   1.050
   Max. coefficient     DIISMaxC        ....  10.000
 MO-DIIS                CNVKDIIS        .... off
 Trust-Rad. Augm. Hess. CNVTRAH         .... auto
   Auto Start mean grad. ratio tolernc. ....  1.125000
   Auto Start start iteration           ....    50
   Auto Start num. interpolation iter.  ....    10
   Max. Number of Micro iterations      ....    24
   Max. Number of Macro iterations      .... Maxiter - #DIIS iter
   Number of Davidson start vectors     ....     2
   Converg. threshold    (grad. norm)   ....   5.000e-05
   Grad. Scal. Fac. for Micro threshold ....   0.100
   Minimum threshold for Micro iter.    ....   1.000e-02
   NR start threshold (gradient norm)   ....   1.000e-04
   Initial trust radius                 ....   0.400
   Minimum AH scaling param. (alpha)    ....   1.000
   Maximum AH scaling param. (alpha)    .... 1000.000
   Quad. conv. algorithm                .... NR
   White noise on init. David. guess    .... on
   Maximum white noise                  ....   0.010
   Pseudo random numbers                .... off
   Inactive MOs                         .... canonical
   Orbital update algorithm             .... Taylor
   Preconditioner                       .... Diag
   Full preconditioner red. dimension   ....   250
 SOSCF                 CNVSOSCF           .... on
   Start iteration     SOSCFMaxIt         ....   150
   Startup grad/error  SOSCFStart         ....  0.003300
   Hessian update      SOSCFHessUp        .... L-BFGS
   Autom. constraints  SOSCFAutoConstrain .... off
 Level Shifting         CNVShift        .... on
   Level shift para.    LevelShift      ....    0.2500
   Turn off err/grad.   ShiftErr        ....    0.0010
 Zerner damping         CNVZerner       .... off
 Static damping         CNVDamp         .... on
   Fraction old density DampFac         ....    0.7000
   Max. Damping (<1)    DampMax         ....    0.9800
   Min. Damping (>=0)   DampMin         ....    0.0000
   Turn off err/grad.   DampErr         ....    0.1000

SCF Procedure:
 Maximum # iterations   MaxIter         ....   125
 SCF integral mode      SCFMode         .... Direct
   Integral package                     .... SHARK and LIBINT hybrid scheme
 Reset frequency        DirectResetFreq ....    20
 Integral Threshold     Thresh          ....  1.000e-10 Eh
 Primitive CutOff       TCut            ....  1.000e-11 Eh

Convergence Tolerance:
 Convergence Check Mode ConvCheckMode   .... Total+1el-Energy
 Convergence forced     ConvForced      .... 0
 Energy Change          TolE            ....  1.000e-06 Eh
 1-El. energy change                    ....  1.000e-03 Eh
 Orbital Gradient       TolG            ....  5.000e-05
 Orbital Rotation angle TolX            ....  5.000e-05
 DIIS Error             TolErr          ....  1.000e-05

------------------------------
INITIAL GUESS: MODEL POTENTIAL
------------------------------
Loading Hartree-Fock densities                     ... done
Calculating cut-offs                               ... done
Initializing the effective Hamiltonian             ... done
Setting up the integral package (SHARK)            ... done
Starting the Coulomb interaction                   ... done (   0.1 sec)
Making the grid                                    ... done (   0.2 sec)
Mapping shells                                     ... done
Starting the XC term evaluation                    ... done (   0.0 sec)
  promolecular density results
     # of electrons  =     79.984548599
     EX              =    -94.500572472
     EC              =     -2.763448408
     EX+EC           =    -97.264020880
Transforming the Hamiltonian                       ... done (   0.0 sec)
Diagonalizing the Hamiltonian                      ... done (   0.0 sec)
Back transforming the eigenvectors                 ... done (   0.0 sec)
Now organizing SCF variables                       ... done
                      ------------------
                      INITIAL GUESS DONE (   0.3 sec)
                      ------------------
             **** ENERGY FILE WAS UPDATED (run.en.tmp) ****
Finished Guess after   0.9 sec
Maximum memory used throughout the entire GUESS-calculation: 8.6 MB


           ************************************************************
           *        Program running with 24 parallel MPI-processes    *
           *              working on a common directory               *
           ************************************************************

-------------------------------------------------------------------------------------------
                                      ORCA LEAN-SCF
                              memory conserving SCF solver
-------------------------------------------------------------------------------------------

----------------------------------------D-I-I-S--------------------------------------------
Iteration    Energy (Eh)           Delta-E    RMSDP     MaxDP     DIISErr   Damp  Time(sec)
-------------------------------------------------------------------------------------------
               ***  Starting incremental Fock matrix formation  ***
    1    -1219.5679339395660463     0.00e+00  1.76e-02  8.43e-02  7.62e-02  0.700   0.3
Warning: op=0 Small HOMO/LUMO gap (   0.012) - skipping pre-diagonalization
         Will do a full diagonalization
    2    -1219.6177079627216244    -4.98e-02  2.02e-02  8.30e-02  5.50e-02  0.700   0.2
                               ***Turning on AO-DIIS***
    3    -1219.6430040358436599    -2.53e-02  8.64e-03  2.70e-02  3.56e-02  0.700   0.2
    4    -1219.6550884640341792    -1.21e-02  1.35e-02  4.93e-02  2.15e-02  0.000   0.2
    5    -1219.6814002966257249    -2.63e-02  4.11e-03  1.62e-02  8.91e-03  0.000   0.2
                              *** Initializing SOSCF ***
---------------------------------------S-O-S-C-F--------------------------------------
Iteration    Energy (Eh)           Delta-E    RMSDP     MaxDP     MaxGrad    Time(sec)
--------------------------------------------------------------------------------------
    6    -1219.6826155350777299    -1.22e-03  1.75e-03  5.58e-03  3.02e-03     0.2
               *** Restarting incremental Fock matrix formation ***
    7    -1219.6828512663405490    -2.36e-04  2.91e-03  1.21e-02  1.17e-03     0.2
    8    -1219.6828384076536622     1.29e-05  1.65e-03  7.55e-03  1.86e-03     0.2
    9    -1219.6829270979296780    -8.87e-05  6.98e-04  2.45e-03  3.20e-04     0.2
   10    -1219.6829286223903637    -1.52e-06  3.80e-04  1.92e-03  2.14e-04     0.2
   11    -1219.6829342063165313    -5.58e-06  8.12e-05  2.99e-04  2.83e-05     0.2
   12    -1219.6829342609048581    -5.46e-08  3.33e-05  1.33e-04  2.20e-05     0.2
                 **** Energy Check signals convergence ****

               *****************************************************
               *                     SUCCESS                       *
               *           SCF CONVERGED AFTER  12 CYCLES          *
               *****************************************************

             **** ENERGY FILE WAS UPDATED (run.en.tmp) ****

----------------
TOTAL SCF ENERGY
----------------

Total Energy       :      -1219.68293430835638 Eh          -33189.25995 eV

Components:
Nuclear Repulsion  :        421.82519966833610 Eh           11478.44724 eV
Electronic Energy  :      -1641.50813397669253 Eh          -44667.70719 eV
One Electron Energy:      -2532.08978851350639 Eh          -68901.66604 eV
Two Electron Energy:        890.58165453681374 Eh           24233.95885 eV

Virial components:
Potential Energy   :      -2435.56109500691582 Eh          -66274.98675 eV
Kinetic Energy     :       1215.87816069855967 Eh           33085.72680 eV
Virial Ratio       :          2.00312923920569

DFT components:
N(Alpha)           :       39.999925545431 electrons
N(Beta)            :       39.999925545431 electrons
N(Total)           :       79.999851090861 electrons
E(X)               :      -95.094358671421 Eh       
E(C)               :       -2.741421280163 Eh       
E(XC)              :      -97.835779951584 Eh       

---------------
SCF CONVERGENCE
---------------

  Last Energy change         ...    5.4588e-08  Tolerance :   1.0000e-06
  Last MAX-Density change    ...    1.3339e-04  Tolerance :   1.0000e-05
  Last RMS-Density change    ...    3.3264e-05  Tolerance :   1.0000e-06
  Last DIIS Error            ...    3.0151e-03  Tolerance :   1.0000e-05
  Last Orbital Gradient      ...    2.2017e-05  Tolerance :   5.0000e-05
  Last Orbital Rotation      ...    4.7020e-05  Tolerance :   5.0000e-05


----------------
ORBITAL ENERGIES
----------------

  NO   OCC          E(Eh)            E(eV) 
   0   2.0000     -55.432119     -1508.3846 
   1   2.0000     -55.427548     -1508.2603 
   2   2.0000     -55.405774     -1507.6678 
   3   2.0000     -55.396115     -1507.4049 
   4   2.0000     -55.393491     -1507.3335 
   5   2.0000      -4.000187      -108.8506 
   6   2.0000      -3.983550      -108.3979 
   7   2.0000      -3.961479      -107.7973 
   8   2.0000      -3.955348      -107.6305 
   9   2.0000      -3.954389      -107.6044 
  10   2.0000      -2.606269       -70.9202 
  11   2.0000      -2.605241       -70.8922 
  12   2.0000      -2.603619       -70.8481 
  13   2.0000      -2.592707       -70.5511 
  14   2.0000      -2.588899       -70.4475 
  15   2.0000      -2.584624       -70.3312 
  16   2.0000      -2.570676       -69.9517 
  17   2.0000      -2.566916       -69.8493 
  18   2.0000      -2.564836       -69.7927 
  19   2.0000      -2.563071       -69.7447 
  20   2.0000      -2.562989       -69.7425 
  21   2.0000      -2.560827       -69.6836 
  22   2.0000      -2.560183       -69.6661 
  23   2.0000      -2.556390       -69.5629 
  24   2.0000      -2.554944       -69.5236 
  25   2.0000      -0.521069       -14.1790 
  26   2.0000      -0.468608       -12.7515 
  27   2.0000      -0.450969       -12.2715 
  28   2.0000      -0.430928       -11.7261 
  29   2.0000      -0.378269       -10.2932 
  30   2.0000      -0.367446        -9.9987 
  31   2.0000      -0.346170        -9.4198 
  32   2.0000      -0.331532        -9.0214 
  33   2.0000      -0.314798        -8.5661 
  34   2.0000      -0.310854        -8.4588 
  35   2.0000      -0.290233        -7.8976 
  36   2.0000      -0.280965        -7.6455 
  37   2.0000      -0.265676        -7.2294 
  38   2.0000      -0.234141        -6.3713 
  39   2.0000      -0.205661        -5.5963 
  40   0.0000      -0.147573        -4.0157 
  41   0.0000      -0.106762        -2.9051 
  42   0.0000      -0.104499        -2.8436 
  43   0.0000      -0.087814        -2.3896 
  44   0.0000      -0.069275        -1.8851 
  45   0.0000      -0.060558        -1.6479 
  46   0.0000      -0.049168        -1.3379 
  47   0.0000      -0.032940        -0.8963 
  48   0.0000      -0.027247        -0.7414 
  49   0.0000      -0.008840        -0.2406 
  50   0.0000      -0.004900        -0.1333 
*Only the first 10 virtual orbitals were printed.
-------
TIMINGS
-------

Total SCF time: 0 days 0 hours 0 min 3 sec 

Total time                  ....       3.159 sec
Sum of individual times     ....       2.928 sec  ( 92.7%)

SCF preparation             ....       0.602 sec  ( 19.0%)
Fock matrix formation       ....       1.922 sec  ( 60.8%)
  Startup                   ....       0.009 sec  (  0.5% of F)
  Split-RI-J                ....       0.618 sec  ( 32.2% of F)
  XC integration            ....       1.272 sec  ( 66.2% of F)
    XC Preparation          ....       0.000 sec  (  0.0% of XC)
    Basis function eval.    ....       0.342 sec  ( 26.9% of XC)
    Density eval.           ....       0.175 sec  ( 13.8% of XC)
    XC-Functional eval.     ....       0.056 sec  (  4.4% of XC)
    XC-Potential eval.      ....       0.168 sec  ( 13.2% of XC)
Diagonalization             ....       0.000 sec  (  0.0%)
Density matrix formation    ....       0.053 sec  (  1.7%)
Total Energy calculation    ....       0.032 sec  (  1.0%)
Population analysis         ....       0.000 sec  (  0.0%)
Orbital Transformation      ....       0.033 sec  (  1.0%)
Orbital Orthonormalization  ....       0.000 sec  (  0.0%)
DIIS solution               ....       0.167 sec  (  5.3%)
SOSCF solution              ....       0.120 sec  (  3.8%)
Finished LeanSCF after   3.2 sec

Maximum memory used throughout the entire LEANSCF-calculation: 8.3 MB


           ************************************************************
           *        Program running with 24 parallel MPI-processes    *
           *              working on a common directory               *
           ************************************************************

------------------------------------------------------------------------------
                         ORCA PROPERTY INTEGRAL CALCULATIONS
------------------------------------------------------------------------------

GBWName                                   ... run.gbw
Number of atoms                           ...     20
Number of basis functions                 ...    120
Max core memory                           ...   4096 MB

Dipole integrals                          ... YES
Quadrupole integrals                      ...  NO
Linear momentum integrals                 ...  NO
Angular momentum integrals                ...  NO
Higher moments length integrals           ...  NO
Higher moments velocity integrals         ...  NO
Kinetic energy integrals                  ...  NO
GIAO right hand sides                     ...  NO
GIAO dipole derivative integrals          ...  NO
SOC integrals                             ...  NO
EPR diamagnetic integrals (GIAO)          ...  NO
EPR gauge integrals                       ...  NO
Field gradient integrals                  ...  NO (   0 nuclei)
Spin-dipole/Fermi contact integrals       ...  NO (   0 nuclei)
Contact density integrals                 ...  NO (   0 nuclei)
Nucleus-orbit integrals                   ...  NO (   0 nuclei)
Geometric perturbations                   ...  NO (  20 nuclei)

Choice of electric origin   ... Center of mass
Position of electric origin ... (  0.7539, -2.7900,  5.2834) 
Choice of magnetic origin   ... GIAO
Position of magnetic origin ... (  0.0000,  0.0000,  0.0000) 

Calculating integrals                     ... Electric Dipole (Length)     done (  0.0 sec)

Property integrals calculated in   0.0 sec

Maximum memory used throughout the entire PROPINT-calculation: 8.9 MB


-------------------------------------------------------------------------------
                          DFT DISPERSION CORRECTION                            
                                                                               
                              DFTD3 V3.1  Rev 1                                
                          USING Becke-Johnson damping                          
-------------------------------------------------------------------------------
The PBE functional is recognized
Active option DFTDOPT                   ...         4   

molecular C6(AA) [au] = 7962.724890 


            DFT-D V3
 parameters
 s6 scaling factor         :     1.0000 
 a1 scaling factor         :     0.4289 
 s8 scaling factor         :     0.7875 
 a2 scaling factor         :     4.4407 
 ad hoc parameters k1-k3   :    16.0000     1.3333    -4.0000 

 Edisp/kcal,au: -11.692888740276  -0.018633802319 
 E6   /kcal   :  -7.334232717 
 E8   /kcal   :  -4.358656023 
 % E8         :  37.276126711 

-------------------------   ----------------
Dispersion correction           -0.018633802
-------------------------   ----------------

------------------   -----------------
gCP correction             0.067763050
------------------   -----------------

-------------------------   --------------------
FINAL SINGLE POINT ENERGY     -1219.633805060776
-------------------------   --------------------



           ************************************************************
           *        Program running with 24 parallel MPI-processes    *
           *              working on a common directory               *
           ************************************************************
------------------------------------------------------------------------------
                         ORCA SCF GRADIENT CALCULATION
------------------------------------------------------------------------------

Nuc. rep. gradient        (SHARK) ... done (  0.0 sec)
HCore & Overlap gradient  (SHARK) ... done (  0.1 sec)
Split-RIJ-J gradient      (SHARK) ... done (  0.3 sec)
XC gradient                       ... done (  0.6 sec)
Dispersion correction             ... done (  0.1 sec)

-------------------
DISPERSION GRADIENT
-------------------

   1   Al  :   -0.000165540    0.000561763    0.000146297
   2   Al  :   -0.000039079    0.000208782   -0.000551703
   3   H   :   -0.000040044   -0.000075666   -0.000177764
   4   H   :   -0.000052117    0.000036209   -0.000126746
   5   H   :   -0.000083476    0.000118512   -0.000096283
   6   H   :   -0.000086971    0.000113951    0.000042359
   7   H   :   -0.000092798    0.000112160    0.000129813
   8   H   :    0.000125631    0.000072332   -0.000164809
   9   Al  :    0.000069737   -0.000438494   -0.000313526
  10   H   :   -0.000054668   -0.000128300   -0.000009975
  11   H   :   -0.000073324   -0.000157880   -0.000107745
  12   H   :    0.000043003    0.000174375    0.000054199
  13   Al  :    0.000076165   -0.000000602    0.000353869
  14   H   :   -0.000027526    0.000012263    0.000131061
  15   H   :    0.000166922    0.000033966    0.000086115
  16   H   :    0.000097510   -0.000137226   -0.000096275
  17   Al  :    0.000547013   -0.000405044    0.000910987
  18   H   :   -0.000347754    0.000102576   -0.000391498
  19   H   :    0.000037845   -0.000121823    0.000048316
  20   H   :   -0.000100530   -0.000081855    0.000133306

Difference to translation invariance:
           :   -0.0000000000    0.0000000000   -0.0000000000

Difference to rotation invariance:
           :    0.0000000000   -0.0000000000   -0.0000000000

Norm of the Dispersion gradient    ...    0.0017770979
RMS gradient                       ...    0.0002294223
MAX gradient                       ...    0.0009109865
gCP correction                   ... done

------------------
CARTESIAN GRADIENT
------------------

   1   Al  :    0.016374821   -0.010627183    0.012838708
   2   Al  :    0.006236830    0.012245668    0.011676221
   3   H   :    0.006579552    0.001345243    0.001585989
   4   H   :    0.000391517    0.003171359    0.010741203
   5   H   :   -0.008085230   -0.016164317   -0.038762410
   6   H   :    0.007625192    0.002401118    0.000643928
   7   H   :    0.005642100    0.002412109   -0.008238455
   8   H   :   -0.016272519   -0.008364577   -0.002241760
   9   Al  :   -0.001432507    0.025367853    0.036819848
  10   H   :    0.011907861   -0.032239521   -0.057058209
  11   H   :    0.009888183    0.015814718    0.010709125
  12   H   :   -0.012489329    0.003870201    0.006055083
  13   Al  :    0.198032922    0.047439649   -0.069347042
  14   H   :    0.011132841   -0.031192683    0.016659626
  15   H   :   -0.207724447   -0.043582612    0.087051136
  16   H   :   -0.013387665   -0.008301774   -0.004221601
  17   Al  :   -0.013661973    0.061442999   -0.096166219
  18   H   :    0.018590522   -0.016446080    0.034598357
  19   H   :    0.001079346   -0.000038087    0.013397987
  20   H   :   -0.020428017   -0.008554080    0.033258484

Difference to translation invariance:
           :    0.0000000000   -0.0000000001    0.0000000000

Difference to rotation invariance:
           :    0.0002057570    0.0006841300   -0.0001014245

Norm of the Cartesian gradient     ...    0.3575408206
RMS gradient                       ...    0.0461583215
MAX gradient                       ...    0.2077244468

-------
TIMINGS
-------

Total SCF gradient time     ....        1.234 sec

Densities                   ....       0.001 sec  (  0.1%)
One electron gradient       ....       0.090 sec  (  7.3%)
RI-J Coulomb gradient       ....       0.342 sec  ( 27.8%)
XC gradient                 ....       0.644 sec  ( 52.2%)

Maximum memory used throughout the entire SCFGRAD-calculation: 28.5 MB
------------------------------------------------------------------------------
                         ORCA GEOMETRY RELAXATION STEP
------------------------------------------------------------------------------

Reading the OPT-File                    .... done
Getting information on internals        .... done
Copying old internal coords+grads       .... done
Making the new internal coordinates     .... (2022 redundants) done
Validating the new internal coordinates .... (2022 redundants) done
Calculating the B-matrix                .... done
Calculating the G,G- and P matrices     .... done
Transforming gradient to internals      .... done
Projecting the internal gradient        .... done
Number of atoms                         ....  20
Number of internal coordinates          .... 209
Current Energy                          .... -1219.633805061 Eh
Current gradient norm                   ....     0.357540821 Eh/bohr
Maximum allowed component of the step   ....  0.300
Current trust radius                    ....  0.300
Evaluating the initial hessian          ....  (Almloef) done
Projecting the Hessian                  .... done
Forming the augmented Hessian           .... done
Diagonalizing the augmented Hessian     .... done
Last element of RFO vector              ....  0.887704133
Lowest eigenvalues of augmented Hessian:
 -0.080798799  0.012755154  0.014712692  0.018444251  0.019111166
Length of the computed step             ....  0.518657434
Warning: the length of the step is outside the trust region - taking restricted step instead
The input lambda is                     ....     0.011751
   iter:   5  x=   -0.051331  g=   22.630098 f(x)=     0.680303
   iter:  10  x=   -0.233230  g=    0.437480 f(x)=     0.001005
The output lambda is                    ....    -0.233253 (13 iterations)
The final length of the internal step   ....  0.300000000
Converting the step to Cartesian space:
 Initial RMS(Int)=    0.0207514339
Transforming coordinates:
 Iter   0:  RMS(Cart)=    0.0423190809 RMS(Int)=    0.0207133464
done
Storing new coordinates                 .... done

                                .--------------------.
          ----------------------|Geometry convergence|-------------------------
          Item                value                   Tolerance       Converged
          ---------------------------------------------------------------------
          RMS gradient        0.0175763424            0.0010000000      NO
          MAX gradient        0.2288538940            0.0050000000      NO
          RMS step            0.0207514339            0.0200000000      NO
          MAX step            0.1269696027            0.0300000000      NO
          -------------------------------------------------------------------------
          ........................................................
          Max(Bonds)      0.0672      Max(Angles)    3.21
          Max(Dihed)        3.02      Max(Improp)    0.00
          ---------------------------------------------------------------------

The optimization has not yet converged - more geometry cycles are needed


    ---------------------------------------------------------------------------
                         Redundant Internal Coordinates
                            (Angstroem and degrees)

        Definition                    Value    dE/dq     Step     New-Value
    ----------------------------------------------------------------------------
     1. B(Al  1,Al  0)                3.1887  0.016324 -0.0292    3.1595   
     2. B(H   2,Al  1)                1.7014 -0.002659  0.0028    1.7042   
     3. B(H   3,Al  1)                1.5963 -0.007501  0.0063    1.6026   
     4. B(H   4,Al  1)                1.6275 -0.024374  0.0221    1.6496   
     5. B(H   5,Al  0)                1.5953 -0.005141  0.0043    1.5996   
     6. B(H   6,Al  0)                1.7025 -0.004612  0.0059    1.7084   
     7. B(H   7,Al  1)                1.5576 -0.015838  0.0122    1.5698   
     8. B(Al  8,H   2)                1.7011 -0.000864  0.0014    1.7025   
     9. B(Al  8,Al  1)                3.2024 -0.001628  0.0026    3.2049   
    10. B(H   9,Al  8)                1.5224 -0.037180  0.0310    1.5534   
    11. B(H  10,Al  8)                1.5969 -0.014645  0.0124    1.6093   
    12. B(H  11,Al  0)                1.5979 -0.004938  0.0042    1.6021   
    13. B(Al 12,Al  8)                3.0079 -0.010634  0.0061    3.0140   
    14. B(Al 12,H   6)                1.7019 -0.002444  0.0033    1.7052   
    15. B(Al 12,Al  0)                3.1300 -0.004708  0.0069    3.1369   
    16. B(Al 12,H   9)                1.8822  0.018540 -0.0207    1.8615   
    17. B(H  13,Al 12)                1.9367  0.014066 -0.0214    1.9154   
    18. B(H  14,Al 12)                1.2193 -0.228854  0.0672    1.2865   
    19. B(H  15,Al  8)                1.5964 -0.003514  0.0030    1.5994   
    20. B(Al 16,H  13)                1.6165 -0.018832  0.0181    1.6346   
    21. B(Al 16,Al 12)                2.5955 -0.018133  0.0157    2.6112   
    22. B(H  17,Al 16)                1.9327  0.035762 -0.0549    1.8778   
    23. B(H  18,Al 16)                1.5655 -0.012758  0.0100    1.5755   
    24. B(H  19,H  17)                2.8828  0.006445 -0.0151    2.8676   
    25. B(H  19,H  13)                2.4224  0.005358 -0.0168    2.4055   
    26. B(H  19,Al 16)                2.3240  0.026812 -0.0494    2.2746   
    27. A(H   5,Al  0,H  11)          109.68 -0.007855    1.13    110.81   
    28. A(Al  1,Al  0,H   6)           89.14 -0.000882    0.20     89.34   
    29. A(H   6,Al  0,H  11)          109.62  0.000854   -0.08    109.54   
    30. A(Al  1,Al  0,H   5)          117.47 -0.003603    0.43    117.90   
    31. A(Al  1,Al  0,Al 12)           88.38  0.001114   -0.09     88.29   
    32. A(H   5,Al  0,Al 12)          129.40  0.001146   -0.04    129.36   
    33. A(Al  1,Al  0,H  11)          119.22  0.011139   -1.70    117.52   
    34. A(H   5,Al  0,H   6)          109.27  0.001874   -0.13    109.14   
    35. A(H  11,Al  0,Al 12)           89.89  0.002721   -0.33     89.56   
    36. A(H   6,Al  0,Al 12)           23.16 -0.000559    0.05     23.20   
    37. A(H   3,Al  1,H   4)           82.51 -0.019353    2.45     84.95   
    38. A(H   2,Al  1,H   3)          109.11  0.002831   -0.32    108.80   
    39. A(Al  0,Al  1,Al  8)           87.93 -0.005284    0.67     88.60   
    40. A(H   3,Al  1,H   7)          130.45  0.002315   -0.17    130.27   
    41. A(H   4,Al  1,H   7)          134.22  0.017935   -2.31    131.91   
    42. A(Al  0,Al  1,H   4)           36.15  0.024066   -3.21     32.94   
    43. A(H   7,Al  1,Al  8)           79.48 -0.005789    0.50     79.98   
    44. A(H   2,Al  1,Al  8)           19.75 -0.000677    0.06     19.81   
    45. A(H   4,Al  1,Al  8)          107.41  0.009457   -1.04    106.36   
    46. A(Al  0,Al  1,H   3)          118.41  0.004753   -0.74    117.67   
    47. A(H   2,Al  1,H   7)           98.45 -0.006625    0.57     99.02   
    48. A(Al  0,Al  1,H   7)          101.75 -0.003546    0.62    102.37   
    49. A(H   3,Al  1,Al  8)          126.60  0.002484   -0.28    126.33   
    50. A(H   2,Al  1,H   4)           97.80  0.004871   -0.39     97.41   
    51. A(Al  0,Al  1,H   2)           89.40 -0.003553    0.43     89.83   
    52. A(Al  1,H   2,Al  8)          140.50  0.001554   -0.15    140.36   
    53. A(Al  0,H   6,Al 12)          133.68  0.001407   -0.13    133.55   
    54. A(Al 12,Al  8,H  15)          137.47  0.003610   -0.77    136.70   
    55. A(H  10,Al  8,H  15)          109.64  0.005097   -0.30    109.35   
    56. A(H   9,Al  8,H  15)          159.58  0.003468   -0.53    159.05   
    57. A(Al  1,Al  8,H  15)          100.16 -0.002941    0.14    100.30   
    58. A(H   9,Al  8,H  10)           66.17 -0.012377    1.65     67.82   
    59. A(H   2,Al  8,H  10)          109.25  0.001596   -0.26    108.99   
    60. A(Al  1,Al  8,H  10)          128.94  0.000437   -0.14    128.80   
    61. A(H   2,Al  8,H   9)           90.28  0.003478   -0.30     89.98   
    62. A(Al  1,Al  8,H   9)           97.20  0.003933   -0.41     96.79   
    63. A(Al  1,Al  8,H   2)           19.75 -0.000877    0.08     19.83   
    64. A(H   2,Al  8,H  15)          109.57 -0.005142    0.50    110.07   
    65. A(H   2,Al  8,Al 12)           93.95  0.005379   -0.66     93.29   
    66. A(Al  1,Al  8,Al 12)           90.29  0.005203   -0.67     89.62   
    67. A(H  10,Al  8,Al 12)           94.26 -0.010554    1.49     95.75   
    68. A(H   9,Al  8,Al 12)           31.34  0.003141   -0.41     30.93   
    69. A(Al  8,H   9,Al 12)          123.79  0.002876   -0.12    123.67   
    70. A(H   9,Al 12,Al 16)           88.91  0.001072   -0.00     88.91   
    71. A(Al  8,Al 12,Al 16)           95.66 -0.001091    0.24     95.90   
    72. A(H   6,Al 12,Al 16)          147.83  0.002177   -0.25    147.58   
    73. A(Al  0,Al 12,Al 16)          168.09  0.001680   -0.23    167.86   
    74. A(H  13,Al 12,H  14)          130.03  0.001768   -0.16    129.87   
    75. A(H   9,Al 12,H  14)           95.09 -0.010762    1.31     96.40   
    76. A(Al  8,Al 12,H  14)           70.23 -0.004771    0.79     71.02   
    77. A(H   6,Al 12,H  14)          107.87 -0.002897    0.27    108.14   
    78. A(Al  0,Al 12,H  14)           87.01 -0.000896    0.02     87.03   
    79. A(H   9,Al 12,H  13)          110.54  0.003126   -0.27    110.27   
    80. A(Al  8,Al 12,H  13)          127.82 -0.002258    0.29    128.11   
    81. A(H   6,Al 12,H  13)          116.92  0.004213   -0.55    116.37   
    82. A(Al  0,Al 12,H  13)          130.05  0.003360   -0.44    129.61   
    83. A(Al  8,Al 12,H   9)           24.87 -0.006017    0.52     25.40   
    84. A(H   6,Al 12,H   9)           83.26  0.000792   -0.09     83.16   
    85. A(Al  0,Al 12,H   9)           95.01 -0.000967    0.05     95.06   
    86. A(H   6,Al 12,Al  8)           90.20 -0.001214    0.06     90.26   
    87. A(Al  0,Al 12,Al  8)           92.56 -0.000446   -0.02     92.53   
    88. A(H  13,Al 12,Al 16)           38.44 -0.001614    0.19     38.63   
    89. A(Al  0,Al 12,H   6)           23.16 -0.000848    0.08     23.25   
    90. A(H  14,Al 12,Al 16)          103.87 -0.000011    0.09    103.96   
    91. A(Al 16,H  13,H  19)           66.84  0.009589   -1.54     65.30   
    92. A(Al 12,H  13,H  19)          149.35  0.004280   -0.96    148.39   
    93. A(Al 12,H  13,Al 16)           93.41 -0.007289    0.97     94.38   
    94. A(H  17,Al 16,H  19)           84.72 -0.011884    2.01     86.73   
    95. A(H  13,Al 16,H  19)           73.40 -0.002794    0.54     73.94   
    96. A(Al 12,Al 16,H  19)          117.41  0.006911   -0.84    116.57   
    97. A(H  17,Al 16,H  18)          124.98  0.003840   -0.55    124.43   
    98. A(H  13,Al 16,H  18)          115.72  0.004745   -0.77    114.95   
    99. A(Al 12,Al 16,H  18)           72.62 -0.002795    0.13     72.75   
   100. A(H  18,Al 16,H  19)          130.07  0.003264   -0.54    129.53   
   101. A(H  13,Al 16,H  17)          114.61 -0.004109    0.48    115.09   
   102. A(Al 12,Al 16,H  17)          134.19  0.005177   -0.96    133.23   
   103. A(Al 12,Al 16,H  13)           48.15  0.008903   -1.16     46.99   
   104. A(Al 16,H  17,H  19)           53.39  0.005149   -0.99     52.41   
   105. A(H  13,H  19,H  17)           68.02  0.000458   -0.20     67.81   
   106. A(Al 16,H  19,H  17)           41.88  0.006735   -1.02     40.86   
   107. A(H  13,H  19,Al 16)           39.76 -0.006795    1.00     40.76   
   108. D(H   2,Al  1,Al  0,H   6)      3.21 -0.002798    0.51      3.72   
   109. D(H   3,Al  1,Al  0,H   5)      3.36 -0.001598    0.19      3.56   
   110. D(H   2,Al  1,Al  0,H   5)   -108.15 -0.003776    0.46   -107.69   
   111. D(H   3,Al  1,Al  0,H  11)   -133.16  0.002200   -0.10   -133.26   
   112. D(H   3,Al  1,Al  0,Al 12)    137.87 -0.001115    0.27    138.14   
   113. D(H   3,Al  1,Al  0,H   6)    114.72 -0.000620    0.24    114.96   
   114. D(H   2,Al  1,Al  0,H  11)    115.33  0.000022    0.17    115.50   
   115. D(H   4,Al  1,Al  0,H   5)     -4.00  0.001126    0.31     -3.69   
   116. D(H   2,Al  1,Al  0,Al 12)     26.36 -0.003294    0.54     26.90   
   117. D(Al  8,H   2,Al  1,Al  0)    -85.53  0.005892   -0.81    -86.34   
   118. D(Al  8,H   2,Al  1,H   7)     16.27  0.001641   -0.11     16.16   
   119. D(Al  8,H   2,Al  1,H   4)   -120.79 -0.017000    2.31   -118.48   
   120. D(Al  8,H   2,Al  1,H   3)    154.48  0.001651   -0.12    154.36   
   121. D(Al 12,H   6,Al  0,Al  1)     87.88  0.004858   -0.70     87.19   
   122. D(Al 12,H   6,Al  0,H  11)    -32.98 -0.006976    1.07    -31.91   
   123. D(Al 12,H   6,Al  0,H   5)   -153.20  0.000973   -0.18   -153.39   
   124. D(H   9,Al  8,Al  1,H   2)    -70.29  0.001786   -0.36    -70.65   
   125. D(H  10,Al  8,H   2,Al  1)    175.70 -0.009250    1.23    176.93   
   126. D(H   9,Al  8,Al  1,H   4)     -7.18 -0.013666    1.82     -5.35   
[...]
     27      -0.006143   0.002321   0.009184   0.019326  -0.006790  -0.000639
     28      -0.009691   0.013495   0.008780   0.034934  -0.014310  -0.010882
     29      -0.016202   0.025267   0.016126   0.061383  -0.021839  -0.020672
     30       0.003183   0.297594  -0.255736   0.057376   0.016039   0.037818
     31       0.003080   0.235628  -0.210479   0.039509   0.011838   0.027261
     32       0.001259   0.058422  -0.046168   0.013042   0.003663   0.005899
     33      -0.744674  -0.039765   0.067611   0.162924   0.035680   0.080249
     34      -0.466678  -0.024311   0.042339   0.101367   0.020675   0.047277
     35      -0.089420  -0.002911   0.013186   0.021975   0.004017   0.009395
     36      -0.001028  -0.001280  -0.005213   0.005942  -0.012741  -0.024997
     37      -0.001452   0.000179  -0.001819   0.004497  -0.006543  -0.013045
     38       0.001199  -0.000098   0.001679  -0.004031   0.005905   0.010932
     39       0.000246   0.001618  -0.000947  -0.003052   0.008225   0.007060
     40      -0.001118  -0.001108   0.002351   0.009536  -0.009249  -0.011437
     41       0.000900  -0.003744  -0.004719  -0.009656   0.006468  -0.002544
     42       0.052374   0.011436   0.124860  -0.222028   0.370194   0.697654
     43       0.025351   0.001814   0.061321  -0.107560   0.178854   0.338597
     44      -0.024294  -0.003253  -0.050546   0.088800  -0.155525  -0.290597
     45      -0.002240   0.730793  -0.272629   0.276821   0.052176   0.126204
     46       0.000783  -0.160750   0.058989  -0.059026  -0.010820  -0.025721
     47       0.000097  -0.049622   0.019865  -0.017300  -0.003580  -0.009439
     48       0.000145   0.000663   0.001041  -0.001032   0.035424  -0.018556
     49       0.000813  -0.000053   0.001148  -0.001448   0.016466  -0.007482
     50      -0.001757   0.001339  -0.001457   0.001799   0.012345  -0.008606
     51       0.045775  -0.037126   0.028438  -0.029128  -0.525896   0.304310
     52       0.011788  -0.009984   0.007038  -0.006931  -0.134402   0.075643
     53       0.037127  -0.030722   0.022972  -0.024116  -0.433023   0.249375
     54      -0.001071   0.001814  -0.002646   0.002514   0.004427  -0.006441
     55      -0.000937  -0.001234  -0.000991   0.007394  -0.007493  -0.014233
     56       0.002669  -0.001682   0.006824  -0.015531   0.018852   0.023298
     57      -0.048869   0.017576  -0.055192   0.056097  -0.436064   0.198894
     58      -0.033397   0.011243  -0.038652   0.039345  -0.304410   0.135319
     59       0.008220  -0.002381   0.010128  -0.010502   0.083998  -0.036841


-----------
IR SPECTRUM
-----------

 Mode   freq       eps      Int      T**2         TX        TY        TZ
       cm**-1   L/(mol*cm) km/mol    a.u.
----------------------------------------------------------------------------
  7:     32.12   0.000036    0.18  0.000350  (-0.009705 -0.003696 -0.015552)
  8:     53.28   0.000042    0.21  0.000247  (-0.002793 -0.008449  0.012940)
  9:     77.49   0.000592    2.99  0.002385  ( 0.042913  0.002954  0.023115)
 10:     97.64   0.000048    0.24  0.000154  (-0.004109  0.010293 -0.005614)
 11:    107.03   0.000042    0.21  0.000121  ( 0.010724  0.001580  0.001986)
 12:    122.07   0.000088    0.44  0.000224  (-0.014040  0.004930  0.001580)
 13:    130.30   0.000079    0.40  0.000190  (-0.008451 -0.005416 -0.009423)
 14:    160.20   0.000170    0.86  0.000330  (-0.015526  0.000479 -0.009436)
 15:    224.75   0.000619    3.13  0.000860  ( 0.002200  0.023516  0.017386)
 16:    269.90   0.003206   16.20  0.003707  ( 0.039716 -0.019046  0.042035)
 17:    325.95   0.001051    5.31  0.001006  ( 0.029201  0.001089  0.012333)
 18:    342.14   0.001363    6.89  0.001243  ( 0.018979  0.016820  0.024488)
 19:    350.82   0.004013   20.28  0.003570  ( 0.002476 -0.038664  0.045484)
 20:    353.95   0.005977   30.21  0.005270  (-0.001580  0.045095 -0.056867)
 21:    383.75   0.001478    7.47  0.001202  ( 0.027988  0.017927 -0.009868)
 22:    402.02   0.000378    1.91  0.000294  ( 0.012772 -0.010650  0.004131)
 23:    429.98   0.000094    0.48  0.000068  ( 0.004578  0.000377 -0.006883)
 24:    461.04   0.009917   50.11  0.006712  (-0.011689  0.023998 -0.077457)
 25:    481.60   0.018137   91.66  0.011753  ( 0.015739 -0.001060 -0.107256)
 26:    504.35   0.001935    9.78  0.001197  ( 0.014889  0.005610  0.030722)
 27:    540.79   0.004423   22.35  0.002553  (-0.005895 -0.049765  0.006425)
 28:    574.50   0.038464  194.38  0.020893  (-0.050643  0.121923 -0.058852)
 29:    648.88   0.168894  853.52  0.081225  ( 0.057475 -0.232098  0.155088)
 30:    661.64   0.054238  274.10  0.025581  ( 0.053696  0.098606 -0.113908)
 31:    665.27   0.154660  781.59  0.072547  ( 0.030592 -0.175423 -0.202084)
 32:    668.63   0.037915  191.61  0.017696  ( 0.026190 -0.086817 -0.097328)
 33:    685.25   0.023005  116.26  0.010476  ( 0.010629  0.044714 -0.091456)
 34:    693.39   0.004362   22.04  0.001963  ( 0.016777  0.008460 -0.040125)
 35:    710.96   0.087961  444.52  0.038609  (-0.039260  0.067041 -0.180481)
 36:    718.22   0.030810  155.70  0.013387  (-0.000228 -0.098678 -0.060409)
 37:    792.14   0.038170  192.90  0.015037  (-0.106393 -0.052416 -0.031152)
 38:    825.33   0.008576   43.34  0.003243  ( 0.004710  0.049889 -0.027045)
 39:    867.55   0.012008   60.69  0.004320  ( 0.042931 -0.034593  0.035775)
 40:    916.74   0.014107   71.29  0.004802  (-0.019491  0.023936 -0.062042)
 41:    924.61   0.027057  136.74  0.009132  (-0.087302 -0.038319 -0.006482)
 42:   1021.13   0.031044  156.89  0.009487  (-0.093959  0.020775  0.015084)
 43:   1073.93   0.069187  349.64  0.020104  ( 0.052740 -0.123888  0.044439)
 44:   1339.22   0.090450  457.10  0.021077  ( 0.045727 -0.130485  0.044265)
 45:   1422.53   0.124189  627.60  0.027244  (-0.006336  0.081089 -0.143625)
 46:   1586.46   0.082682  417.84  0.016264  ( 0.000693  0.025367 -0.124980)
 47:   1642.08   0.042757  216.08  0.008126  ( 0.001209 -0.076686 -0.047365)
 48:   1787.98   0.289410  1462.56  0.050512  (-0.004797  0.207610  0.085948)
 49:   1795.52   0.198404  1002.65  0.034483  (-0.056699  0.119228 -0.130586)
 50:   1832.13   0.104092  526.04  0.017730  ( 0.056757 -0.008523 -0.120149)
 51:   1873.65   0.004342   21.94  0.000723  ( 0.007729  0.012136  0.022719)
 52:   1874.73   0.001473    7.44  0.000245  ( 0.001970 -0.007787 -0.013442)
 53:   1884.64   0.011325   57.23  0.001875  (-0.000524 -0.027301  0.033609)
 54:   1887.64   0.020622  104.22  0.003409  ( 0.055016  0.015278 -0.012213)
 55:   1891.42   0.011967   60.48  0.001974  (-0.024042 -0.012549  0.035199)
 56:   1894.65   0.032972  166.63  0.005431  ( 0.039160 -0.002611  0.062374)
 57:   1898.81   0.030795  155.62  0.005061  (-0.067916  0.016596 -0.013153)
 58:   1906.67   0.010152   51.31  0.001662  ( 0.028144  0.009541  0.027902)
 59:   1912.10   0.050843  256.94  0.008298  (-0.080063 -0.043351  0.002908)

* The epsilon (eps) is given for a Dirac delta lineshape.
** The dipole moment derivative (T) already includes vibrational overlap.

The first frequency considered to be a vibration is 7
The total number of vibrations considered is 53


--------------------------
THERMOCHEMISTRY AT 298.15K
--------------------------

Temperature         ...   298.15 K
Pressure            ...     1.00 atm
Total Mass          ...   150.03 AMU
Quasi RRHO          ...     True
Cut-Off Frequency   ...     1.00 cm^-1

Throughout the following assumptions are being made:
  (1) The electronic state is orbitally nondegenerate
  (2) There are no thermally accessible electronically excited states
  (3) Hindered rotations indicated by low frequency modes are not
      treated as such but are treated as vibrations and this may
      cause some error
  (4) All equations used are the standard statistical mechanics
      equations for an ideal gas
  (5) All vibrations are strictly harmonic

freq.      32.12  E(vib)   ...       0.55 
freq.      53.28  E(vib)   ...       0.52 
freq.      77.49  E(vib)   ...       0.49 
freq.      97.64  E(vib)   ...       0.46 
freq.     107.03  E(vib)   ...       0.45 
freq.     122.07  E(vib)   ...       0.44 
freq.     130.30  E(vib)   ...       0.43 
freq.     160.20  E(vib)   ...       0.39 
freq.     224.75  E(vib)   ...       0.33 
freq.     269.90  E(vib)   ...       0.29 
freq.     325.95  E(vib)   ...       0.24 
freq.     342.14  E(vib)   ...       0.23 
freq.     350.82  E(vib)   ...       0.23 
freq.     353.95  E(vib)   ...       0.22 
freq.     383.75  E(vib)   ...       0.20 
freq.     402.02  E(vib)   ...       0.19 
freq.     429.98  E(vib)   ...       0.18 
freq.     461.04  E(vib)   ...       0.16 
freq.     481.60  E(vib)   ...       0.15 
freq.     504.35  E(vib)   ...       0.14 
freq.     540.79  E(vib)   ...       0.12 
freq.     574.50  E(vib)   ...       0.11 
freq.     648.88  E(vib)   ...       0.08 
freq.     661.64  E(vib)   ...       0.08 
freq.     665.27  E(vib)   ...       0.08 
freq.     668.63  E(vib)   ...       0.08 
freq.     685.25  E(vib)   ...       0.07 
freq.     693.39  E(vib)   ...       0.07 
freq.     710.96  E(vib)   ...       0.07 
freq.     718.22  E(vib)   ...       0.07 
freq.     792.14  E(vib)   ...       0.05 
freq.     825.33  E(vib)   ...       0.04 
freq.     867.55  E(vib)   ...       0.04 
freq.     916.74  E(vib)   ...       0.03 
freq.     924.61  E(vib)   ...       0.03 
freq.    1021.13  E(vib)   ...       0.02 
freq.    1073.93  E(vib)   ...       0.02 
freq.    1339.22  E(vib)   ...       0.01 
freq.    1422.53  E(vib)   ...       0.00 
freq.    1586.46  E(vib)   ...       0.00 
freq.    1642.08  E(vib)   ...       0.00 
freq.    1787.98  E(vib)   ...       0.00 
freq.    1795.52  E(vib)   ...       0.00 
freq.    1832.13  E(vib)   ...       0.00 
freq.    1873.65  E(vib)   ...       0.00 
freq.    1874.73  E(vib)   ...       0.00 
freq.    1884.64  E(vib)   ...       0.00 
freq.    1887.64  E(vib)   ...       0.00 
freq.    1891.42  E(vib)   ...       0.00 
freq.    1894.65  E(vib)   ...       0.00 
freq.    1898.81  E(vib)   ...       0.00 
freq.    1906.67  E(vib)   ...       0.00 
freq.    1912.10  E(vib)   ...       0.00 

------------
INNER ENERGY
------------

The inner energy is: U= E(el) + E(ZPE) + E(vib) + E(rot) + E(trans)
    E(el)   - is the total energy from the electronic structure calculation
              = E(kin-el) + E(nuc-el) + E(el-el) + E(nuc-nuc)
    E(ZPE)  - the the zero temperature vibrational energy from the frequency calculation
    E(vib)  - the the finite temperature correction to E(ZPE) due to population
              of excited vibrational states
    E(rot)  - is the rotational thermal energy
    E(trans)- is the translational thermal energy

Summary of contributions to the inner energy U:
Electronic energy                ...  -1219.91548477 Eh
Zero point energy                ...      0.10645779 Eh      66.80 kcal/mol
Thermal vibrational correction   ...      0.01176874 Eh       7.38 kcal/mol
Thermal rotational correction    ...      0.00141627 Eh       0.89 kcal/mol
Thermal translational correction ...      0.00141627 Eh       0.89 kcal/mol
-----------------------------------------------------------------------
Total thermal energy                  -1219.79442570 Eh


Summary of corrections to the electronic energy:
(perhaps to be used in another calculation)
Total thermal correction                  0.01460128 Eh       9.16 kcal/mol
Non-thermal (ZPE) correction              0.10645779 Eh      66.80 kcal/mol
-----------------------------------------------------------------------
Total correction                          0.12105907 Eh      75.97 kcal/mol


--------
ENTHALPY
--------

The enthalpy is H = U + kB*T
                kB is Boltzmann's constant
Total thermal energy              ...  -1219.79442570 Eh 
Thermal Enthalpy correction       ...      0.00094421 Eh       0.59 kcal/mol
-----------------------------------------------------------------------
Total Enthalpy                    ...  -1219.79348149 Eh


Note: Only C1 symmetry has been detected, increase convergence thresholds 
      if your molecule has a higher symmetry. Symmetry factor of 1.0 is   
      used for the rotational entropy correction. 
 

Note: Rotational entropy computed according to Herzberg 
Infrared and Raman Spectra, Chapter V,1, Van Nostrand Reinhold, 1945 
Point Group:  C1, Symmetry Number:   1  
Rotational constants in cm-1:     0.043029     0.020141     0.014704 

Vibrational entropy computed according to the QRRHO of S. Grimme
Chem.Eur.J. 2012 18 9955 using a reference frequency of 100.0 cm-1


-------
ENTROPY
-------

The entropy contributions are T*S = T*(S(el)+S(vib)+S(rot)+S(trans))
     S(el)   - electronic entropy
     S(vib)  - vibrational entropy
     S(rot)  - rotational entropy
     S(trans)- translational entropy
The entropies will be listed as multiplied by the temperature to get
units of energy

Electronic entropy                ...      0.00000000 Eh      0.00 kcal/mol
Vibrational entropy               ...      0.02068940 Eh     12.98 kcal/mol
Rotational entropy                ...      0.01483151 Eh      9.31 kcal/mol
Translational entropy             ...      0.01944577 Eh     12.20 kcal/mol
-----------------------------------------------------------------------
Final entropy term                ...      0.05496669 Eh     34.49 kcal/mol

In case the symmetry of your molecule has not been determined correctly
or in case you have a reason to use a different symmetry number we print 
out the resulting rotational entropy values for sn=1,12:

 non-linear molecules -----------------------------------
|  sn= 1 | S(rot)=       0.01483151 Eh      9.31 kcal/mol|
|  sn= 2 | S(rot)=       0.01417705 Eh      8.90 kcal/mol|
|  sn= 3 | S(rot)=       0.01379422 Eh      8.66 kcal/mol|
|  sn= 4 | S(rot)=       0.01352260 Eh      8.49 kcal/mol|
|  sn= 5 | S(rot)=       0.01331191 Eh      8.35 kcal/mol|
|  sn= 6 | S(rot)=       0.01313977 Eh      8.25 kcal/mol|
|  sn= 7 | S(rot)=       0.01299422 Eh      8.15 kcal/mol|
|  sn= 8 | S(rot)=       0.01286814 Eh      8.07 kcal/mol|
|  sn= 9 | S(rot)=       0.01275693 Eh      8.01 kcal/mol|
|  sn=10 | S(rot)=       0.01265745 Eh      7.94 kcal/mol|
|  sn=11 | S(rot)=       0.01256746 Eh      7.89 kcal/mol|
|  sn=12 | S(rot)=       0.01248531 Eh      7.83 kcal/mol|
 linear molecules ---------------------------------------
|  Dinfh | S(rot)=       0.00930990 Eh      5.84 kcal/mol|
|  Cinfv | S(rot)=       0.00996435 Eh      6.25 kcal/mol|
 --------------------------------------------------------


-------------------
GIBBS FREE ENERGY
-------------------

The Gibbs free energy is G = H - T*S

Total enthalpy                    ...  -1219.79348149 Eh 
Total entropy correction          ...     -0.05496669 Eh    -34.49 kcal/mol
-----------------------------------------------------------------------
Final Gibbs free energy         ...  -1219.84844818 Eh

For completeness - the Gibbs free energy minus the electronic energy
G-E(el)                           ...      0.06703660 Eh     42.07 kcal/mol


Maximum memory used throughout the entire PROP-calculation: 29.0 MB

--------------------------------
SUGGESTED CITATIONS FOR THIS RUN
--------------------------------

Below you find a list of papers that are relevant to this ORCA run
We neither can nor want to force you to cite these papers, but we appreciate if you do
You receive ORCA, which is the product of decades of hard work by many enthusiastic individuals, for free
The only thing we kindly ask in return is that you cite our papers,
We deeply appreciate it, if you show your appreciation for ORCA by not just citing the generic ORCA reference.

Please note that relegating all ORCA citations to the supporting information does *not* help us.
SI sections are not indexed - citations you put there will not count into any citation statistics
But we need these citations in order to attract the funding resources that allow us to do what we are doing

Therefore, if you are a happy ORCA user, please consider citing a few of the papers listed below in the main body of your paper

In addition to the list printed below, the program has created the file run.bibtex that contains the list in bibtex format
You can import this file easily into all common literature databanks and citation aid programs


List of essential papers. We consider these as the minimum necessary citations

  1. Neese, F.
     Software update: the ORCA program system, version 6.0
     WIRES Comput. Molec. Sci. 2025 15(1), e70019
     doi.org/10.1002/wcms.7019

List of papers to cite with high priority. The work reported in these papers was absolutely
necessary for this run to complete.
Our perspective: the developers of density functionals and basis sets usually get cited in chemistry papers
Good! But without the algorithms to do something with them, the functionals or basis sets would not do anything.
Hence, in our opinion, the algorithm design and method developments papers are equally worthy of getting cited

  1. Neese, F.
     An improvement of the resolution of the identity approximation for the formation of the Coulomb matrix
     J. Comp. Chem. 2003 24(14), 1740-1747
     doi.org/10.1002/jcc.10318
  2. Grimme, S.; Antony, J.; Ehrlich, S.; Krieg, H.
     A consistent and accurate ab initio parametrization of density functional dispersion correction (DFT-D) for the 94 elements H-Pu
     J. Chem. Phys. 2010 132 , 154104
     doi.org/10.1063/1.3382344
  3. Grimme, S.; Ehrlich, S.; Goerigk, L.
     Effect of the damping function in dispersion corrected density functional theory
     J. Comput. Chem. 2011 32(7), 1456-1465
     doi.org/10.1002/jcc.21759
  4. Bykov, D.; Petrenko, T.; Izsak, R.; Kossmann, S.; Becker, U.; Valeev, E.; Neese, F.
     Efficient implementation of the analytic second derivatives of Hartree-Fock and hybrid DFT energies: a detailed analysis of different approximations
     Molec. Phys. 2015 113 , 1961-1977
     doi.org/10.1080/00268976.2015.1025114
  5. Neese, F.
     The SHARK Integral Generation and Digestion System
     J. Comp. Chem. 2022 44(3), 381
     doi.org/10.1002/jcc.26942

List of suggested additional citations. These are papers that are important in the 'surrounding' of 
of this run, or papers that preceded the highly important papers. If you like your results we are grateful for a citation.

  1. Neese, F.
     The ORCA program system
     WIRES Comput. Molec. Sci. 2012 2(1), 73-78
     doi.org/10.1002/wcms.81
  2. Neese, F.
     Software update: the ORCA program system, version 4.0
     WIRES Comput. Molec. Sci. 2018 8(1), 1-6
     doi.org/10.1002/wcms.1327
  3. Neese, F.; Wennmohs, F.; Becker, U.; Riplinger, C.
     The ORCA quantum chemistry program package
     J. Chem. Phys. 2020 152(22), 224108
     doi.org/10.1063/5.0004608
  4. Neese, F.
     Software update: The ORCA program system—Version 5.0
     WIRES Comput. Molec. Sci. 2022 12(1), e1606
     doi.org/10.1002/wcms.1606

List of optional additional citations

  1. Neese, F.
     Approximate second-order SCF convergence for spin unrestricted wavefunctions
     Chem. Phys. Lett. 2000 325(1-3), 93-98
     doi.org/10.1016/s0009-2614(00)00662-x

Timings for individual modules:

Sum of individual times          ...      232.953 sec (=   3.883 min)
Startup calculation              ...       55.847 sec (=   0.931 min)  24.0 %
SCF iterations                   ...       84.198 sec (=   1.403 min)  36.1 %
Property integrals               ...       28.540 sec (=   0.476 min)  12.3 %
SCF Response                     ...        5.052 sec (=   0.084 min)   2.2 %
Property calculations            ...        9.961 sec (=   0.166 min)   4.3 %
SCF Gradient evaluation          ...       48.704 sec (=   0.812 min)  20.9 %
Geometry relaxation              ...        0.651 sec (=   0.011 min)   0.3 %
                             ****ORCA TERMINATED NORMALLY****
TOTAL RUN TIME: 0 days 0 hours 4 minutes 15 seconds 707 msec
