
     Program PWSCF v.7.3.1 starts on  2Jun2025 at 13:43:32 

     This program is part of the open-source Quantum ESPRESSO suite
     for quantum simulation of materials; please cite
         "P. Giannozzi et al., J. Phys.:Condens. Matter 21 395502 (2009);
         "P. Giannozzi et al., J. Phys.:Condens. Matter 29 465901 (2017);
         "P. Giannozzi et al., J. Chem. Phys. 152 154105 (2020);
          URL http://www.quantum-espresso.org", 
     in publications or presentations arising from this work. More details at
     http://www.quantum-espresso.org/quote

     Parallel version (MPI), running on   256 processors

     MPI processes distributed on     1 nodes
     1533311 MiB available memory on the printing compute node when the environment starts

     Waiting for input...
     Reading input from standard input

     Current dimensions of program PWSCF are:
     Max number of different atomic species (ntypx) = 10
     Max number of k-points (npk) =  40000
     Max angular momentum in pseudopotentials (lmaxx) =  4
     file H.pbe-kjpaw_psl.1.0.0.UPF: wavefunction(s)  1S renormalized
     file Zr.pbe-spn-kjpaw_psl.1.0.0.UPF: wavefunction(s)  4S 4P renormalized
     file C.pbe-n-kjpaw_psl.1.0.0.UPF: wavefunction(s)  2S 2P renormalized
     file O.pbe-n-kjpaw_psl.1.0.0.UPF: wavefunction(s)  2S 2P renormalized

     IMPORTANT: XC functional enforced from input :
     Exchange-correlation= PBE
                           (   1   4   3   4   0   0   0)
     Any further DFT definition will be discarded
     Please, verify this is what you really want


     gamma-point specific algorithms are used
     Message from routine setup:
     using ibrav=0 with symmetry is DISCOURAGED, use correct ibrav instead

     R & G space division:  proc/nbgrp/npool/nimage =     256
     WARNING: too many processors for an effective parallelization!
     wavefunctions fft division:  task group distribution
                                  #TG    x Z-proc =       8     32
     Subspace diagonalization in iterative solution of the eigenvalue problem:
     one sub-group per band group will be used
     custom distributed-memory algorithm (size of sub-group:  2*  2 procs)


     Parallelization info
     --------------------
     sticks:   dense  smooth     PW     G-vecs:    dense   smooth      PW
     Min          99      66     16                10676     5810     720
     Max         102      68     18                10702     5830     740
     Sum       25607   17075   4275              2736797  1489801  186225

     Using Pencil Decomposition


     Title: 
     UiO-66-dehydrox GeomOpt                                                    


     bravais-lattice index     =            0
     lattice parameter (alat)  =      27.5901  a.u.
     unit-cell volume          =   15410.4379 (a.u.)^3
     number of atoms/cell      =          108
     number of atomic types    =            4
     number of electrons       =       468.00
     number of Kohn-Sham states=          234
     kinetic-energy cutoff     =      80.0000  Ry
     charge density cutoff     =     480.0000  Ry
     scf convergence threshold =      1.0E-08
     mixing beta               =       0.7000
     number of iterations used =            8  plain     mixing
     energy convergence thresh.=      3.6E-06
     force convergence thresh. =      1.0E-05
     press convergence thresh. =      5.0E-01
     Exchange-correlation= PBE
                           (   1   4   3   4   0   0   0)
     nstep                     =           50


     celldm(1)=  27.590096  celldm(2)=   0.000000  celldm(3)=   0.000000
     celldm(4)=   0.000000  celldm(5)=   0.000000  celldm(6)=   0.000000

     crystal axes: (cart. coord. in units of alat)
               a(1) = (   1.000000   0.000000   0.000000 )  
               a(2) = (   0.474373   0.880324   0.000000 )  
               a(3) = (   0.474373   0.283240   0.833514 )  

     reciprocal axes: (cart. coord. in units 2 pi/alat)
               b(1) = (  1.000000 -0.538862 -0.386011 )  
               b(2) = (  0.000000  1.135945 -0.386011 )  
               b(3) = (  0.000000  0.000000  1.199740 )  


     PseudoPot. # 1 for H  read from file:
     /home/mehlhorn/pseudos/UiO-66_pbe-spn-kjpaw/H.pbe-kjpaw_psl.1.0.0.UPF
     MD5 check sum: d81a744832360e4a8af0b0b5b123bc2a
     Pseudo is Projector augmented-wave, Zval =  1.0
     Generated using &quot;atomic&quot; code by A. Dal Corso  v.6.3MaX
     Shape of augmentation charge: PSQ
     Using radial grid of  929 points,  2 beta functions with: 
                l(1) =   0
                l(2) =   0
     Q(r) pseudized with 0 coefficients 


     PseudoPot. # 2 for Zr read from file:
     /home/mehlhorn/pseudos/UiO-66_pbe-spn-kjpaw/Zr.pbe-spn-kjpaw_psl.1.0.0.UPF
     MD5 check sum: 02112c41713a0468aff2bb39ef194e36
     Pseudo is Projector augmented-wave + core cor, Zval = 12.0
     Generated using &quot;atomic&quot; code by A. Dal Corso  v.6.2.2
     Shape of augmentation charge: PSQ
     Using radial grid of 1225 points,  6 beta functions with: 
                l(1) =   0
                l(2) =   0
                l(3) =   1
                l(4) =   1
                l(5) =   2
                l(6) =   2
     Q(r) pseudized with 0 coefficients 


     PseudoPot. # 3 for C  read from file:
     /home/mehlhorn/pseudos/UiO-66_pbe-spn-kjpaw/C.pbe-n-kjpaw_psl.1.0.0.UPF
     MD5 check sum: 5f16ad9a65e90284d1d834d4ab3b0f7d
     Pseudo is Projector augmented-wave + core cor, Zval =  4.0
     Generated using &quot;atomic&quot; code by A. Dal Corso  v.6.3
     Shape of augmentation charge: PSQ
     Using radial grid of 1073 points,  4 beta functions with: 
                l(1) =   0
                l(2) =   0
                l(3) =   1
                l(4) =   1
     Q(r) pseudized with 0 coefficients 


     PseudoPot. # 4 for O  read from file:
     /home/mehlhorn/pseudos/UiO-66_pbe-spn-kjpaw/O.pbe-n-kjpaw_psl.1.0.0.UPF
     MD5 check sum: e99d9cef9b487d1ca56f5b95ecd0fd7a
     Pseudo is Projector augmented-wave + core cor, Zval =  6.0
     Generated using &quot;atomic&quot; code by A. Dal Corso  v.6.3
     Shape of augmentation charge: PSQ
     Using radial grid of 1095 points,  4 beta functions with: 
                l(1) =   0
                l(2) =   0
                l(3) =   1
                l(4) =   1
     Q(r) pseudized with 0 coefficients 


     atomic species   valence    mass     pseudopotential
     H                 1.00     1.00750     H ( 1.00)
     Zr               12.00    91.22400     Zr( 1.00)
     C                 4.00    12.01060     C ( 1.00)
     O                 6.00    15.99900     O ( 1.00)

      2 Sym. Ops., with inversion, found



   Cartesian axes

     site n.     atom                  positions (alat units)
         1        Zr     tau(   1) = (   0.9874385   0.1406099   0.1028706  )
         2        Zr     tau(   2) = (   0.9613068   1.0229535   0.7306432  )
         3        Zr     tau(   3) = (   0.5939845   0.8016007   0.1000350  )
         4        Zr     tau(   4) = (   1.3547608   0.3619634   0.7334780  )
         5        Zr     tau(   5) = (   0.5921963   0.3556221   0.7267907  )
         6        Zr     tau(   6) = (   1.3565484   0.8079423   0.1067231  )
         7        O      tau(   7) = (   1.0829912   0.2556075   0.0709387  )
         8        O      tau(   8) = (   0.8657546   0.9079569   0.7625751  )
         9        O      tau(   9) = (   0.6452684   0.8825084   0.2191916  )
        10        O      tau(  10) = (   1.3034774   0.2810559   0.6143222  )
        11        O      tau(  11) = (   0.7387590   0.3349007   0.7650582  )
        12        O      tau(  12) = (   1.2099867   0.8286636   0.0684557  )
        13        O      tau(  13) = (   1.2160212   0.3038793   0.7655358  )
        14        O      tau(  14) = (   0.7327246   0.8596851   0.0679781  )
        15        O      tau(  15) = (   1.3010030   0.6802730   0.0414131  )
        16        O      tau(  16) = (   0.6477428   0.4832914   0.7921007  )
        17        O      tau(  17) = (   0.8443597   1.0228752   0.6307757  )
        18        O      tau(  18) = (   1.1043861   0.1406891   0.2027381  )
        19        O      tau(  19) = (   1.0511521   1.0201826   0.6101063  )
        20        O      tau(  20) = (   0.8975937   0.1433817   0.2234075  )
        21        O      tau(  21) = (   1.2961269   0.4956182   0.7696367  )
        22        O      tau(  22) = (   0.6526189   0.6679461   0.0638772  )
        23        O      tau(  23) = (   1.3967293   0.7196855   0.2216372  )
        24        O      tau(  24) = (   0.5520165   0.4438789   0.6118767  )
        25        O      tau(  25) = (   0.5502502   0.7120582   0.2155800  )
        26        O      tau(  26) = (   1.3984956   0.4515061   0.6179338  )
        27        O      tau(  27) = (   0.6423963   0.2788914   0.6048335  )
        28        O      tau(  28) = (   1.3063495   0.8846729   0.2286803  )
        29        O      tau(  29) = (   0.8878657   0.2512903   0.0694592  )
        30        O      tau(  30) = (   1.0608801   0.9122741   0.7640546  )
        31        O      tau(  31) = (   0.8808878   0.0505801   0.0383491  )
        32        O      tau(  32) = (   1.0678579   1.1129843   0.7951647  )
        33        O      tau(  33) = (   0.4641602   0.7505224   0.0355519  )
        34        O      tau(  34) = (   1.4845856   0.4130420   0.7979620  )
        35        O      tau(  35) = (   0.4623962   0.2780930   0.6991756  )
        36        O      tau(  36) = (   1.4863496   0.8854713   0.1343383  )
        37        C      tau(  37) = (   1.3174479   0.9653750   0.2588586  )
        38        C      tau(  38) = (   0.6312979   0.1981893   0.5746553  )
        39        C      tau(  39) = (   1.1141568   0.8961724   0.8307557  )
        40        C      tau(  40) = (   0.8345889   0.2673920   0.0027581  )
        41        C      tau(  41) = (   1.4748043   0.4709058   0.5812275  )
        42        C      tau(  42) = (   0.4739415   0.6926586   0.2522863  )
        43        C      tau(  43) = (   0.8028284   0.8996901   0.8220305  )
        44        C      tau(  44) = (   1.1459174   0.2638742   0.0114833  )
        45        C      tau(  45) = (   1.3208423   0.2002179   0.5873655  )
        46        C      tau(  46) = (   0.6279035   0.9633464   0.2461483  )
        47        C      tau(  47) = (   1.1728588   0.8683960   0.0005893  )
        48        C      tau(  48) = (   0.7758869   0.2951683   0.8329245  )
        49        C      tau(  49) = (   1.1929434   0.3551301   0.0051044  )
        50        C      tau(  50) = (   0.7558024   0.8084343   0.8284094  )
        51        C      tau(  51) = (   0.6707418   0.9936815   0.3346041  )
        52        C      tau(  52) = (   1.2780040   0.1698829   0.4989097  )
        53        C      tau(  53) = (   0.8785295   0.2885201   0.8331862  )
        54        C      tau(  54) = (   1.0702163   0.8750442   0.0003276  )
        55        C      tau(  55) = (   0.6857135   0.1690789   0.4927459  )
        56        C      tau(  56) = (   1.2630323   0.9944855   0.3407680  )
        57        C      tau(  57) = (   0.7838843   0.3565278   0.0015495  )
        58        C      tau(  58) = (   1.1648615   0.8070365   0.8319643  )
        59        C      tau(  59) = (   0.4741280   0.6349603   0.3370713  )
        60        C      tau(  60) = (   1.4746177   0.5286040   0.4964425  )
        61        C      tau(  61) = (   1.1639023   0.4280859   0.0605739  )
        62        C      tau(  62) = (   0.7848435   0.7354784   0.7729399  )
        63        C      tau(  63) = (   0.7238641   0.9320668   0.3858335  )
        64        C      tau(  64) = (   1.2248817   0.2314975   0.4476803  )
        65        C      tau(  65) = (   0.9289780   0.3216794   0.7583650  )
        66        C      tau(  66) = (   1.0197678   0.8418849   0.0751488  )
        67        C      tau(  67) = (   1.0243201   0.3163541   0.7586259  )
        68        C      tau(  68) = (   0.9244257   0.8472102   0.0748879  )
        69        C      tau(  69) = (   1.2078391   0.5127134   0.0554478  )
        70        C      tau(  70) = (   0.7409067   0.6508509   0.7780660  )
        71        C      tau(  71) = (   0.7644038   0.9601314   0.4676104  )
        72        C      tau(  72) = (   1.1843420   0.2034330   0.3659034  )
        73        C      tau(  73) = (   1.1512345   0.9599920   0.4583743  )
        74        C      tau(  74) = (   0.7975113   0.2035723   0.3751396  )
        75        C      tau(  75) = (   1.2000841   0.6610601   0.7614657  )
        76        C      tau(  76) = (   0.7486616   0.5025042   0.0720481  )
        77        C      tau(  77) = (   1.3912185   0.6135557   0.3809108  )
        78        C      tau(  78) = (   0.5575273   0.5500086   0.4526030  )
        79        C      tau(  79) = (   0.5572868   0.6029565   0.3732942  )
        80        C      tau(  80) = (   1.3914589   0.5606078   0.4602197  )
        81        C      tau(  81) = (   0.7462892   0.2309007   0.4507893  )
        82        C      tau(  82) = (   1.2024566   0.9326636   0.3827245  )
        83        C      tau(  83) = (   0.7951589   0.4192631   0.0735834  )
        84        C      tau(  84) = (   1.1535869   0.7443012   0.7599304  )
        85        H      tau(  85) = (   1.1921713   0.6119262   0.7061837  )
        86        H      tau(  86) = (   0.7565745   0.5516381   0.1273301  )
        87        H      tau(  87) = (   1.3274698   0.6389188   0.3521763  )
        88        H      tau(  88) = (   0.6212760   0.5246455   0.4813376  )
        89        H      tau(  89) = (   1.1042271   0.9129076   0.4916340  )
        90        H      tau(  90) = (   0.8445187   0.2506568   0.3418799  )
        91        H      tau(  91) = (   0.8404332   0.4018530   0.1299756  )
        92        H      tau(  92) = (   1.1083126   0.7617114   0.7035382  )
        93        H      tau(  93) = (   0.6208362   0.6201414   0.3386658  )
        94        H      tau(  94) = (   1.3279096   0.5434229   0.4948480  )
        95        H      tau(  95) = (   0.7524396   0.2997752   0.4782019  )
        96        H      tau(  96) = (   1.1963062   0.8637892   0.3553119  )
        97        H      tau(  97) = (   0.7325859   0.8626366   0.3607231  )
        98        H      tau(  98) = (   1.2161598   0.3009277   0.4727907  )
        99        H      tau(  99) = (   0.8925201   0.3512327   0.7007059  )
       100        H      tau( 100) = (   1.0562257   0.8123316   0.1328079  )
       101        H      tau( 101) = (   1.1069186   0.4173780   0.1071074  )
       102        H      tau( 102) = (   0.8418271   0.7461863   0.7264065  )
       103        H      tau( 103) = (   0.8052656   0.9131109   0.5081775  )
       104        H      tau( 104) = (   1.1434801   0.2504534   0.3253363  )
       105        H      tau( 105) = (   1.0641990   0.3412817   0.7010535  )
       106        H      tau( 106) = (   0.8845468   0.8222826   0.1324603  )
       107        H      tau( 107) = (   1.1858297   0.5698738   0.0975736  )
       108        H      tau( 108) = (   0.7629161   0.5936905   0.7359402  )

     number of k points=     1
                       cart. coord. in units 2pi/alat
        k(    1) = (   0.0000000   0.0000000   0.0000000), wk =   2.0000000

     Dense  grid:  1368399 G-vectors     FFT dimensions: ( 200, 200, 200)

     Smooth grid:   744901 G-vectors     FFT dimensions: ( 160, 160, 160)

     Estimated max dynamical RAM per process >      52.08 MB

     Estimated total dynamical RAM >      13.02 GB

     Check: negative core charge=   -0.000001

     Initial potential from superposition of free atoms

     starting charge     467.9848, renormalised to     468.0000

     negative rho (up, down):  4.394E-05 0.000E+00
     Starting wfcs are  414 randomized atomic wfcs
     Checking if some PAW data can be deallocated... 

     total cpu time spent up to now is        5.8 secs

     Self-consistent Calculation

     iteration #  1     ecut=    80.00 Ry     beta= 0.70
     Davidson diagonalization with overlap
     ethr =  1.00E-02,  avg # of iterations =  2.0

     negative rho (up, down):  8.846E-06 0.000E+00

     total cpu time spent up to now is       10.2 secs

     total energy              =   -4001.08275543 Ry
     estimated scf accuracy    <      17.36012950 Ry

     iteration #  2     ecut=    80.00 Ry     beta= 0.70
     Davidson diagonalization with overlap
     ethr =  3.71E-03,  avg # of iterations = 13.0

     negative rho (up, down):  1.972E-05 0.000E+00

     total cpu time spent up to now is       17.3 secs

     total energy              =   -4002.06555313 Ry
     estimated scf accuracy    <      26.51497808 Ry

     iteration #  3     ecut=    80.00 Ry     beta= 0.70
     Davidson diagonalization with overlap
     ethr =  3.71E-03,  avg # of iterations =  9.0

     negative rho (up, down):  5.240E-05 0.000E+00

     total cpu time spent up to now is       22.9 secs

     total energy              =   -4008.24108170 Ry
     estimated scf accuracy    <       4.02655892 Ry

     iteration #  4     ecut=    80.00 Ry     beta= 0.70
     Davidson diagonalization with overlap
     ethr =  8.60E-04,  avg # of iterations = 11.0

     negative rho (up, down):  3.216E-04 0.000E+00

     total cpu time spent up to now is       27.3 secs

     total energy              =   -4008.07415956 Ry
     estimated scf accuracy    <       1.10084670 Ry

     iteration #  5     ecut=    80.00 Ry     beta= 0.70
     Davidson diagonalization with overlap
     ethr =  2.35E-04,  avg # of iterations = 12.0

     negative rho (up, down):  3.440E-04 0.000E+00

     total cpu time spent up to now is       36.9 secs

     total energy              =   -4009.25558189 Ry
     estimated scf accuracy    <       2.16456321 Ry

     iteration #  6     ecut=    80.00 Ry     beta= 0.70
     Davidson diagonalization with overlap
     ethr =  2.35E-04,  avg # of iterations =  2.0

     negative rho (up, down):  4.133E-04 0.000E+00

     total cpu time spent up to now is       40.1 secs

     total energy              =   -4008.50661244 Ry
     estimated scf accuracy    <       1.28635308 Ry

     iteration #  7     ecut=    80.00 Ry     beta= 0.70
     Davidson diagonalization with overlap
     ethr =  2.35E-04,  avg # of iterations = 11.0

     negative rho (up, down):  4.363E-04 0.000E+00

     total cpu time spent up to now is       47.1 secs

     total energy              =   -4009.17335541 Ry
     estimated scf accuracy    <       0.55996376 Ry

     iteration #  8     ecut=    80.00 Ry     beta= 0.70
     Davidson diagonalization with overlap
     ethr =  1.20E-04,  avg # of iterations =  2.0

     negative rho (up, down):  4.953E-04 0.000E+00

     total cpu time spent up to now is       50.4 secs

     total energy              =   -4009.04708530 Ry
     estimated scf accuracy    <       0.31680710 Ry

     iteration #  9     ecut=    80.00 Ry     beta= 0.70
     Davidson diagonalization with overlap
     ethr =  6.77E-05,  avg # of iterations =  8.0

     negative rho (up, down):  4.992E-04 0.000E+00

     total cpu time spent up to now is       55.5 secs

     total energy              =   -4009.15335140 Ry
     estimated scf accuracy    <       0.04963082 Ry

     iteration # 10     ecut=    80.00 Ry     beta= 0.70
     Davidson diagonalization with overlap
     ethr =  1.06E-05,  avg # of iterations =  7.0

     negative rho (up, down):  5.061E-04 0.000E+00

     total cpu time spent up to now is       59.5 secs

     total energy              =   -4009.15338755 Ry
     estimated scf accuracy    <       0.02402157 Ry

     iteration # 11     ecut=    80.00 Ry     beta= 0.70
     Davidson diagonalization with overlap
     ethr =  5.13E-06,  avg # of iterations = 13.0

     negative rho (up, down):  5.092E-04 0.000E+00

     total cpu time spent up to now is       66.3 secs

     total energy              =   -4009.15988952 Ry
     estimated scf accuracy    <       0.07685830 Ry

     iteration # 12     ecut=    80.00 Ry     beta= 0.70
     Davidson diagonalization with overlap
     ethr =  5.13E-06,  avg # of iterations =  6.0

     negative rho (up, down):  5.139E-04 0.000E+00

     total cpu time spent up to now is       69.9 secs

     total energy              =   -4009.14621037 Ry
     estimated scf accuracy    <       0.03585934 Ry

     iteration # 13     ecut=    80.00 Ry     beta= 0.70
     Davidson diagonalization with overlap
     ethr =  5.13E-06,  avg # of iterations = 10.0

     negative rho (up, down):  5.183E-04 0.000E+00

     total cpu time spent up to now is       76.3 secs

     total energy              =   -4009.16311891 Ry
     estimated scf accuracy    <       0.00499047 Ry

     iteration # 14     ecut=    80.00 Ry     beta= 0.70
     Davidson diagonalization with overlap
     ethr =  1.07E-06,  avg # of iterations = 10.0

     negative rho (up, down):  5.168E-04 0.000E+00

     total cpu time spent up to now is       80.6 secs

     total energy              =   -4009.16194172 Ry
     estimated scf accuracy    <       0.00568818 Ry

     iteration # 15     ecut=    80.00 Ry     beta= 0.70
     Davidson diagonalization with overlap
     ethr =  1.07E-06,  avg # of iterations =  2.0

     negative rho (up, down):  5.162E-04 0.000E+00

     total cpu time spent up to now is       83.9 secs

     total energy              =   -4009.16134498 Ry
     estimated scf accuracy    <       0.00270618 Ry

     iteration # 16     ecut=    80.00 Ry     beta= 0.70
     Davidson diagonalization with overlap
     ethr =  5.78E-07,  avg # of iterations =  7.0

     negative rho (up, down):  5.162E-04 0.000E+00

     total cpu time spent up to now is       88.5 secs

     total energy              =   -4009.16215404 Ry
     estimated scf accuracy    <       0.00013809 Ry

     iteration # 17     ecut=    80.00 Ry     beta= 0.70
     Davidson diagonalization with overlap
     ethr =  2.95E-08,  avg # of iterations =  6.0

     negative rho (up, down):  5.159E-04 0.000E+00

     total cpu time spent up to now is       94.9 secs

     total energy              =   -4009.16225199 Ry
     estimated scf accuracy    <       0.00011825 Ry

     iteration # 18     ecut=    80.00 Ry     beta= 0.70
     Davidson diagonalization with overlap
     ethr =  2.53E-08,  avg # of iterations =  2.0

     negative rho (up, down):  5.162E-04 0.000E+00

     total cpu time spent up to now is       98.1 secs

     total energy              =   -4009.16228774 Ry
     estimated scf accuracy    <       0.00010085 Ry

     iteration # 19     ecut=    80.00 Ry     beta= 0.70
     Davidson diagonalization with overlap
     ethr =  2.15E-08,  avg # of iterations = 10.0

     negative rho (up, down):  5.160E-04 0.000E+00

     total cpu time spent up to now is      102.4 secs

     total energy              =   -4009.16226078 Ry
     estimated scf accuracy    <       0.00023706 Ry

     iteration # 20     ecut=    80.00 Ry     beta= 0.70
     Davidson diagonalization with overlap
     ethr =  2.15E-08,  avg # of iterations =  2.0

     negative rho (up, down):  5.159E-04 0.000E+00

     total cpu time spent up to now is      105.6 secs

     total energy              =   -4009.16221128 Ry
     estimated scf accuracy    <       0.00016450 Ry

     iteration # 21     ecut=    80.00 Ry     beta= 0.70
     Davidson diagonalization with overlap
     ethr =  2.15E-08,  avg # of iterations =  9.0

     negative rho (up, down):  5.160E-04 0.000E+00

     total cpu time spent up to now is      110.1 secs

     total energy              =   -4009.16223559 Ry
     estimated scf accuracy    <       0.00001749 Ry

     iteration # 22     ecut=    80.00 Ry     beta= 0.70
     Davidson diagonalization with overlap
     ethr =  3.74E-09,  avg # of iterations =  6.0

     negative rho (up, down):  5.159E-04 0.000E+00

     total cpu time spent up to now is      115.8 secs

     total energy              =   -4009.16224579 Ry
     estimated scf accuracy    <       0.00000559 Ry

     iteration # 23     ecut=    80.00 Ry     beta= 0.70
     Davidson diagonalization with overlap
     ethr =  1.19E-09,  avg # of iterations =  9.0

     negative rho (up, down):  5.159E-04 0.000E+00

     total cpu time spent up to now is      120.0 secs

     total energy              =   -4009.16224546 Ry
     estimated scf accuracy    <       0.00000698 Ry

     iteration # 24     ecut=    80.00 Ry     beta= 0.70
     Davidson diagonalization with overlap
     ethr =  1.19E-09,  avg # of iterations =  2.0

     negative rho (up, down):  5.159E-04 0.000E+00

     total cpu time spent up to now is      123.4 secs

     total energy              =   -4009.16224443 Ry
     estimated scf accuracy    <       0.00000505 Ry

     iteration # 25     ecut=    80.00 Ry     beta= 0.70
     Davidson diagonalization with overlap
     ethr =  1.08E-09,  avg # of iterations =  7.0

     negative rho (up, down):  5.159E-04 0.000E+00

     total cpu time spent up to now is      128.8 secs

     total energy              =   -4009.16224565 Ry
     estimated scf accuracy    <       0.00000402 Ry

     iteration # 26     ecut=    80.00 Ry     beta= 0.70
     Davidson diagonalization with overlap
     ethr =  8.59E-10,  avg # of iterations =  7.0

     negative rho (up, down):  5.159E-04 0.000E+00

     total cpu time spent up to now is      134.0 secs

     total energy              =   -4009.16224671 Ry
     estimated scf accuracy    <       0.00000763 Ry

     iteration # 27     ecut=    80.00 Ry     beta= 0.70
     Davidson diagonalization with overlap
     ethr =  8.59E-10,  avg # of iterations =  1.0

     negative rho (up, down):  5.159E-04 0.000E+00

     total cpu time spent up to now is      137.0 secs

     total energy              =   -4009.16224458 Ry
     estimated scf accuracy    <       0.00000644 Ry

     iteration # 28     ecut=    80.00 Ry     beta= 0.70
     Davidson diagonalization with overlap
     ethr =  8.59E-10,  avg # of iterations =  7.0

     negative rho (up, down):  5.159E-04 0.000E+00

     total cpu time spent up to now is      142.3 secs

     total energy              =   -4009.16224600 Ry
     estimated scf accuracy    <       0.00000386 Ry

     iteration # 29     ecut=    80.00 Ry     beta= 0.70
     Davidson diagonalization with overlap
     ethr =  8.24E-10,  avg # of iterations =  1.0

     negative rho (up, down):  5.159E-04 0.000E+00

     total cpu time spent up to now is      145.2 secs

     total energy              =   -4009.16224438 Ry
     estimated scf accuracy    <       0.00000288 Ry

     iteration # 30     ecut=    80.00 Ry     beta= 0.70
     Davidson diagonalization with overlap
     ethr =  6.15E-10,  avg # of iterations =  8.0

     negative rho (up, down):  5.159E-04 0.000E+00

     total cpu time spent up to now is      151.5 secs

     total energy              =   -4009.16224407 Ry
     estimated scf accuracy    <       0.00000350 Ry

     iteration # 31     ecut=    80.00 Ry     beta= 0.70
     Davidson diagonalization with overlap
     ethr =  6.15E-10,  avg # of iterations = 11.0

     negative rho (up, down):  5.159E-04 0.000E+00

     total cpu time spent up to now is      158.8 secs

     total energy              =   -4009.16224524 Ry
     estimated scf accuracy    <       0.00000259 Ry

     iteration # 32     ecut=    80.00 Ry     beta= 0.70
     Davidson diagonalization with overlap
     ethr =  5.54E-10,  avg # of iterations =  2.0

     negative rho (up, down):  5.159E-04 0.000E+00

     total cpu time spent up to now is      162.0 secs

     total energy              =   -4009.16224496 Ry
     estimated scf accuracy    <       0.00000085 Ry

     iteration # 33     ecut=    80.00 Ry     beta= 0.70
     Davidson diagonalization with overlap
     ethr =  1.82E-10,  avg # of iterations = 16.0

     negative rho (up, down):  5.159E-04 0.000E+00

     total cpu time spent up to now is      169.6 secs

     total energy              =   -4009.16224563 Ry
     estimated scf accuracy    <       0.00000096 Ry

     iteration # 34     ecut=    80.00 Ry     beta= 0.70
     Davidson diagonalization with overlap
     ethr =  1.82E-10,  avg # of iterations =  2.0

     negative rho (up, down):  5.159E-04 0.000E+00

     total cpu time spent up to now is      172.7 secs

     total energy              =   -4009.16224543 Ry
     estimated scf accuracy    <       0.00000067 Ry

     iteration # 35     ecut=    80.00 Ry     beta= 0.70
     Davidson diagonalization with overlap
     ethr =  1.43E-10,  avg # of iterations =  8.0

     negative rho (up, down):  5.159E-04 0.000E+00

     total cpu time spent up to now is      176.8 secs

     total energy              =   -4009.16224548 Ry
     estimated scf accuracy    <       0.00000014 Ry

     iteration # 36     ecut=    80.00 Ry     beta= 0.70
     Davidson diagonalization with overlap
     ethr =  3.04E-11,  avg # of iterations = 10.0

     negative rho (up, down):  5.159E-04 0.000E+00

     total cpu time spent up to now is      182.8 secs

     End of self-consistent calculation

          k = 0.0000 0.0000 0.0000 ( 93113 PWs)   bands (ev):

   -49.6598 -49.6459 -49.6458 -49.6360 -49.6340 -49.6340 -28.0945 -27.9939
   -27.9939 -27.9206 -27.9161 -27.9161 -27.7997 -27.7613 -27.7613 -27.7502
   -27.7502 -27.7249 -27.6614 -27.6614 -27.6299 -27.6185 -27.6185 -27.6165
   -22.9321 -22.8924 -22.8924 -22.8868 -22.8868 -22.8640 -22.6465 -22.6415
   -22.5837 -22.5837 -22.5815 -22.5815 -20.6203 -20.6051 -20.6050 -20.5767
   -20.5767 -20.5466 -20.3832 -20.3831 -20.3633 -20.3633 -20.2820 -20.2783
   -17.8948 -17.6555 -17.6555 -17.4486 -17.4486 -17.4206 -17.3935 -17.3935
   -17.3454 -17.2076 -17.2076 -17.2059 -15.0805 -15.0804 -15.0718 -14.8584
   -14.8391 -14.8391 -14.5416 -14.5395 -14.5395 -14.3218 -14.3218 -14.3197
   -12.3200 -12.2870 -12.2870 -12.0702 -12.0110 -12.0110 -11.0171 -11.0171
   -11.0067 -10.8176 -10.8176 -10.8021 -10.2595 -10.2595 -10.1479 -10.0619
    -9.8569  -9.8569  -9.6649  -9.6110  -9.6110  -9.4604  -9.3935  -9.3935
    -8.8273  -8.6192  -8.5939  -8.5939  -8.4166  -8.4166  -8.3900  -8.2258
    -8.2258  -8.1623  -8.1623  -7.9284  -7.9284  -7.8810  -7.8194  -7.8194
    -7.7318  -7.6790  -7.6790  -7.6506  -7.6003  -7.4248  -7.4248  -7.3047
    -7.1949  -6.9703  -6.9703  -6.8905  -6.8905  -6.8879  -6.8516  -6.8060
    -6.8060  -6.7738  -6.7263  -6.7263  -6.7096  -6.6991  -6.6991  -6.6191
    -6.5956  -6.5819  -6.5819  -6.4774  -6.4563  -6.4563  -6.3842  -6.3842
    -6.2878  -6.2632  -6.2632  -6.0601  -6.0601  -6.0433  -5.6990  -5.6160
    -5.6160  -5.4697  -5.2703  -5.2703  -5.0812  -5.0252  -4.9753  -4.9753
    -4.8525  -4.8525  -4.8198  -4.8198  -4.8025  -4.7937  -4.7484  -4.7484
    -4.6597  -4.2417  -4.2417  -4.2277  -4.1450  -4.1450  -4.1034  -4.0654
    -4.0654  -4.0186  -4.0186  -4.0046  -3.9014  -3.9014  -3.8447  -3.6431
    -3.6180  -3.6180  -3.5179  -3.4021  -3.3582  -3.3582  -3.3113  -3.2506
    -3.2506  -3.1913  -3.1658  -3.1658  -3.1434  -3.0734  -3.0734  -2.9953
    -2.9952  -2.9180  -2.9180  -2.8364  -2.8053  -2.7147  -2.6974  -2.6973
    -2.6498  -2.6498  -2.5993  -2.5795  -2.5795  -2.5117  -2.5117  -2.4736
    -2.4419  -2.4419  -2.4372  -2.4203  -2.3909  -2.3897  -2.3896  -2.3059
    -2.3051  -2.3051  -2.2551  -2.2551  -2.1873  -2.1873  -2.1699  -1.4776
    -1.4776  -1.3466

     highest occupied level (ev):    -1.3466

!    total energy              =   -4009.16224554 Ry
     total all-electron energy =    -51389.579352 Ry
     estimated scf accuracy    <          8.2E-09 Ry

     The total energy is the sum of the following terms:
     one-electron contribution =   -6076.43417294 Ry
     hartree contribution      =    3169.32135844 Ry
     xc contribution           =    -570.30105486 Ry
     ewald contribution        =    1311.95789719 Ry
     one-center paw contrib.   =   -1843.70627338 Ry

     convergence has been achieved in  36 iterations

     negative rho (up, down):  5.159E-04 0.000E+00

     Forces acting on atoms (cartesian axes, Ry/au):

     atom    1 type  2   force =     0.00739935   -0.02132488   -0.01460793
     atom    2 type  2   force =    -0.00739935    0.02132488    0.01460793
     atom    3 type  2   force =    -0.01469645    0.01632784   -0.01549809
     atom    4 type  2   force =     0.01469645   -0.01632784    0.01549809
     atom    5 type  2   force =    -0.01526111   -0.00846166    0.02046256
     atom    6 type  2   force =     0.01526111    0.00846166   -0.02046256
     atom    7 type  4   force =    -0.00955355   -0.00028431    0.00926397
     atom    8 type  4   force =     0.00955355    0.00028431   -0.00926397
     atom    9 type  4   force =     0.00310991   -0.01253444   -0.00325253
     atom   10 type  4   force =    -0.00310991    0.01253444    0.00325253
     atom   11 type  4   force =    -0.00478402    0.00610907   -0.01081768
     atom   12 type  4   force =     0.00478402   -0.00610907    0.01081768
     atom   13 type  4   force =     0.00374501    0.00753641   -0.01110171
     atom   14 type  4   force =    -0.00374501   -0.00753641    0.01110171
     atom   15 type  4   force =    -0.00534452    0.00713926    0.01071148
     atom   16 type  4   force =     0.00534452   -0.00713926   -0.01071148
     atom   17 type  4   force =     0.00840724   -0.01059808    0.00330600
     atom   18 type  4   force =    -0.00840724    0.01059808   -0.00330600
     atom   19 type  4   force =    -0.00601721   -0.00748730    0.00487300
     atom   20 type  4   force =     0.00601721    0.00748730   -0.00487300
     atom   21 type  4   force =    -0.00091466   -0.00634281   -0.00865244
     atom   22 type  4   force =     0.00091466    0.00634281    0.00865244
     atom   23 type  4   force =    -0.00944163    0.00404814   -0.00322192
     atom   24 type  4   force =     0.00944163   -0.00404814    0.00322192
     atom   25 type  4   force =     0.01148352    0.00301979   -0.00525116
     atom   26 type  4   force =    -0.01148352   -0.00301979    0.00525116
     atom   27 type  4   force =     0.00192310    0.01199366    0.00454543
     atom   28 type  4   force =    -0.00192310   -0.01199366   -0.00454543
     atom   29 type  4   force =     0.00810384   -0.00217962    0.00990437
     atom   30 type  4   force =    -0.00810384    0.00217962   -0.00990437
     atom   31 type  4   force =    -0.00553216    0.00597096    0.00421834
     atom   32 type  4   force =     0.00553216   -0.00597096   -0.00421834
     atom   33 type  4   force =     0.00258322   -0.00767556    0.00429789
     atom   34 type  4   force =    -0.00258322    0.00767556   -0.00429789
     atom   35 type  4   force =     0.00263296    0.00151471   -0.00864768
     atom   36 type  4   force =    -0.00263296   -0.00151471    0.00864768
     atom   37 type  3   force =    -0.00256722    0.00299217    0.00495885
     atom   38 type  3   force =     0.00256722   -0.00299217   -0.00495885
     atom   39 type  3   force =     0.00376498   -0.00494220    0.00124117
     atom   40 type  3   force =    -0.00376498    0.00494220   -0.00124117
     atom   41 type  3   force =     0.00141972    0.00350997   -0.00507759
     atom   42 type  3   force =    -0.00141972   -0.00350997    0.00507759
     atom   43 type  3   force =    -0.00371658   -0.00714995    0.00059741
     atom   44 type  3   force =     0.00371658    0.00714995   -0.00059741
     atom   45 type  3   force =    -0.00329462   -0.00243960   -0.00696349
     atom   46 type  3   force =     0.00329462    0.00243960    0.00696349
     atom   47 type  3   force =    -0.00805851    0.00060116   -0.00007156
     atom   48 type  3   force =     0.00805851   -0.00060116    0.00007156
     atom   49 type  3   force =    -0.00133505   -0.00259399   -0.00043045
     atom   50 type  3   force =     0.00133505    0.00259399    0.00043045
     atom   51 type  3   force =    -0.00172634   -0.00058711   -0.00231785
     atom   52 type  3   force =     0.00172634    0.00058711    0.00231785
     atom   53 type  3   force =    -0.00291714   -0.00038924    0.00019016
     atom   54 type  3   force =     0.00291714    0.00038924   -0.00019016
     atom   55 type  3   force =    -0.00081483    0.00043441    0.00101067
     atom   56 type  3   force =     0.00081483   -0.00043441   -0.00101067
     atom   57 type  3   force =     0.00057877   -0.00123677    0.00008682
     atom   58 type  3   force =    -0.00057877    0.00123677   -0.00008682
     atom   59 type  3   force =    -0.00000319    0.00065926   -0.00119891
     atom   60 type  3   force =     0.00000319   -0.00065926    0.00119891
     atom   61 type  3   force =     0.00709373    0.00484348   -0.00451565
     atom   62 type  3   force =    -0.00709373   -0.00484348    0.00451565
     atom   63 type  3   force =     0.00097265    0.00753293    0.00603743
     atom   64 type  3   force =    -0.00097265   -0.00753293   -0.00603743
     atom   65 type  3   force =     0.00762789   -0.00300526    0.00518985
     atom   66 type  3   force =    -0.00762789    0.00300526   -0.00518985
     atom   67 type  3   force =    -0.00768073   -0.00210435    0.00557608
     atom   68 type  3   force =     0.00768073    0.00210435   -0.00557608
     atom   69 type  3   force =     0.00040780   -0.00894402   -0.00378596
     atom   70 type  3   force =    -0.00040780    0.00894402    0.00378596
     atom   71 type  3   force =    -0.00549612    0.00342550   -0.00725097
     atom   72 type  3   force =     0.00549612   -0.00342550    0.00725097
     atom   73 type  3   force =     0.00530486    0.00480297   -0.00391564
     atom   74 type  3   force =    -0.00530486   -0.00480297    0.00391564
     atom   75 type  3   force =     0.00061267    0.00569536    0.00580642
     atom   76 type  3   force =    -0.00061267   -0.00569536   -0.00580642
     atom   77 type  3   force =     0.00674342   -0.00293786    0.00352425
     atom   78 type  3   force =    -0.00674342    0.00293786   -0.00352425
     atom   79 type  3   force =    -0.00688967   -0.00215794    0.00406565
     atom   80 type  3   force =     0.00688967    0.00215794   -0.00406565
     atom   81 type  3   force =    -0.00049094   -0.00756219   -0.00335106
     atom   82 type  3   force =     0.00049094    0.00756219    0.00335106
     atom   83 type  3   force =    -0.00516825    0.00222774   -0.00608176
     atom   84 type  3   force =     0.00516825   -0.00222774    0.00608176
     atom   85 type  1   force =    -0.00009052   -0.00299863   -0.00264416
     atom   86 type  1   force =     0.00009052    0.00299863    0.00264416
     atom   87 type  1   force =    -0.00309612    0.00156557   -0.00198845
     atom   88 type  1   force =     0.00309612   -0.00156557    0.00198845
     atom   89 type  1   force =    -0.00268253   -0.00207150    0.00212196
     atom   90 type  1   force =     0.00268253    0.00207150   -0.00212196
     atom   91 type  1   force =     0.00257466   -0.00148993    0.00284076
     atom   92 type  1   force =    -0.00257466    0.00148993   -0.00284076
     atom   93 type  1   force =     0.00316703    0.00121804   -0.00232473
     atom   94 type  1   force =    -0.00316703   -0.00121804    0.00232473
     atom   95 type  1   force =    -0.00009037    0.00364620    0.00190130
     atom   96 type  1   force =     0.00009037   -0.00364620   -0.00190130
     atom   97 type  1   force =     0.00059619   -0.00456266   -0.00156440
     atom   98 type  1   force =    -0.00059619    0.00456266    0.00156440
     atom   99 type  1   force =    -0.00231345    0.00192389   -0.00381681
     atom  100 type  1   force =     0.00231345   -0.00192389    0.00381681
     atom  101 type  1   force =    -0.00373388   -0.00061563    0.00304969
     atom  102 type  1   force =     0.00373388    0.00061563   -0.00304969
     atom  103 type  1   force =     0.00275022   -0.00337808    0.00280248
     atom  104 type  1   force =    -0.00275022    0.00337808   -0.00280248
     atom  105 type  1   force =     0.00268392    0.00167791   -0.00410008
     atom  106 type  1   force =    -0.00268392   -0.00167791    0.00410008
     atom  107 type  1   force =    -0.00166899    0.00394841    0.00290797
     atom  108 type  1   force =     0.00166899   -0.00394841   -0.00290797

     Total force =     0.109159     Total SCF correction =     0.000303


     Computing stress (Cartesian axis) and pressure


     negative rho (up, down):  5.159E-04 0.000E+00
          total   stress  (Ry/bohr**3)                   (kbar)     P=       -1.72
  -0.00001379  -0.00000257  -0.00000184           -2.03       -0.38       -0.27
  -0.00000257  -0.00001102  -0.00000109           -0.38       -1.62       -0.16
  -0.00000184  -0.00000109  -0.00001028           -0.27       -0.16       -1.51


     BFGS Geometry Optimization
     Energy error            =      0.0E+00 Ry
     Gradient error          =      2.1E-02 Ry/Bohr
     Cell gradient error     =      2.0E+00 kbar

     number of scf cycles    =   1
     number of bfgs steps    =   0

     enthalpy           new  =   -4009.1622455391 Ry

     new trust radius        =       0.0268927037 bohr
     new conv_thr            =       0.0000000100 Ry

     new unit-cell volume =  15396.92057 a.u.^3 (  2281.58823 Ang^3 )
     density =      1.18486 g/cm^3

CELL_PARAMETERS (alat= 27.59009591)
   0.999655138  -0.000064202  -0.000045926
   0.474152781   0.880050972  -0.000045845
   0.474152835   0.283109033   0.833270093

ATOMIC_POSITIONS (crystal)
Zr               0.8728490627        0.1193423861        0.1227827821
Zr               0.1271509373        0.8806566139        0.8772172179
Zr               0.1227832627        0.8728490859        0.1193420743
Zr               0.8772167373        0.1271509141        0.8806569257
Zr               0.1193418371        0.1227833245        0.8728498031
Zr               0.8806571629        0.8772166755        0.1271501969
O                0.9174006740        0.2628316828        0.0855108389
O                0.0825993260        0.7371683172        0.9144891611
O                0.0855110341        0.9174004354        0.2628315654
O                0.9144889659        0.0825995646        0.7371684346
O                0.2628316371        0.0855108732        0.9174005992
O                0.7371683629        0.9144891268        0.0825994008
O                0.7569108674        0.0501506140        0.9179612480
O                0.2430891326        0.9498493860        0.0820387520
O                0.9179609882        0.7569110755        0.0501507830
O                0.0820390118        0.2430889245        0.9498492170
O                0.0501504565        0.9179613994        0.7569107596
O                0.9498495435        0.0820386006        0.2430892404
O                0.2657669634        0.9229875534        0.7321808995
O                0.7342330366        0.0770124466        0.2678191005
O                0.7321807853        0.2657669081        0.9229877534
O                0.2678192147        0.7342330919        0.0770122466
O                0.9229878024        0.7321807485        0.2657668968
O                0.0770121976        0.2678192515        0.7342331032
O                0.0837637081        0.7258408000        0.2584116561
O                0.9162362919        0.2741592000        0.7415883439
O                0.2584118596        0.0837632106        0.7258406557
O                0.7415881404        0.9162367894        0.2741593443
O                0.7258407215        0.2584116888        0.0837636860
O                0.2741592785        0.7415883112        0.9162363140
O                0.8384528502        0.0428398193        0.0461924321
O                0.1615471498        0.9571601807        0.9538075679
O                0.0461924083        0.8384528489        0.0428398914
O                0.9538075917        0.1615471511        0.9571601086
O                0.0428398368        0.0461923530        0.8384529602
O                0.9571601632        0.9538076470        0.1615470398
C                0.6971011325        0.9967448154        0.3107786328
C                0.3028988675        0.0032551846        0.6892213672
C                0.3107786223        0.6971011534        0.9967449715
C                0.6892213777        0.3028988466        0.0032550285
C                0.9967449448        0.3107785533        0.6971012039
C                0.0032550552        0.6892214467        0.3028987961
C                0.0007035803        0.7043832626        0.9862489779
C                0.9992964197        0.2956167374        0.0137510221
C                0.9862486603        0.0007039819        0.7043831966
C                0.0137513397        0.9992960181        0.2956168034
C                0.7043831802        0.9862487523        0.0007038881
C                0.2956168198        0.0137512477        0.9992961119
C                0.9996152970        0.4013372220        0.0061052823
C                0.0003847030        0.5986627780        0.9938947177
C                0.0061053245        0.9996152563        0.4013372095
C                0.9938946755        0.0003847437        0.5986627905
C                0.4013372102        0.0061053135        0.9996152691
C                0.5986627898        0.9938946865        0.0003847309
C                0.4043458419        0.0018627455        0.5912109483
C                0.5956541581        0.9981372545        0.4087890517
C                0.5912109179        0.4043458647        0.0018627753
C                0.4087890821        0.5956541353        0.9981372247
C                0.0018627823        0.5912109172        0.4043458661
C                0.9981372177        0.4087890828        0.5956541339
C                0.9100666917        0.4631625950        0.0724766395
C                0.0899333083        0.5368374050        0.9275233605
C                0.0724766588        0.9100666782        0.4631625343
C                0.9275233412        0.0899333218        0.5368374657
C                0.4631625570        0.0724766561        0.9100666777
C                0.5368374430        0.9275233439        0.0899333223
C                0.5606956982        0.0663583447        0.9103964728
C                0.4393043018        0.9336416553        0.0896035272
C                0.9103964352        0.5606957239        0.0663583698
C                0.0896035648        0.4393042761        0.9336416302
C                0.0663583380        0.9103964832        0.5606956957
C                0.9336416620        0.0896035168        0.4393043043
C                0.4571472509        0.9138135323        0.5497597305
C                0.5428527491        0.0861864677        0.4502402695
C                0.5497597333        0.4571472533        0.9138134888
C                0.4502402667        0.5428527467        0.0861865112
C                0.9138134862        0.5497597344        0.4571472500
C                0.0861865138        0.4502402656        0.5428527500
C                0.0880165492        0.5406842705        0.4480327925
C                0.9119834508        0.4593157295        0.5519672075
C                0.4480327874        0.0880165322        0.5406842810
C                0.5519672126        0.9119834678        0.4593157190
C                0.5406842568        0.4480328102        0.0880165382
C                0.4593157432        0.5519671898        0.9119834618
H                0.5899252797        0.4224335338        0.8471220202
H                0.4100747203        0.5775664662        0.1528779798
H                0.8471220247        0.5899252782        0.4224335334
H                0.1528779753        0.4100747218        0.5775664666
H                0.4224335421        0.8471220233        0.5899252724
H                0.5775664579        0.1528779767        0.4100747276
H                0.5738006731        0.4062099115        0.1560605287
H                0.4261993269        0.5937900885        0.8439394713
H                0.1560605242        0.5738006747        0.4062099104
H                0.8439394758        0.4261993253        0.5937900896
H                0.4062099098        0.1560605212        0.5738006770
H                0.5937900902        0.8439394788        0.4261993230
H                0.1286336095        0.8404990325        0.4327059728
H                0.8713663905        0.1595009675        0.5672940272
H                0.4327059745        0.1286336113        0.8404990283
H                0.5672940255        0.8713663887        0.1595009717
H                0.8404990220        0.4327059849        0.1286336142
H                0.1595009780        0.5672940151        0.8713663858
H                0.1171894492        0.8409037077        0.6098028644
H                0.8828105508        0.1590962923        0.3901971356
H                0.6098028712        0.1171894471        0.8409037103
H                0.3901971288        0.8828105529        0.1590962897
H                0.8409037061        0.6098028797        0.1171894514
H                0.1590962939        0.3901971203        0.8828105486



     Writing config-only to output data dir ./pwscf.save/ :
     XML data file
     NEW-OLD atomic charge density approx. for the potential

     Check: negative core charge=   -0.000001

     negative rho (up, down):  5.062E-04 0.000E+00

     total cpu time spent up to now is      187.6 secs

     Self-consistent Calculation

     iteration #  1     ecut=    80.00 Ry     beta= 0.70
     Davidson diagonalization with overlap
     ethr =  1.00E-06,  avg # of iterations = 12.0

     negative rho (up, down):  5.110E-04 0.000E+00

     total cpu time spent up to now is      199.9 secs

     total energy              =   -4009.16535921 Ry
     estimated scf accuracy    <       0.00329228 Ry

     iteration #  2     ecut=    80.00 Ry     beta= 0.70
     Davidson diagonalization with overlap
     ethr =  7.03E-07,  avg # of iterations =  6.0

     negative rho (up, down):  5.130E-04 0.000E+00

     total cpu time spent up to now is      204.9 secs

     total energy              =   -4009.16626167 Ry
     estimated scf accuracy    <       0.00040915 Ry

     iteration #  3     ecut=    80.00 Ry     beta= 0.70
     Davidson diagonalization with overlap
     ethr =  8.74E-08,  avg # of iterations =  7.0

     negative rho (up, down):  5.143E-04 0.000E+00

     total cpu time spent up to now is      212.0 secs

     total energy              =   -4009.16655589 Ry
     estimated scf accuracy    <       0.00031980 Ry

     iteration #  4     ecut=    80.00 Ry     beta= 0.70
     Davidson diagonalization with overlap
     ethr =  6.83E-08,  avg # of iterations =  2.0

     negative rho (up, down):  5.161E-04 0.000E+00

     total cpu time spent up to now is      215.5 secs

     total energy              =   -4009.16653118 Ry
     estimated scf accuracy    <       0.00006858 Ry

     iteration #  5     ecut=    80.00 Ry     beta= 0.70
     Davidson diagonalization with overlap
     ethr =  1.47E-08,  avg # of iterations = 15.0

     negative rho (up, down):  5.158E-04 0.000E+00

     total cpu time spent up to now is      224.9 secs

     total energy              =   -4009.16665033 Ry
     estimated scf accuracy    <       0.00030728 Ry

     iteration #  6     ecut=    80.00 Ry     beta= 0.70
     Davidson diagonalization with overlap
     ethr =  1.47E-08,  avg # of iterations =  2.0

     negative rho (up, down):  5.155E-04 0.000E+00

     total cpu time spent up to now is      228.1 secs

     total energy              =   -4009.16653084 Ry
     estimated scf accuracy    <       0.00021430 Ry

     iteration #  7     ecut=    80.00 Ry     beta= 0.70
     Davidson diagonalization with overlap
     ethr =  1.47E-08,  avg # of iterations = 12.0

     negative rho (up, down):  5.156E-04 0.000E+00

     total cpu time spent up to now is      236.1 secs

     total energy              =   -4009.16661714 Ry
     estimated scf accuracy    <       0.00002802 Ry

     iteration #  8     ecut=    80.00 Ry     beta= 0.70
     Davidson diagonalization with overlap
     ethr =  5.99E-09,  avg # of iterations =  2.0

     negative rho (up, down):  5.158E-04 0.000E+00

     total cpu time spent up to now is      239.4 secs

     total energy              =   -4009.16660587 Ry
     estimated scf accuracy    <       0.00002026 Ry

     iteration #  9     ecut=    80.00 Ry     beta= 0.70
     Davidson diagonalization with overlap
     ethr =  4.33E-09,  avg # of iterations =  7.0

     negative rho (up, down):  5.157E-04 0.000E+00

     total cpu time spent up to now is      244.5 secs

     total energy              =   -4009.16661317 Ry
     estimated scf accuracy    <       0.00000208 Ry

     iteration # 10     ecut=    80.00 Ry     beta= 0.70
     Davidson diagonalization with overlap
     ethr =  4.45E-10,  avg # of iterations =  7.0

     negative rho (up, down):  5.157E-04 0.000E+00

     total cpu time spent up to now is      249.4 secs

     total energy              =   -4009.16661352 Ry
     estimated scf accuracy    <       0.00000068 Ry

     iteration # 11     ecut=    80.00 Ry     beta= 0.70
     Davidson diagonalization with overlap
     ethr =  1.44E-10,  avg # of iterations =  9.0

     negative rho (up, down):  5.157E-04 0.000E+00

     total cpu time spent up to now is      254.6 secs

     total energy              =   -4009.16661370 Ry
     estimated scf accuracy    <       0.00000008 Ry

     iteration # 12     ecut=    80.00 Ry     beta= 0.70
     Davidson diagonalization with overlap
     ethr =  1.67E-11,  avg # of iterations =  9.0

     negative rho (up, down):  5.157E-04 0.000E+00

     total cpu time spent up to now is      261.0 secs

     total energy              =   -4009.16661373 Ry
     estimated scf accuracy    <       0.00000011 Ry

     iteration # 13     ecut=    80.00 Ry     beta= 0.70
     Davidson diagonalization with overlap
     ethr =  1.67E-11,  avg # of iterations =  2.0

     negative rho (up, down):  5.158E-04 0.000E+00

     total cpu time spent up to now is      264.1 secs

     total energy              =   -4009.16661371 Ry
     estimated scf accuracy    <       0.00000007 Ry

     iteration # 14     ecut=    80.00 Ry     beta= 0.70
     Davidson diagonalization with overlap
     ethr =  1.55E-11,  avg # of iterations =  8.0

     negative rho (up, down):  5.158E-04 0.000E+00

     total cpu time spent up to now is      268.4 secs

     total energy              =   -4009.16661371 Ry
     estimated scf accuracy    <       0.00000001 Ry

     iteration # 15     ecut=    80.00 Ry     beta= 0.70
     Davidson diagonalization with overlap
     ethr =  3.13E-12,  avg # of iterations =  9.0

     negative rho (up, down):  5.157E-04 0.000E+00

     total cpu time spent up to now is      275.0 secs

     End of self-consistent calculation

          k = 0.0000 0.0000 0.0000 ( 93113 PWs)   bands (ev):

   -49.6514 -49.6362 -49.6362 -49.6258 -49.6234 -49.6234 -28.1143 -28.0112
   -28.0112 -27.9243 -27.9243 -27.9240 -27.7937 -27.7513 -27.7513 -27.7456
   -27.7456 -27.7214 -27.6566 -27.6566 -27.6226 -27.6102 -27.6102 -27.6086
   -22.8078 -22.7646 -22.7646 -22.7583 -22.7583 -22.7342 -22.5425 -22.5371
   -22.4767 -22.4767 -22.4750 -22.4750 -20.5161 -20.5000 -20.5000 -20.4711
   -20.4711 -20.4368 -20.3064 -20.3064 -20.2851 -20.2851 -20.2008 -20.1970
   -17.9601 -17.7236 -17.7236 -17.5178 -17.5178 -17.4590 -17.4487 -17.4486
   -17.4441 -17.2738 -17.2738 -17.2717 -15.1040 -15.1040 -15.0949 -14.9051
   -14.8848 -14.8848 -14.5475 -14.5455 -14.5455 -14.3662 -14.3662 -14.3641
   -12.3516 -12.3169 -12.3169 -12.1513 -12.0926 -12.0925 -10.9946 -10.9946
   -10.9838 -10.8069 -10.8069 -10.7906 -10.2549 -10.2549 -10.1757 -10.0597
    -9.8912  -9.8912  -9.6530  -9.5983  -9.5983  -9.4774  -9.4099  -9.4099
    -8.7876  -8.6091  -8.5451  -8.5451  -8.3986  -8.3986  -8.3535  -8.2015
    -8.2015  -8.1495  -8.1494  -7.8752  -7.8634  -7.8633  -7.7751  -7.7751
    -7.6570  -7.6414  -7.6388  -7.6388  -7.5624  -7.4072  -7.4072  -7.2564
    -7.1387  -6.8964  -6.8964  -6.8743  -6.8439  -6.8439  -6.8071  -6.7488
    -6.7487  -6.7146  -6.7085  -6.7085  -6.6805  -6.6805  -6.6704  -6.5701
    -6.5392  -6.5392  -6.5106  -6.4852  -6.4354  -6.4354  -6.3307  -6.3307
    -6.2550  -6.2305  -6.2305  -6.0541  -6.0541  -6.0377  -5.7192  -5.6128
    -5.6128  -5.4816  -5.2805  -5.2805  -5.1301  -5.0428  -4.9885  -4.9885
    -4.9038  -4.9038  -4.8788  -4.8788  -4.8705  -4.8251  -4.7888  -4.7888
    -4.7267  -4.2367  -4.2367  -4.1792  -4.1672  -4.1672  -4.1643  -4.1142
    -4.1142  -3.9719  -3.9719  -3.9544  -3.9257  -3.9257  -3.8033  -3.6381
    -3.6259  -3.6259  -3.5673  -3.4460  -3.3566  -3.3566  -3.3238  -3.2559
    -3.2558  -3.2408  -3.1752  -3.1752  -3.0968  -3.0415  -3.0415  -2.9688
    -2.9688  -2.9303  -2.9303  -2.8054  -2.7854  -2.6729  -2.6710  -2.6710
    -2.6705  -2.6705  -2.5674  -2.5673  -2.5609  -2.5142  -2.5142  -2.4787
    -2.4589  -2.4589  -2.4481  -2.4213  -2.3983  -2.3983  -2.3918  -2.3576
    -2.3576  -2.3271  -2.2853  -2.2853  -2.2203  -2.2203  -2.2112  -1.5670
    -1.5670  -1.4371

     highest occupied level (ev):    -1.4371

!    total energy              =   -4009.16661372 Ry
     total all-electron energy =    -51389.583720 Ry
     estimated scf accuracy    <          4.9E-09 Ry

     The total energy is the sum of the following terms:
     one-electron contribution =   -6082.88784882 Ry
     hartree contribution      =    3172.59379205 Ry
     xc contribution           =    -570.15400280 Ry
     ewald contribution        =    1314.99228623 Ry
     one-center paw contrib.   =   -1843.71084039 Ry

     convergence has been achieved in  15 iterations

     negative rho (up, down):  5.157E-04 0.000E+00

     Forces acting on atoms (cartesian axes, Ry/au):

     atom    1 type  2   force =     0.00272554   -0.00843401   -0.00548552
     atom    2 type  2   force =    -0.00272554    0.00843401    0.00548552
     atom    3 type  2   force =    -0.00567491    0.00615618   -0.00621061
     atom    4 type  2   force =     0.00567491   -0.00615618    0.00621061
     atom    5 type  2   force =    -0.00613010   -0.00314954    0.00781766
     atom    6 type  2   force =     0.00613010    0.00314954   -0.00781766
     atom    7 type  4   force =     0.00623119    0.00219857   -0.00562083
     atom    8 type  4   force =    -0.00623119   -0.00219857    0.00562083
     atom    9 type  4   force =    -0.00110445    0.00767111    0.00389059
     atom   10 type  4   force =     0.00110445   -0.00767111   -0.00389059
     atom   11 type  4   force =     0.00489049   -0.00389011    0.00601032
     atom   12 type  4   force =    -0.00489049    0.00389011   -0.00601032
     atom   13 type  4   force =    -0.00602206   -0.00062201    0.00479293
     atom   14 type  4   force =     0.00602206    0.00062201   -0.00479293
     atom   15 type  4   force =     0.00096339   -0.00736366   -0.00213430
     atom   16 type  4   force =    -0.00096339    0.00736366    0.00213430
     atom   17 type  4   force =    -0.00340284    0.00292627   -0.00628009
     atom   18 type  4   force =     0.00340284   -0.00292627    0.00628009
     atom   19 type  4   force =     0.00302851    0.00253794   -0.00139855
     atom   20 type  4   force =    -0.00302851   -0.00253794    0.00139855
     atom   21 type  4   force =     0.00098937    0.00290528    0.00285136
     atom   22 type  4   force =    -0.00098937   -0.00290528   -0.00285136
     atom   23 type  4   force =     0.00366792   -0.00085258    0.00183179
     atom   24 type  4   force =    -0.00366792    0.00085258   -0.00183179
     atom   25 type  4   force =    -0.00560743   -0.00134355    0.00308715
     atom   26 type  4   force =     0.00560743    0.00134355   -0.00308715
     atom   27 type  4   force =    -0.00046444   -0.00610306   -0.00225917
     atom   28 type  4   force =     0.00046444    0.00610306    0.00225917
     atom   29 type  4   force =    -0.00384325    0.00154031   -0.00506545
     atom   30 type  4   force =     0.00384325   -0.00154031    0.00506545
     atom   31 type  4   force =    -0.00371569    0.00569844    0.00424829
     atom   32 type  4   force =     0.00371569   -0.00569844   -0.00424829
     atom   33 type  4   force =     0.00339318   -0.00605022    0.00402870
     atom   34 type  4   force =    -0.00339318    0.00605022   -0.00402870
     atom   35 type  4   force =     0.00325349    0.00210144   -0.00702268
     atom   36 type  4   force =    -0.00325349   -0.00210144    0.00702268
     atom   37 type  3   force =     0.00596987   -0.00616014   -0.01084740
     atom   38 type  3   force =    -0.00596987    0.00616014    0.01084740
     atom   39 type  3   force =    -0.00796177    0.01106406   -0.00235615
     atom   40 type  3   force =     0.00796177   -0.01106406    0.00235615
     atom   41 type  3   force =    -0.00260703   -0.00763969    0.01123350
     atom   42 type  3   force =     0.00260703    0.00763969   -0.01123350
     atom   43 type  3   force =     0.00673445    0.01089394   -0.00159143
     atom   44 type  3   force =    -0.00673445   -0.01089394    0.00159143
     atom   45 type  3   force =     0.00495540    0.00497768    0.01082664
     atom   46 type  3   force =    -0.00495540   -0.00497768   -0.01082664
     atom   47 type  3   force =     0.01278431   -0.00125912    0.00122696
     atom   48 type  3   force =    -0.01278431    0.00125912   -0.00122696
     atom   49 type  3   force =     0.00043806    0.00188169    0.00017681
     atom   50 type  3   force =    -0.00043806   -0.00188169   -0.00017681
     atom   51 type  3   force =     0.00088908    0.00001804    0.00172547
     atom   52 type  3   force =    -0.00088908   -0.00001804   -0.00172547
     atom   53 type  3   force =     0.00186500    0.00000466   -0.00053772
     atom   54 type  3   force =    -0.00186500   -0.00000466    0.00053772
     atom   55 type  3   force =    -0.00054929    0.00007421    0.00045193
     atom   56 type  3   force =     0.00054929   -0.00007421   -0.00045193
     atom   57 type  3   force =     0.00013762   -0.00069931   -0.00007593
     atom   58 type  3   force =    -0.00013762    0.00069931    0.00007593
     atom   59 type  3   force =    -0.00019592    0.00026236   -0.00063809
     atom   60 type  3   force =     0.00019592   -0.00026236    0.00063809
     atom   61 type  3   force =    -0.00814986   -0.00868419    0.00366093
     atom   62 type  3   force =     0.00814986    0.00868419   -0.00366093
     atom   63 type  3   force =    -0.00327332   -0.00749225   -0.00939801
     atom   64 type  3   force =     0.00327332    0.00749225    0.00939801
     atom   65 type  3   force =    -0.01150928    0.00248318   -0.00407024
     atom   66 type  3   force =     0.01150928   -0.00248318    0.00407024
     atom   67 type  3   force =     0.01172882    0.00169833   -0.00473782
     atom   68 type  3   force =    -0.01172882   -0.00169833    0.00473782
     atom   69 type  3   force =     0.00209584    0.01219285    0.00313205
     atom   70 type  3   force =    -0.00209584   -0.01219285   -0.00313205
     atom   71 type  3   force =     0.00705886   -0.00142284    0.01053783
     atom   72 type  3   force =    -0.00705886    0.00142284   -0.01053783
     atom   73 type  3   force =    -0.00569500   -0.00207271    0.00587268
     atom   74 type  3   force =     0.00569500    0.00207271   -0.00587268
     atom   75 type  3   force =     0.00160676   -0.00733434   -0.00385102
     atom   76 type  3   force =    -0.00160676    0.00733434    0.00385102
     atom   77 type  3   force =    -0.00452473    0.00426366   -0.00570549
     atom   78 type  3   force =     0.00452473   -0.00426366    0.00570549
     atom   79 type  3   force =     0.00471224    0.00367239   -0.00630768
     atom   80 type  3   force =    -0.00471224   -0.00367239    0.00630768
     atom   81 type  3   force =    -0.00198204    0.00642054    0.00550642
     atom   82 type  3   force =     0.00198204   -0.00642054   -0.00550642
     atom   83 type  3   force =     0.00546851   -0.00519833    0.00430812
     atom   84 type  3   force =    -0.00546851    0.00519833   -0.00430812
     atom   85 type  1   force =     0.00048836    0.00233131    0.00286376
     atom   86 type  1   force =    -0.00048836   -0.00233131   -0.00286376
     atom   87 type  1   force =     0.00327878   -0.00121203    0.00128576
     atom   88 type  1   force =    -0.00327878    0.00121203   -0.00128576
     atom   89 type  1   force =     0.00228402    0.00249428   -0.00156140
     atom   90 type  1   force =    -0.00228402   -0.00249428    0.00156140
     atom   91 type  1   force =    -0.00228835    0.00065799   -0.00295216
     atom   92 type  1   force =     0.00228835   -0.00065799    0.00295216
     atom   93 type  1   force =    -0.00335946   -0.00078880    0.00157265
     atom   94 type  1   force =     0.00335946    0.00078880   -0.00157265
     atom   95 type  1   force =    -0.00050622   -0.00354382   -0.00125310
     atom   96 type  1   force =     0.00050622    0.00354382    0.00125310
     atom   97 type  1   force =    -0.00012045    0.00356555    0.00190668
     atom   98 type  1   force =     0.00012045   -0.00356555   -0.00190668
     atom   99 type  1   force =     0.00254204   -0.00150662    0.00276237
     atom  100 type  1   force =    -0.00254204    0.00150662   -0.00276237
     atom  101 type  1   force =     0.00308201    0.00122697   -0.00231563
     atom  102 type  1   force =    -0.00308201   -0.00122697    0.00231563
     atom  103 type  1   force =    -0.00236922    0.00203350   -0.00262314
     atom  104 type  1   force =     0.00236922   -0.00203350    0.00262314
     atom  105 type  1   force =    -0.00273426   -0.00121776    0.00276899
     atom  106 type  1   force =     0.00273426    0.00121776   -0.00276899
     atom  107 type  1   force =     0.00066590   -0.00346483   -0.00204377
     atom  108 type  1   force =    -0.00066590    0.00346483    0.00204377

     Total force =     0.086819     Total SCF correction =     0.000147


     Computing stress (Cartesian axis) and pressure


     negative rho (up, down):  5.157E-04 0.000E+00
          total   stress  (Ry/bohr**3)                   (kbar)     P=       -3.36
  -0.00002267   0.00000022   0.00000016           -3.34        0.03        0.02
   0.00000022  -0.00002292   0.00000010            0.03       -3.37        0.01
   0.00000016   0.00000010  -0.00002298            0.02        0.01       -3.38

     Energy error            =      4.4E-03 Ry
     Gradient error          =      1.3E-02 Ry/Bohr
     Cell gradient error     =      3.4E+00 kbar

     number of scf cycles    =   2
     number of bfgs steps    =   1

     enthalpy           old  =   -4009.1622455391 Ry
     enthalpy           new  =   -4009.1666137236 Ry

     CASE: enthalpy          _new < enthalpy          _old

     new trust radius        =       0.0181326433 bohr
     new conv_thr            =       0.0000000100 Ry

     new unit-cell volume =  15371.19762 a.u.^3 (  2277.77648 Ang^3 )
     density =      1.18684 g/cm^3

CELL_PARAMETERS (alat= 27.59009591)
   0.999082265  -0.000083598  -0.000059760
   0.473863951   0.879555893  -0.000059662
   0.473864055   0.282936634   0.832805857

ATOMIC_POSITIONS (crystal)
Zr               0.8734453772        0.1188806154        0.1223603331
Zr               0.1265546228        0.8811183846        0.8776396669
Zr               0.1223606022        0.8734454847        0.1188805295
Zr               0.8776393978        0.1265545153        0.8811184705
Zr               0.1188802182        0.1223606717        0.8734461458
Zr               0.8811187818        0.8776393283        0.1265538542
O                0.9174321471        0.2629122995        0.0854678387
O                0.0825678529        0.7370877005        0.9145321613
O                0.0854682087        0.9174317061        0.2629121542
O                0.9145317913        0.0825682939        0.7370878458
O                0.2629122232        0.0854680148        0.9174318924
O                0.7370877768        0.9145319852        0.0825681076
O                0.7567494645        0.0502500903        0.9179463921
O                0.2432505355        0.9497499097        0.0820536079
O                0.9179461779        0.7567496401        0.0502502104
O                0.0820538221        0.2432503599        0.9497497896
O                0.0502499083        0.9179465421        0.7567493890
O                0.9497500917        0.0820534579        0.2432506110
O                0.2657778171        0.9229457360        0.7322115137
O                0.7342221829        0.0770542640        0.2677884863
O                0.7322113876        0.2657777074        0.9229459552
O                0.2677886124        0.7342222926        0.0770540448
O                0.9229460040        0.7322113730        0.2657776376
O                0.0770539960        0.2677886270        0.7342223624
O                0.0837500715        0.7258365946        0.2584326529
O                0.9162499285        0.2741634054        0.7415673471
O                0.2584327199        0.0837498009        0.7258366092
O                0.7415672801        0.9162501991        0.2741633908
O                0.7258364851        0.2584327333        0.0837499810
O                0.2741635149        0.7415672667        0.9162500190
O                0.8380737044        0.0430465837        0.0464054507
O                0.1619262956        0.9569534163        0.9535945493
O                0.0464054591        0.8380736572        0.0430466871
O                0.9535945409        0.1619263428        0.9569533129
O                0.0430465708        0.0464053736        0.8380738797
O                0.9569534292        0.9535946264        0.1619261203
C                0.6974032040        0.9966846965        0.3104878028
C                0.3025967960        0.0033153035        0.6895121972
C                0.3104877823        0.6974032646        0.9966844433
C                0.6895122177        0.3025967354        0.0033155567
C                0.9966844128        0.3104876807        0.6974033228
C                0.0033155872        0.6895123193        0.3025966772
C                0.0007443986        0.7046411402        0.9862041962
C                0.9992556014        0.2953588598        0.0137958038
C                0.9862038529        0.0007448558        0.7046410477
C                0.0137961471        0.9992551442        0.2953589523
C                0.7046410260        0.9862040408        0.0007446378
C                0.2953589740        0.0137959592        0.9992553622
C                0.9996000195        0.4013588595        0.0061043952
C                0.0003999805        0.5986411405        0.9938956048
C                0.0061044865        0.9995999242        0.4013588674
C                0.9938955135        0.0004000758        0.5986411326
C                0.4013588665        0.0061044588        0.9995999539
C                0.5986411335        0.9938955412        0.0004000461
C                0.4043047938        0.0018615644        0.5912426508
C                0.5956952062        0.9981384356        0.4087573492
C                0.5912426538        0.4043047870        0.0018615783
C                0.4087573462        0.5956952130        0.9981384217
C                0.0018615910        0.5912426692        0.4043047754
C                0.9981384090        0.4087573308        0.5956952246
C                0.9100111452        0.4629385983        0.0725290851
C                0.0899888548        0.5370614017        0.9274709149
C                0.0725290983        0.9100111374        0.4629385937
C                0.9274709017        0.0899888626        0.5370614063
C                0.4629385952        0.0725291006        0.9100111319
C                0.5370614048        0.9274708994        0.0899888681
C                0.5609390559        0.0664044278        0.9103242969
C                0.4390609441        0.9335955722        0.0896757031
C                0.9103242660        0.5609390597        0.0664044505
C                0.0896757340        0.4390609403        0.9335955495
C                0.0664044128        0.9103243160        0.5609390565
C                0.9335955872        0.0896756840        0.4390609435
C                0.4570090269        0.9137753677        0.5498973863
C                0.5429909731        0.0862246323        0.4501026137
C                0.5498973846        0.4570090339        0.9137753415
C                0.4501026154        0.5429909661        0.0862246585
C                0.9137753481        0.5498973912        0.4570090231
C                0.0862246519        0.4501026088        0.5429909769
C                0.0880658751        0.5408184846        0.4478826879
C                0.9119341249        0.4591815154        0.5521173121
C                0.4478826869        0.0880658427        0.5408184935
C                0.5521173131        0.9119341573        0.4591815065
C                0.5408184725        0.4478827002        0.0880658730
C                0.4591815275        0.5521172998        0.9119341270
H                0.5899060693        0.4224454724        0.8471773173
H                0.4100939307        0.5775545276        0.1528226827
H                0.8471773180        0.5899060734        0.4224454654
H                0.1528226820        0.4100939266        0.5775545346
H                0.4224454801        0.8471773304        0.5899060610
H                0.5775545199        0.1528226696        0.4100939390
H                0.5737884548        0.4062262519        0.1560053747
H                0.4262115452        0.5937737481        0.8439946253
H                0.1560053788        0.5737884640        0.4062262436
H                0.8439946212        0.4262115360        0.5937737564
H                0.4062262528        0.1560053630        0.5737884587
H                0.5937737472        0.8439946370        0.4262115413
H                0.1286035645        0.8405320039        0.4327459429
H                0.8713964355        0.1594679961        0.5672540571
H                0.4327459472        0.1286035682        0.8405319944
H                0.5672540528        0.8713964318        0.1594680056
H                0.8405320020        0.4327459626        0.1286035607
H                0.1594679980        0.5672540374        0.8713964393
H                0.1171663982        0.8409323615        0.6097583348
H                0.8828336018        0.1590676385        0.3902416652
H                0.6097583488        0.1171664030        0.8409323526
H                0.3902416512        0.8828335970        0.1590676474
H                0.8409323416        0.6097583596        0.1171664141
H                0.1590676584        0.3902416404        0.8828335859



     Writing config-only to output data dir ./pwscf.save/ :
     XML data file
     NEW-OLD atomic charge density approx. for the potential

     Check: negative core charge=   -0.000001

     negative rho (up, down):  5.078E-04 0.000E+00

     total cpu time spent up to now is      279.5 secs

     Self-consistent Calculation

     iteration #  1     ecut=    80.00 Ry     beta= 0.70
     Davidson diagonalization with overlap
     ethr =  1.00E-06,  avg # of iterations =  9.0

     negative rho (up, down):  5.151E-04 0.000E+00

     total cpu time spent up to now is      289.8 secs

     total energy              =   -4009.16887161 Ry
     estimated scf accuracy    <       0.00113599 Ry

     iteration #  2     ecut=    80.00 Ry     beta= 0.70
     Davidson diagonalization with overlap
     ethr =  2.43E-07,  avg # of iterations =  9.0

     negative rho (up, down):  5.160E-04 0.000E+00

     total cpu time spent up to now is      296.1 secs

     total energy              =   -4009.16913853 Ry
     estimated scf accuracy    <       0.00118179 Ry

     iteration #  3     ecut=    80.00 Ry     beta= 0.70
     Davidson diagonalization with overlap
     ethr =  2.43E-07,  avg # of iterations =  8.0

     negative rho (up, down):  5.165E-04 0.000E+00

     total cpu time spent up to now is      300.8 secs

     total energy              =   -4009.16936496 Ry
     estimated scf accuracy    <       0.00005771 Ry

     iteration #  4     ecut=    80.00 Ry     beta= 0.70
     Davidson diagonalization with overlap
     ethr =  1.23E-08,  avg # of iterations =  7.0

     negative rho (up, down):  5.171E-04 0.000E+00

     total cpu time spent up to now is      308.3 secs

     total energy              =   -4009.16943204 Ry
     estimated scf accuracy    <       0.00002753 Ry

     iteration #  5     ecut=    80.00 Ry     beta= 0.70
     Davidson diagonalization with overlap
     ethr =  5.88E-09,  avg # of iterations =  7.0

     negative rho (up, down):  5.173E-04 0.000E+00

     total cpu time spent up to now is      312.5 secs

     total energy              =   -4009.16943187 Ry
     estimated scf accuracy    <       0.00000804 Ry

     iteration #  6     ecut=    80.00 Ry     beta= 0.70
     Davidson diagonalization with overlap
     ethr =  1.72E-09,  avg # of iterations =  8.0

     negative rho (up, down):  5.173E-04 0.000E+00

     total cpu time spent up to now is      318.7 secs

     total energy              =   -4009.16943644 Ry
     estimated scf accuracy    <       0.00000221 Ry

     iteration #  7     ecut=    80.00 Ry     beta= 0.70
     Davidson diagonalization with overlap
     ethr =  4.73E-10,  avg # of iterations =  2.0

     negative rho (up, down):  5.173E-04 0.000E+00

     total cpu time spent up to now is      322.1 secs

     total energy              =   -4009.16943570 Ry
     estimated scf accuracy    <       0.00000123 Ry

     iteration #  8     ecut=    80.00 Ry     beta= 0.70
     Davidson diagonalization with overlap
     ethr =  2.63E-10,  avg # of iterations = 12.0

     negative rho (up, down):  5.174E-04 0.000E+00

     total cpu time spent up to now is      329.5 secs

     total energy              =   -4009.16943674 Ry
     estimated scf accuracy    <       0.00000229 Ry

     iteration #  9     ecut=    80.00 Ry     beta= 0.70
     Davidson diagonalization with overlap
     ethr =  2.63E-10,  avg # of iterations =  2.0

     negative rho (up, down):  5.174E-04 0.000E+00

     total cpu time spent up to now is      332.7 secs

     total energy              =   -4009.16943608 Ry
     estimated scf accuracy    <       0.00000124 Ry

     iteration # 10     ecut=    80.00 Ry     beta= 0.70
     Davidson diagonalization with overlap
     ethr =  2.63E-10,  avg # of iterations = 10.0

     negative rho (up, down):  5.174E-04 0.000E+00

     total cpu time spent up to now is      338.8 secs

     total energy              =   -4009.16943664 Ry
     estimated scf accuracy    <       0.00000036 Ry

     iteration # 11     ecut=    80.00 Ry     beta= 0.70
     Davidson diagonalization with overlap
     ethr =  7.76E-11,  avg # of iterations =  5.0

     negative rho (up, down):  5.174E-04 0.000E+00

     total cpu time spent up to now is      342.4 secs

     total energy              =   -4009.16943661 Ry
     estimated scf accuracy    <       0.00000011 Ry

     iteration # 12     ecut=    80.00 Ry     beta= 0.70
     Davidson diagonalization with overlap
     ethr =  2.33E-11,  avg # of iterations = 11.0

     negative rho (up, down):  5.174E-04 0.000E+00

     total cpu time spent up to now is      349.3 secs

     total energy              =   -4009.16943669 Ry
     estimated scf accuracy    <       0.00000007 Ry

     iteration # 13     ecut=    80.00 Ry     beta= 0.70
     Davidson diagonalization with overlap
     ethr =  1.53E-11,  avg # of iterations =  2.0

     negative rho (up, down):  5.174E-04 0.000E+00

     total cpu time spent up to now is      352.4 secs

     total energy              =   -4009.16943667 Ry
[...]
     atom    3 type  2   force =     0.00000562    0.00000678   -0.00002750
     atom    4 type  2   force =    -0.00000562   -0.00000678    0.00002750
     atom    5 type  2   force =    -0.00002243    0.00000243    0.00002562
     atom    6 type  2   force =     0.00002243   -0.00000243   -0.00002562
     atom    7 type  4   force =    -0.00006919   -0.00004532   -0.00003692
     atom    8 type  4   force =     0.00006919    0.00004532    0.00003692
     atom    9 type  4   force =    -0.00007595   -0.00001510   -0.00001403
     atom   10 type  4   force =     0.00007595    0.00001510    0.00001403
     atom   11 type  4   force =    -0.00006228   -0.00005124   -0.00002046
     atom   12 type  4   force =     0.00006228    0.00005124    0.00002046
     atom   13 type  4   force =     0.00004066    0.00002466    0.00005809
     atom   14 type  4   force =    -0.00004066   -0.00002466   -0.00005809
     atom   15 type  4   force =     0.00006660    0.00001578    0.00001693
     atom   16 type  4   force =    -0.00006660   -0.00001578   -0.00001693
     atom   17 type  4   force =     0.00006689    0.00004263    0.00002690
     atom   18 type  4   force =    -0.00006689   -0.00004263   -0.00002690
     atom   19 type  4   force =    -0.00000221   -0.00000551   -0.00005634
     atom   20 type  4   force =     0.00000221    0.00000551    0.00005634
     atom   21 type  4   force =    -0.00003497    0.00005639    0.00006483
     atom   22 type  4   force =     0.00003497   -0.00005639   -0.00006483
     atom   23 type  4   force =    -0.00002953   -0.00004246    0.00000406
     atom   24 type  4   force =     0.00002953    0.00004246   -0.00000406
     atom   25 type  4   force =    -0.00008657    0.00006812   -0.00000388
     atom   26 type  4   force =     0.00008657   -0.00006812    0.00000388
     atom   27 type  4   force =    -0.00002765   -0.00010195    0.00005743
     atom   28 type  4   force =     0.00002765    0.00010195   -0.00005743
     atom   29 type  4   force =     0.00006924   -0.00004876   -0.00003323
     atom   30 type  4   force =    -0.00006924    0.00004876    0.00003323
     atom   31 type  4   force =    -0.00003563   -0.00001622   -0.00002186
     atom   32 type  4   force =     0.00003563    0.00001622    0.00002186
     atom   33 type  4   force =    -0.00004699   -0.00002045   -0.00001188
     atom   34 type  4   force =     0.00004699    0.00002045    0.00001188
     atom   35 type  4   force =    -0.00002667   -0.00004305   -0.00001558
     atom   36 type  4   force =     0.00002667    0.00004305    0.00001558
     atom   37 type  3   force =    -0.00000813   -0.00002085   -0.00003257
     atom   38 type  3   force =     0.00000813    0.00002085    0.00003257
     atom   39 type  3   force =     0.00004833    0.00003320    0.00013912
     atom   40 type  3   force =    -0.00004833   -0.00003320   -0.00013912
     atom   41 type  3   force =    -0.00002505   -0.00001130   -0.00001361
     atom   42 type  3   force =     0.00002505    0.00001130    0.00001361
     atom   43 type  3   force =     0.00002649    0.00001363    0.00002894
     atom   44 type  3   force =    -0.00002649   -0.00001363   -0.00002894
     atom   45 type  3   force =     0.00003430    0.00001017    0.00000522
     atom   46 type  3   force =    -0.00003430   -0.00001017   -0.00000522
     atom   47 type  3   force =     0.00004552    0.00004088   -0.00001753
     atom   48 type  3   force =    -0.00004552   -0.00004088    0.00001753
     atom   49 type  3   force =     0.00006774   -0.00003521   -0.00011151
     atom   50 type  3   force =    -0.00006774    0.00003521    0.00011151
     atom   51 type  3   force =     0.00002515   -0.00012504    0.00002213
     atom   52 type  3   force =    -0.00002515    0.00012504   -0.00002213
     atom   53 type  3   force =     0.00000635   -0.00002710   -0.00000489
     atom   54 type  3   force =    -0.00000635    0.00002710    0.00000489
     atom   55 type  3   force =     0.00003083    0.00000492    0.00000597
     atom   56 type  3   force =    -0.00003083   -0.00000492   -0.00000597
     atom   57 type  3   force =     0.00004832    0.00005454    0.00007335
     atom   58 type  3   force =    -0.00004832   -0.00005454   -0.00007335
     atom   59 type  3   force =     0.00004611    0.00001517    0.00001470
     atom   60 type  3   force =    -0.00004611   -0.00001517   -0.00001470
     atom   61 type  3   force =    -0.00006155    0.00005800    0.00006450
     atom   62 type  3   force =     0.00006155   -0.00005800   -0.00006450
     atom   63 type  3   force =    -0.00003941    0.00008727    0.00000656
     atom   64 type  3   force =     0.00003941   -0.00008727   -0.00000656
     atom   65 type  3   force =     0.00002828   -0.00001160   -0.00000367
     atom   66 type  3   force =    -0.00002828    0.00001160    0.00000367
     atom   67 type  3   force =     0.00003704    0.00003225   -0.00003536
     atom   68 type  3   force =    -0.00003704   -0.00003225    0.00003536
     atom   69 type  3   force =     0.00006651    0.00003841   -0.00002250
     atom   70 type  3   force =    -0.00006651   -0.00003841    0.00002250
     atom   71 type  3   force =     0.00008602   -0.00013736    0.00003178
     atom   72 type  3   force =    -0.00008602    0.00013736   -0.00003178
     atom   73 type  3   force =     0.00002336   -0.00002690   -0.00000674
     atom   74 type  3   force =    -0.00002336    0.00002690    0.00000674
     atom   75 type  3   force =    -0.00001011   -0.00001211   -0.00007160
     atom   76 type  3   force =     0.00001011    0.00001211    0.00007160
     atom   77 type  3   force =    -0.00002266   -0.00000343    0.00004694
     atom   78 type  3   force =     0.00002266    0.00000343   -0.00004694
     atom   79 type  3   force =    -0.00004184   -0.00001035   -0.00000155
     atom   80 type  3   force =     0.00004184    0.00001035    0.00000155
     atom   81 type  3   force =    -0.00001810   -0.00000383   -0.00000132
     atom   82 type  3   force =     0.00001810    0.00000383    0.00000132
     atom   83 type  3   force =    -0.00001993   -0.00006079   -0.00005901
     atom   84 type  3   force =     0.00001993    0.00006079    0.00005901
     atom   85 type  1   force =     0.00001279    0.00009377    0.00001946
     atom   86 type  1   force =    -0.00001279   -0.00009377   -0.00001946
     atom   87 type  1   force =     0.00002955   -0.00000405    0.00007388
     atom   88 type  1   force =    -0.00002955    0.00000405   -0.00007388
     atom   89 type  1   force =     0.00007646   -0.00000564   -0.00002978
     atom   90 type  1   force =    -0.00007646    0.00000564    0.00002978
     atom   91 type  1   force =    -0.00000364   -0.00003942   -0.00002374
     atom   92 type  1   force =     0.00000364    0.00003942    0.00002374
     atom   93 type  1   force =    -0.00003466    0.00001535   -0.00003219
     atom   94 type  1   force =     0.00003466   -0.00001535    0.00003219
     atom   95 type  1   force =    -0.00004026   -0.00003150    0.00001987
     atom   96 type  1   force =     0.00004026    0.00003150   -0.00001987
     atom   97 type  1   force =     0.00001422   -0.00005193   -0.00000205
     atom   98 type  1   force =    -0.00001422    0.00005193    0.00000205
     atom   99 type  1   force =    -0.00000060    0.00001195   -0.00002923
     atom  100 type  1   force =     0.00000060   -0.00001195    0.00002923
     atom  101 type  1   force =     0.00000586    0.00001363   -0.00000212
     atom  102 type  1   force =    -0.00000586   -0.00001363    0.00000212
     atom  103 type  1   force =     0.00006470   -0.00002422    0.00005913
     atom  104 type  1   force =    -0.00006470    0.00002422   -0.00005913
     atom  105 type  1   force =     0.00008893    0.00004662   -0.00007054
     atom  106 type  1   force =    -0.00008893   -0.00004662    0.00007054
     atom  107 type  1   force =    -0.00001220    0.00011595    0.00007986
     atom  108 type  1   force =     0.00001220   -0.00011595   -0.00007986

     Total force =     0.000822     Total SCF correction =     0.000012


     Computing stress (Cartesian axis) and pressure


     negative rho (up, down):  5.101E-04 0.000E+00
          total   stress  (Ry/bohr**3)                   (kbar)     P=        0.01
   0.00000012   0.00000001   0.00000004            0.02        0.00        0.01
   0.00000001   0.00000008   0.00000001            0.00        0.01        0.00
   0.00000004   0.00000001   0.00000006            0.01        0.00        0.01

     Energy error            =      6.5E-07 Ry
     Gradient error          =      1.4E-04 Ry/Bohr
     Cell gradient error     =      1.7E-02 kbar

     number of scf cycles    =  50
     number of bfgs steps    =  49

     enthalpy           old  =   -4009.1722254417 Ry
     enthalpy           new  =   -4009.1722260947 Ry

     CASE: enthalpy          _new < enthalpy          _old

     new trust radius        =       0.0007363682 bohr

     The maximum number of steps has been reached.

     End of BFGS Geometry Optimization
     new unit-cell volume =  15295.28136 a.u.^3 (  2266.52685 Ang^3 )
     density =      1.19273 g/cm^3

CELL_PARAMETERS (alat= 27.59009591)
   0.997472947  -0.000036368  -0.000025559
   0.473142123   0.878116922  -0.000025374
   0.473142543   0.282505957   0.831433036

ATOMIC_POSITIONS (crystal)
Zr               0.8730185572        0.1188225181        0.1223492341
Zr               0.1269814428        0.8811764819        0.8776507659
Zr               0.1223495046        0.8730181941        0.1188222942
Zr               0.8776504954        0.1269818059        0.8811767058
Zr               0.1188224274        0.1223491588        0.8730181255
Zr               0.8811765726        0.8776508412        0.1269818745
O                0.9192941257        0.2615935283        0.0849696406
O                0.0807058743        0.7384064717        0.9150303594
O                0.0849696837        0.9192931766        0.2615939922
O                0.9150303163        0.0807068234        0.7384060078
O                0.2615939044        0.0849702898        0.9192928316
O                0.7384060956        0.9150297102        0.0807071684
O                0.7550089597        0.0535417216        0.9178478003
O                0.2449910403        0.9464582784        0.0821521997
O                0.9178472586        0.7550085015        0.0535433822
O                0.0821527414        0.2449914985        0.9464566178
O                0.0535426647        0.9178472416        0.7550087374
O                0.9464573353        0.0821527584        0.2449912626
O                0.2660945967        0.9227640561        0.7335688131
O                0.7339054033        0.0772359439        0.2664311869
O                0.7335685317        0.2660946567        0.9227643782
O                0.2664314683        0.7339053433        0.0772356218
O                0.9227644384        0.7335685558        0.2660945929
O                0.0772355616        0.2664314442        0.7339054071
O                0.0839814218        0.7267338839        0.2588728062
O                0.9160185782        0.2732661161        0.7411271938
O                0.2588726547        0.0839817650        0.7267342937
O                0.7411273453        0.9160182350        0.2732657063
O                0.7267342806        0.2588724867        0.0839816909
O                0.2732657194        0.7411275133        0.9160183091
O                0.8361968730        0.0445031807        0.0478145458
O                0.1638031270        0.9554968193        0.9521854542
O                0.0478142640        0.8361970387        0.0445033495
O                0.9521857360        0.1638029613        0.9554966505
O                0.0445031525        0.0478143816        0.8361970135
O                0.9554968475        0.9521856184        0.1638029865
C                0.6972025705        0.9966772478        0.3094086765
C                0.3027974295        0.0033227522        0.6905913235
C                0.3094085491        0.6972028123        0.9966773086
C                0.6905914509        0.3027971877        0.0033226914
C                0.9966762348        0.3094080449        0.6972032261
C                0.0033237652        0.6905919551        0.3027967739
C                0.0000896555        0.7043602979        0.9878577336
C                0.9999103445        0.2956397021        0.0121422664
C                0.9878582832        0.0000893712        0.7043600576
C                0.0121417168        0.9999106288        0.2956399424
C                0.7043605275        0.9878581323        0.0000891214
C                0.2956394725        0.0121418677        0.9999108786
C                0.9998040314        0.4015543271        0.0051920495
C                0.0001959686        0.5984456729        0.9948079505
C                0.0051936107        0.9998018790        0.4015544423
C                0.9948063893        0.0001981210        0.5984455577
C                0.4015544100        0.0051926091        0.9998034139
C                0.5984455900        0.9948073909        0.0001965861
C                0.4043233702        0.0019032617        0.5918440766
C                0.5956766298        0.9980967383        0.4081559234
C                0.5918436674        0.4043235381        0.0019044922
C                0.4081563326        0.5956764619        0.9980955078
C                0.0019041704        0.5918438175        0.4043237198
C                0.9980958296        0.4081561825        0.5956762802
C                0.9097107122        0.4627758039        0.0721584969
C                0.0902892878        0.5372241961        0.9278415031
C                0.0721571541        0.9097121573        0.4627759034
C                0.9278428459        0.0902878427        0.5372240966
C                0.4627763822        0.0721578707        0.9097110000
C                0.5372236178        0.9278421293        0.0902890000
C                0.5605575658        0.0669484789        0.9098274507
C                0.4394424342        0.9330515211        0.0901725493
C                0.9098280525        0.5605570362        0.0669489372
C                0.0901719475        0.4394429638        0.9330510628
C                0.0669497676        0.9098262070        0.5605573428
C                0.9330502324        0.0901737930        0.4394426572
C                0.4570502146        0.9134027945        0.5506318644
C                0.5429497854        0.0865972055        0.4493681356
C                0.5506320249        0.4570502991        0.9134018656
C                0.4493679751        0.5429497009        0.0865981344
C                0.9134020746        0.5506314937        0.4570507125
C                0.0865979254        0.4493685063        0.5429492875
C                0.0884929708        0.5405635738        0.4479488386
C                0.9115070292        0.4594364262        0.5520511614
C                0.4479489015        0.0884941418        0.5405633769
C                0.5520510985        0.9115058582        0.4594366231
C                0.5405637468        0.4479482984        0.0884930617
C                0.4594362532        0.5520517016        0.9115069383
H                0.5912810734        0.4223852926        0.8466582062
H                0.4087189266        0.5776147074        0.1533417938
H                0.8466579605        0.5912809027        0.4223852575
H                0.1533420395        0.4087190973        0.5776147425
H                0.4223850659        0.8466579642        0.5912810279
H                0.5776149341        0.1533420358        0.4087189721
H                0.5733989240        0.4062640809        0.1566788188
H                0.4266010760        0.5937359191        0.8433211812
H                0.1566787852        0.5733993515        0.4062641881
H                0.8433212148        0.4266006485        0.5937358119
H                0.4062645788        0.1566784786        0.5733989916
H                0.5937354212        0.8433215214        0.4266010084
H                0.1278375178        0.8401169444        0.4323673936
H                0.8721624822        0.1598830556        0.5676326064
H                0.4323676319        0.1278370767        0.8401170087
H                0.5676323681        0.8721629233        0.1598829913
H                0.8401177807        0.4323666378        0.1278375226
H                0.1598822193        0.5676333622        0.8721624774
H                0.1180054115        0.8401101902        0.6091789910
H                0.8819945885        0.1598898098        0.3908210090
H                0.6091797602        0.1180052954        0.8401096263
H                0.3908202398        0.8819947046        0.1598903737
H                0.8401099993        0.6091785365        0.1180063610
H                0.1598900007        0.3908214635        0.8819936390



     Writing config-only to output data dir ./pwscf.save/ :
     XML data file
     NEW-OLD atomic charge density approx. for the potential

     Check: negative core charge=   -0.000001

     negative rho (up, down):  5.104E-04 0.000E+00

     Writing all to output data dir ./pwscf.save/ :
     XML data file, charge density, pseudopotentials, collected wavefunctions

     init_run     :      3.37s CPU      3.90s WALL (       1 calls)
     electrons    :   3396.47s CPU   3469.57s WALL (      50 calls)
     update_pot   :      5.51s CPU      6.10s WALL (      50 calls)
     forces       :     66.84s CPU     68.73s WALL (      50 calls)
     stress       :    116.99s CPU    117.80s WALL (      50 calls)

     Called by init_run:
     wfcinit      :      1.91s CPU      1.98s WALL (       1 calls)
     potinit      :      0.21s CPU      0.26s WALL (       1 calls)
     hinit0       :      0.36s CPU      0.51s WALL (       1 calls)

     Called by electrons:
     c_bands      :   3042.51s CPU   3098.58s WALL (     599 calls)
     sum_band     :    240.99s CPU    247.88s WALL (     599 calls)
     v_of_rho     :     15.90s CPU     17.80s WALL (     604 calls)
     newd         :     62.18s CPU     64.40s WALL (     604 calls)
     PAW_pot      :     34.92s CPU     37.80s WALL (     654 calls)
     mix_rho      :      5.27s CPU      5.31s WALL (     599 calls)

     Called by c_bands:
     init_us_2    :      5.42s CPU      6.76s WALL (    1249 calls)
     regterg      :   3036.43s CPU   3090.73s WALL (     599 calls)

     Called by *egterg:
     rdiaghg      :    468.68s CPU    473.77s WALL (    5082 calls)
     h_psi        :   1347.23s CPU   1374.43s WALL (    5178 calls)
     s_psi        :    470.91s CPU    471.30s WALL (    5178 calls)
     g_psi        :      0.60s CPU      0.60s WALL (    4578 calls)

     Called by h_psi:
     h_psi:calbec :    511.45s CPU    529.93s WALL (    5178 calls)
     vloc_psi     :    357.45s CPU    365.59s WALL (    5178 calls)
     vloc_psi:tg_ :      1.21s CPU      1.23s WALL (    5178 calls)
     add_vuspsi   :    476.44s CPU    477.02s WALL (    5178 calls)

     General routines
     calbec       :    718.79s CPU    743.69s WALL (    6077 calls)
     fft          :     18.58s CPU     19.60s WALL (    7640 calls)
     ffts         :      1.96s CPU      1.98s WALL (    1203 calls)
     fftw         :    389.27s CPU    398.21s WALL (  578389 calls)
     interpolate  :      2.57s CPU      2.58s WALL (     604 calls)

     Parallel routines
     fft_scatt_xy :     16.48s CPU     16.77s WALL (  587232 calls)
     fft_scatt_yz :    338.91s CPU    347.71s WALL (  587232 calls)
     fft_scatt_tg :      1.48s CPU      1.51s WALL (  578389 calls)

     PWSCF        :      1h 0m CPU      1h 1m WALL


   This run was terminated on:  14:45:10   2Jun2025            

=------------------------------------------------------------------------------=
   JOB DONE.
=------------------------------------------------------------------------------=
