
                                 *****************
                                 * O   R   C   A *
                                 *****************

                                            #,                                       
                                            ###                                      
                                            ####                                     
                                            #####                                    
                                            ######                                   
                                           ########,                                 
                                     ,,################,,,,,                         
                               ,,#################################,,                 
                          ,,##########################################,,             
                       ,#########################################, ''#####,          
                    ,#############################################,,   '####,        
                  ,##################################################,,,,####,       
                ,###########''''           ''''###############################       
              ,#####''   ,,,,##########,,,,          '''####'''          '####       
            ,##' ,,,,###########################,,,                        '##       
           ' ,,###''''                  '''############,,,                           
         ,,##''                                '''############,,,,        ,,,,,,###''
      ,#''                                            '''#######################'''  
     '                                                          ''''####''''         
             ,#######,   #######,   ,#######,      ##                                
            ,#'     '#,  ##    ##  ,#'     '#,    #''#        ,####,    ,#,          
            ##       ##  ##   ,#'  ##            #'  '#       #'       ,# #          
            ##       ##  #######   ##           ,######,      #####,      #          
            '#,     ,#'  ##    ##  '#,     ,#' ,#      #,     #,   #      #          
             '#######'   ##     ##  '#######'  #'      '#     '####' #    #          



                #########################################################
                #                        -***-                          #
                #          Department of theory and spectroscopy        #
                #                                                       #
                #                      Frank Neese                      #
                #                                                       #
                #     Directorship, Architecture, Infrastructure        #
                #                    SHARK, DRIVERS                     #
                #        Core code/Algorithms in most modules           #
                #                                                       #
                #        Max Planck Institute fuer Kohlenforschung      #
                #                Kaiser Wilhelm Platz 1                 #
                #                 D-45470 Muelheim/Ruhr                 #
                #                      Germany                          #
                #                                                       #
                #                  All rights reserved                  #
                #                        -***-                          #
                #########################################################


                         Program Version 6.1.0  -  RELEASE   -
                                (GIT: $679e74b$)
                          ($2025-06-10 18:02:51 +0200$)


 With contributions from (in alphabetic order):
[Max-Planck-Institut fuer Kohlenforschung]                               
  Daniel Aravena         : Magnetic Suceptibility                        
  Michael Atanasov       : Ab Initio Ligand Field Theory (pilot matlab implementation)
  Alexander A. Auer      : GIAO ZORA, VPT2 properties, NMR spectrum      
  Ute Becker             : All parallelization in ORCA, NUMFREQ, NUMCALC 
  Giovanni Bistoni       : ED, misc. LED, open-shell LED, HFLD           
  Dmytro Bykov           : pre 5.0 version of the SCF Hessian            
  Marcos Casanova-Páez   : Triplet and SCS-CIS(D). UHF-(DLPNO)-IP/EA/STEOM-CCSD. UHF-CVS-IP/STEOM-CCSD   
  Vijay G. Chilkuri      : MRCI spin determinant printing, contributions to CSF-ICE 
  Pauline Colinet        : FMM embedding                                 
  Dipayan Datta          : RHF DLPNO-CCSD density                        
  Achintya Kumar Dutta   : EOM-CC, STEOM-CC                              
  Nicolas Foglia         : Exact transition moments, OPA infrastructure, MCD improvements    
  Dmitry Ganyushin       : Spin-Orbit,Spin-Spin,Magnetic field MRCI      
  Miquel Garcia-Rates    : C-PCM and meta-GGA Hessian, CCSD/C-PCM, Gaussian charge scheme 
  Tiago L. C. Gouveia    : GS-ROHF, GS-ROCIS                             
  Yang Guo               : DLPNO-NEVPT2, F12-NEVPT2, CIM, IAO-localization        
  Andreas Hansen         : Spin unrestricted coupled pair/coupled cluster methods 
  Ingolf Harden          : AUTO-CI MPn and infrastructure                
  Benjamin Helmich-Paris : MC-RPA, TRAH-(SCF,CASSCF), AVAS, COSX integrals, SCF dyn. polar., MC-PDFT, srDFT 
  Lee Huntington         : MR-EOM, pCC                                   
  Robert Izsak           : Overlap fitted RIJCOSX, COSX-SCS-MP3, EOM     
  Riya Kayal             : Wick's Theorem for AUTO-CI, AUTO-CI UHF-CCSDT 
  Emily Kempfer          : AUTO-CI RHF CISDT and CCSDT, approximate NEVPT4
  Christian Kollmar      : KDIIS, OOCD, Brueckner-CCSD(T), CCSD density, CASPT2, CASPT2-K, improved NEVPT2 
  Axel Koslowski         : Symmetry handling                             
  Simone Kossmann        : meta-GGA functionals, TD-DFT gradient, OOMP2, (MP2 Hessian; deprecated post 5.0) 
  Lucas Lang             : DCDCAS, Hyperfine gauge corrections, ICE-SOC+SSC
  Marvin Lechner         : AUTO-CI (C++ implementation), FIC-MRCC        
  Spencer Leger          : CASSCF response                               
  Dagmar Lenk            : GEPOL surface, SMD, ORCA-2-JSON               
  Dimitrios Liakos       : Extrapolation schemes; Compound Job, Property file
  Dimitrios Manganas     : Further ROCIS development; embedding schemes. LFT, Crystal Embedding 
  Dimitrios Pantazis     : SARC Basis sets                               
  Anastasios Papadopoulos: AUTO-CI, single reference methods and gradients 
  Taras Petrenko         : pre 6.0 DFT Hessian and TD-DFT gradient,  ECA, NRVS 
  Petra Pikulova         : Analytic Raman intensities                    
  Peter Pinski           : DLPNO-MP2, DLPNO-MP2 Gradient                 
  Shashank Vittal Rao    : ES-AILFT, MagRelax                            
  Christoph Reimann      : Effective Core Potentials                     
  Marius Retegan         : Local ZFS, SOC                                
  Christoph Riplinger    : Optimizer, TS searches, QM/MM, DLPNO-CCSD(T), (RO)-DLPNO pert. Triples 
  Michael Roemelt        : Original ROCIS implementation, recursive CI coupling coefficients
  Masaaki Saitow         : Open-shell DLPNO-CCSD energy and density      
  Barbara Sandhoefer     : DKH picture change effects                    
  Yorick L. A. Schmerwitz: GMF and freeze-and-release deltaSCF, NEB S-IDPP initial path                    
  Kantharuban Sivalingam : CASSCF convergence/infrastructure, NEVPT2, NEVPT3, NEVPT4(SD), FIC-MRCI and CEPA variants
  Bernardo de Souza      : ESD, SOC TD-DFT                               
  Georgi L. Stoychev     : AutoAux, RI-MP2 NMR, DLPNO-MP2 response, X2C  
  Van Anh Tran           : RI-MP2 g-tensors                              
  Willem Van den Heuvel  : Paramagnetic NMR                              
  Zikuan Wang            : NOTCH, Electric field optimization            
  Frank Wennmohs         : Technical directorship and infrastructure     
  Hang Xu                : AUTO-CI-Response properties                   
                                                                         
[FACCTs GmbH]                                                            
  Markus Bursch, Nicolas Foglia, Miquel Garcia-Rates, Ingolf Harden, Hagen Neugebauer, Anastasios Papadopoulos, 
  Christoph Riplinger, Bernardo de Souza, Georgi L. Stoychev                                                    
                                                                 
  APM, various basis sets, CI-OPT, improved COSX, DLPNO-Multilevel,           
  DOCKER, DRACO, updates on ESD, Fragmentator, GOAT, IRC, LR-CPCM, L-BFGS, MBIS, meta-GGA TD-DFT gradient, ML-optimized integration grids, 
  MM, NACMEs, nearIR, NEB, NEB-TS, NL-DFT gradient (VV10), 2- and 3-layer-ONIOM, interface openCOSMO-RS, QMMM,   
  Crystal-QMMM, RESP, rigid body optimization, SF, symmetry and pop. for TD-DFT, various functionals, SOLVATOR                                   
                                                                         
[Other institutions]                                                     
  V. Asgeirsson          : NEB                                           
  Christoph Bannwarth    : sTDA-DFT, sTD-DFT, PBEh-3c, B97-3c, D3        
  Giovanni Bistoni       : ETS/NOCV, ADLD/ADEX, COVALED                  
  Martin Brehm           : Molecular dynamics                            
  Ronald Cardenas        : ETS/NOCV                                      
  Martina Colucci        : COVALED                                       
  Sebastian Ehlert       : rSCAN, r2SCAN, r2SCAN-3c, D4, dhf basis sets  
  Marvin Friede          : D4 for Fr, Ra, Ac-Lr                          
  Lars Goerigk           : TD-DFT with DH, B97 family of functionals     
  Stefan Grimme          : VdW corrections, initial TS optimization, DFT functionals, gCP, sTDA/sTD-DF 
  Waldemar Hujo          : DFT-NL                                        
  H. Jonsson             : NEB                                           
  Holger Kruse           : gCP                                           
  Marcel Mueller         : wB97X-3c, vDZP basis set                      
  Hagen Neugebauer       : wr2SCAN, Native XTB                           
  Gianluca Regni         : ADLD/ADEX                                     
  Tobias Risthaus        : pre 6.0 range-separated hybrid DFT and stability analysis
  Lukas Wittmann         : regularized MP2, r2SCAN double-hybrids, wr2SCAN        
                                                                         
We gratefully acknowledge several colleagues who have allowed us to      
interface, adapt or use parts of their codes:                            
  Ed Valeev, F. Pavosevic, A. Kumar             : LibInt (2-el integral package), F12 methods 
  Garnet Chan, S. Sharma, J. Yang, R. Olivares  : DMRG                   
  Ulf Ekstrom                                   : XCFun DFT Library      
  Mihaly Kallay                                 : mrcc  (arbitrary order and MRCC methods)
  Frank Weinhold                                : gennbo (NPA and NBO analysis)           
  Simon Mueller                                 : openCOSMO-RS                            
  Christopher J. Cramer and Donald G. Truhlar   : smd solvation model                     
  S Lehtola, MJT Oliveira, MAL Marques          : LibXC Library                           
  Liviu Ungur et al                             : ANISO software                          


 Your calculation uses the libint2 library for the computation of 2-el integrals
 For citations please refer to: http://libint.valeyev.net

 Your ORCA version has been built with support for libXC version: 7.0.0
 For citations please refer to: https://libxc.gitlab.io

 This ORCA versions uses:
   CBLAS   interface :  Fast vector & matrix operations
   LAPACKE interface :  Fast linear algebra routines
   SCALAPACK package :  Parallel linear algebra routines
   Shared memory     :  Shared parallel matrices
   BLAS/LAPACK       :  OpenBLAS 0.3.29  USE64BITINT DYNAMIC_ARCH NO_AFFINITY Bulldozer SINGLE_THREADED
        Core in use  :  Bulldozer
   Copyright (c) 2011-2014, The OpenBLAS Project


  ***********************************
  * Starting time: Wed Aug 27 18:18:01 2025
  * Host name:     chromium07
  * Process ID:    586815
  * Working dir.:  /local/scratch/mehlhorn/62298
  ***********************************



***************************************
The coordinates will be read from file: start.xyz
***************************************


Your calculation utilizes the atom-pairwise dispersion correction
with the Becke-Johnson damping scheme (D3BJ)


Warning: RI is on but no J-basis has been assigned. Assigning Def2/J (nothing to worry about!)
================================================================================

----- Orbital basis set information -----
Your calculation utilizes the basis: def2-TZVP
   F. Weigend and R. Ahlrichs, Phys. Chem. Chem. Phys. 7, 3297 (2005).

----- AuxJ basis set information -----
Your calculation utilizes the auxiliary basis: def2/J
   H-Rn: F. Weigend, Phys. Chem. Chem. Phys. 8, 1057 (2006).
   Fr-Lr: K. Eichkorn, F. Weigend, O. Treutler, R. Ahlrichs; Theor. Chem. Acc. 97, 119 (1997).

================================================================================
                                        WARNINGS
                       Please study these warnings very carefully!
================================================================================


WARNING: Geometry Optimization
  ===> : Switching off AutoStart
         For restart on a previous wavefunction, please use MOREAD

================================================================================
                                       INPUT FILE
================================================================================
NAME = run.inp
|  1> # Geometry optimization for (AlH3)n cluster
|  2> 
|  3> %pal nprocs 24  end
|  4> 
|  5> %geom MaxIter 500 end
|  6> 
|  7> %cpcm
|  8> 	epsilon 1.95778548766667
|  9> end
| 10> 
| 11> ! PBE def2-TZVP
| 12> ! RKS	# closed shell for AlH3
| 13> ! D3    #  dispersion correction
| 14> ! Freq 	# Frequency analysis to check the stabiltity of the structures
| 15> 
| 16> ! NoPop # population analysis not necessary	
| 17> 
| 18> ! DEFGRID3
| 19> ! TightSCF
| 20> ! TightOpt
| 21> 
| 22> ! SmallPrint
| 23> 
| 24> 
| 25> * xyzFile 0 1 start.xyz # only maingroup elements H and Al so there should be no net spin
| 26> 
| 27>                          ****END OF INPUT****
================================================================================

                       *****************************
                       * Geometry Optimization Run *
                       *****************************

Geometry optimization settings:
Update method            Update   .... BFGS
Choice of coordinates    CoordSys .... (2022) Redundant Internals
Initial Hessian          InHess   .... Almloef's Model
Max. no of cycles        MaxIter  .... 500

Convergence Tolerances:
Energy Change            TolE     ....  1.0000e-06 Eh
Max. Gradient            TolMAXG  ....  1.0000e-04 Eh/bohr
RMS Gradient             TolRMSG  ....  3.0000e-05 Eh/bohr
Max. Displacement        TolMAXD  ....  1.0000e-03 bohr
RMS Displacement         TolRMSD  ....  6.0000e-04 bohr
Strict Convergence                .... False

------------------------------------------------------------------------------
                        ORCA OPTIMIZATION COORDINATE SETUP
------------------------------------------------------------------------------

The optimization will be done in redundant internal coordinates (2022)
Making redundant internal coordinates   ...  (2022 redundants) done
Evaluating the initial hessian          ...  (Almloef) done
Evaluating the coordinates              ...  done
Calculating the B-matrix                .... done
Calculating the G-matrix                .... done
The number of degrees of freedom        ....  224

    -----------------------------------------------------------------
                    Redundant Internal Coordinates


    -----------------------------------------------------------------
         Definition                    Initial Value    Approx d2E/dq
    -----------------------------------------------------------------
      1. B(Al  1,Al  0)                  2.9111         0.114832   
      2. B(H   2,Al  1)                  1.7286         0.241647   
      3. B(H   3,Al  1)                  1.5829         0.412693   
      4. B(H   4,Al  1)                  1.7096         0.259148   
      5. B(H   4,Al  0)                  1.7388         0.232707   
      6. B(H   5,Al  0)                  1.5889         0.403628   
      7. B(H   6,Al  0)                  1.6820         0.286763   
      8. B(H   7,Al  1)                  1.5987         0.389410   
      9. B(Al  8,H   2)                  1.7263         0.243706   
     10. B(Al  8,Al  1)                  2.9985         0.083296   
     11. B(H   9,Al  8)                  1.7152         0.253842   
     12. B(H  10,Al  8)                  1.5861         0.407916   
     13. B(H  11,Al  0)                  1.5950         0.394676   
     14. B(Al 12,H   6)                  1.7791         0.200722   
     15. B(Al 12,Al  0)                  3.3201         0.025556   
     16. B(Al 12,H   9)                  1.6988         0.269635   
     17. B(Al 12,Al  8)                  3.0604         0.066354   
     18. B(H  13,Al 12)                  1.7309         0.239582   
     19. B(H  14,Al 12)                  1.5762         0.422941   
     20. B(H  15,Al  8)                  1.5869         0.406642   
     21. B(Al 16,H  13)                  1.7596         0.215590   
     22. B(Al 16,Al 12)                  2.6524         0.297030   
     23. B(H  17,Al 16)                  1.5877         0.405526   
     24. B(H  18,Al 16)                  1.6971         0.271236   
     25. B(H  18,Al 12)                  1.8663         0.145711   
     26. B(H  19,Al 16)                  1.5893         0.403085   
     27. A(H   5,Al  0,H  11)          127.4081         0.383978   
     28. A(H   4,Al  0,H  11)          103.8145         0.349409   
     29. A(Al  1,Al  0,H  11)           79.1201         0.359720   
     30. A(H   4,Al  0,H   6)           99.3506         0.331247   
     31. A(H   6,Al  0,H  11)          109.9125         0.362016   
     32. A(Al  1,Al  0,H   5)          135.5209         0.361098   
     33. A(Al  1,Al  0,H   4)           32.1067         0.329210   
     34. A(H   5,Al  0,Al 12)          117.3697         0.282653   
     35. A(H   5,Al  0,H   6)          108.7645         0.363405   
     36. A(Al  1,Al  0,H   6)           88.8883         0.340839   
     37. A(Al  1,Al  0,Al 12)           72.5811         0.266727   
     38. A(H   4,Al  0,H   5)          103.5507         0.350734   
     39. A(H  11,Al  0,Al 12)          109.8360         0.281672   
     40. A(H   4,Al  0,Al 12)           83.0776         0.259958   
     41. A(H   6,Al  0,Al 12)           16.8879         0.268235   
     42. A(Al  0,Al  1,H   2)          117.7113         0.331268   
     43. A(Al  0,Al  1,H   7)           78.8668         0.358898   
     44. A(H   3,Al  1,H   4)          111.2129         0.358539   
     45. A(H   2,Al  1,H   3)          106.8262         0.354307   
     46. A(H   2,Al  1,H   7)          104.1811         0.350843   
     47. A(H   4,Al  1,H   7)          106.1276         0.355020   
     48. A(Al  0,Al  1,H   4)           32.7249         0.335133   
     49. A(H   3,Al  1,Al  8)          134.4656         0.343300   
     50. A(H   2,Al  1,H   4)           93.2986         0.327787   
     51. A(Al  0,Al  1,H   3)          118.4742         0.362469   
     52. A(H   4,Al  1,Al  8)           90.7275         0.317881   
     53. A(Al  0,Al  1,Al  8)          101.7196         0.321217   
     54. A(H   7,Al  1,Al  8)           76.4687         0.339980   
     55. A(H   2,Al  1,Al  8)           29.7613         0.314287   
     56. A(H   3,Al  1,H   7)          129.1019         0.384564   
     57. A(Al  1,H   2,Al  8)          120.4335         0.324490   
     58. A(Al  0,H   4,Al  1)          115.1683         0.325758   
     59. A(Al  0,H   6,Al 12)          147.1713         0.323274   
     60. A(H   9,Al  8,H  15)          109.3165         0.356385   
     61. A(H   2,Al  8,H  15)          109.5305         0.353930   
     62. A(Al  1,Al  8,H  15)           97.1925         0.342452   
     63. A(H   2,Al  8,H  10)          106.0194         0.354118   
     64. A(Al  1,Al  8,H  10)          130.2360         0.342631   
     65. A(H   2,Al  8,H   9)           91.7709         0.327129   
     66. A(Al  1,Al  8,H   9)           69.9203         0.316811   
     67. A(Al  1,Al  8,H   2)           29.8052         0.314720   
     68. A(H   9,Al  8,H  10)          105.2912         0.356574   
     69. A(H  10,Al  8,Al 12)          122.3569         0.329908   
     70. A(H   9,Al  8,Al 12)           26.1693         0.305384   
     71. A(H   2,Al  8,Al 12)          103.6931         0.303397   
     72. A(Al  1,Al  8,Al 12)           75.3364         0.294108   
     73. A(H  10,Al  8,H  15)          128.6497         0.386690   
     74. A(Al 12,Al  8,H  15)           83.3200         0.329738   
     75. A(Al  8,H   9,Al 12)          127.3888         0.332641   
     76. A(H   9,Al 12,H  14)          133.9661         0.362485   
     77. A(Al  8,Al 12,H  14)          111.9876         0.331888   
     78. A(H   6,Al 12,H  14)          101.3864         0.344812   
     79. A(Al  0,Al 12,H  14)          103.9995         0.284712   
     80. A(H   9,Al 12,H  13)          103.3393         0.329474   
     81. A(Al  8,Al 12,H  13)          120.9981         0.302570   
     82. A(H   6,Al 12,H  13)           83.7445         0.313934   
     83. A(Al  0,Al 12,H  13)           95.4230         0.261089   
     84. A(H  13,Al 12,H  14)          122.5072         0.355267   
     85. A(Al  8,Al 12,H   9)           26.4419         0.308360   
     86. A(H   6,Al 12,H   9)           86.4183         0.320032   
     87. A(Al  0,Al 12,H   9)           73.1493         0.265754   
     88. A(H   6,Al 12,Al  8)          107.0889         0.294185   
     89. A(Al  0,Al 12,Al  8)           91.7550         0.245979   
     90. A(Al 16,Al 12,H  18)           39.5119         0.356911   
     91. A(H  14,Al 12,H  18)           97.9477         0.326923   
     92. A(Al  0,Al 12,H   6)           15.9408         0.254332   
     93. A(H   9,Al 12,H  18)           84.7963         0.303876   
     94. A(Al  8,Al 12,H  18)           70.9763         0.279836   
     95. A(H   6,Al 12,H  18)          159.6153         0.289990   
     96. A(Al  0,Al 12,H  18)          156.0623         0.242770   
     97. A(H  14,Al 12,Al 16)          116.7256         0.429986   
     98. A(H  13,Al 12,Al 16)           40.9514         0.388827   
     99. A(H   9,Al 12,Al 16)           94.3433         0.396955   
    100. A(Al  8,Al 12,Al 16)           96.0644         0.362502   
    101. A(H   6,Al 12,Al 16)          123.3421         0.377055   
    102. A(Al  0,Al 12,Al 16)          131.5258         0.309380   
    103. A(H  13,Al 12,H  18)           80.4512         0.298204   
    104. A(Al 12,H  13,Al 16)           98.9040         0.317601   
    105. A(H  18,Al 16,H  19)          110.2151         0.359887   
    106. A(H  17,Al 16,H  19)          128.7626         0.385704   
    107. A(Al 12,Al 16,H  19)          114.0039         0.426295   
    108. A(H  17,Al 16,H  18)          111.1994         0.360258   
    109. A(H  13,Al 16,H  18)           84.5305         0.324113   
    110. A(Al 12,Al 16,H  18)           44.3987         0.397368   
    111. A(H  13,Al 16,H  17)          106.4964         0.346520   
    112. A(H  13,Al 16,H  19)          106.1921         0.346169   
    113. A(Al 12,Al 16,H  17)          116.5181         0.426757   
    114. A(Al 12,Al 16,H  13)           40.1446         0.381751   
    115. A(Al 12,H  18,Al 16)           96.0894         0.304164   
    116. D(H   3,Al  1,Al  0,Al 12)   -169.5284         0.010000   
    117. D(H   2,Al  1,Al  0,H   4)    -45.7991         0.010000   
    118. D(H   2,Al  1,Al  0,Al 12)     59.4108         0.010000   
    119. D(H   2,Al  1,Al  0,H   6)     63.8754         0.010000   
    120. D(H   3,Al  1,Al  0,H   5)     78.8679         0.010000   
    121. D(H   3,Al  1,Al  0,H   4)     85.2616         0.010000   
    122. D(H   2,Al  1,Al  0,H  11)    174.4003         0.010000   
    123. D(H   3,Al  1,Al  0,H   6)   -165.0638         0.010000   
    124. D(H   2,Al  1,Al  0,H   5)    -52.1929         0.010000   
    125. D(H   3,Al  1,Al  0,H  11)    -54.5390         0.010000   
    126. D(Al  8,H   2,Al  1,Al  0)    -62.8460         0.010000   
    127. D(Al  8,H   2,Al  1,H   7)     21.8619         0.010000   
    128. D(Al  8,H   2,Al  1,H   4)    -85.6888         0.010000   
    129. D(Al  8,H   2,Al  1,H   3)    160.9782         0.010000   
    130. D(Al  0,H   4,Al  1,Al  8)    110.8548         0.010000   
    131. D(Al  0,H   4,Al  1,H   7)     34.7361         0.010000   
    132. D(Al  1,H   4,Al  0,Al 12)    -68.0453         0.010000   
    133. D(Al  0,H   4,Al  1,H   2)    140.5261         0.010000   
    134. D(Al  1,H   4,Al  0,H   5)    175.3966         0.010000   
    135. D(Al  1,H   4,Al  0,H  11)     40.7476         0.010000   
    136. D(Al  0,H   4,Al  1,H   3)   -109.9989         0.010000   
    137. D(Al  1,H   4,Al  0,H   6)    -72.5771         0.010000   
    138. D(Al 12,H   6,Al  0,H  11)    -92.8188         0.010000   
    139. D(Al 12,H   6,Al  0,Al  1)    -14.8135         0.010000   
    140. D(Al 12,H   6,Al  0,H   5)    123.5271         0.010000   
    141. D(Al 12,H   6,Al  0,H   4)     15.6646         0.010000   
    142. D(H   2,Al  8,Al  1,H   3)    -25.9216         0.010000   
    143. D(H   2,Al  8,Al  1,Al  0)    126.4383         0.010000   
    144. D(H   2,Al  8,Al  1,H   7)   -158.2023         0.010000   
    145. D(H   2,Al  8,Al  1,H   4)     95.3777         0.010000   
    146. D(H   9,Al  8,Al  1,Al  0)     -8.3383         0.010000   
    147. D(H  15,Al  8,H   2,Al  1)    -69.3919         0.010000   
    148. D(Al 12,Al  8,H   2,Al  1)     18.2806         0.010000   
    149. D(H  10,Al  8,Al  1,Al  0)     85.0165         0.010000   
    150. D(H   9,Al  8,Al  1,H   7)     67.0211         0.010000   
    151. D(H   9,Al  8,Al  1,H   4)    -39.3989         0.010000   
    152. D(H  10,Al  8,H   2,Al  1)    148.3007         0.010000   
    153. D(H   9,Al  8,Al  1,H   3)   -160.6981         0.010000   
    154. D(H   9,Al  8,Al  1,H   2)   -134.7766         0.010000   
    155. D(H   9,Al  8,H   2,Al  1)     41.8382         0.010000   
    156. D(Al 12,H   9,Al  8,H  15)     -6.8768         0.010000   
    157. D(Al 12,H   9,Al  8,H   2)   -118.3002         0.010000   
    158. D(Al 12,H   9,Al  8,H  10)    134.5614         0.010000   
    159. D(Al 12,H   9,Al  8,Al  1)    -97.6290         0.010000   
    160. D(H  18,Al 12,H   6,Al  0)    -97.6035         0.010000   
    161. D(Al 16,Al 12,H   6,Al  0)   -125.8752         0.010000   
    162. D(H  14,Al 12,H   6,Al  0)    101.1536         0.010000   
    163. D(H   9,Al 12,H   6,Al  0)    -33.0293         0.010000   
    164. D(Al  8,Al 12,H   6,Al  0)    -16.3288         0.010000   
    165. D(H   9,Al 12,Al  0,H   5)     82.6363         0.010000   
    166. D(H   9,Al 12,Al  0,H   4)    -19.0718         0.010000   
    167. D(Al  8,Al 12,Al  0,H  11)   -102.2632         0.010000   
    168. D(H   9,Al 12,Al  0,Al  1)    -50.1794         0.010000   
    169. D(Al  8,Al 12,Al  0,H   6)    164.4034         0.010000   
    170. D(Al  8,Al 12,Al  0,H   5)    101.6790         0.010000   
    171. D(Al  8,Al 12,Al  0,H   4)     -0.0291         0.010000   
    172. D(Al  8,Al 12,Al  0,Al  1)    -31.1366         0.010000   
    173. D(H  13,Al 12,H   6,Al  0)   -136.8813         0.010000   
    174. D(H   6,Al 12,Al  0,H  11)     93.3334         0.010000   
    175. D(H   6,Al 12,Al  0,H   5)    -62.7243         0.010000   
    176. D(H   6,Al 12,Al  0,H   4)   -164.4324         0.010000   
    177. D(Al  0,Al 12,Al  8,Al  1)     29.6773         0.010000   
    178. D(H   6,Al 12,Al  0,Al  1)    164.4600         0.010000   
    179. D(H  18,Al 12,H   9,Al  8)    -56.5014         0.010000   
    180. D(H  14,Al 12,H   9,Al  8)     39.5292         0.010000   
    181. D(H  13,Al 12,H   9,Al  8)   -135.3860         0.010000   
    182. D(H   6,Al 12,H   9,Al  8)    141.9128         0.010000   
    183. D(H   9,Al 12,Al  8,H   2)     64.9312         0.010000   
    184. D(H   9,Al 12,Al  8,Al  1)     74.2055         0.010000   
    185. D(H   6,Al 12,Al  8,H  15)    133.3699         0.010000   
    186. D(H   6,Al 12,Al  8,H  10)    -94.5470         0.010000   
    187. D(H   6,Al 12,Al  8,H   9)    -40.0976         0.010000   
    188. D(H   6,Al 12,Al  8,H   2)     24.8337         0.010000   
    189. D(Al  0,Al 12,H   9,Al  8)    132.9139         0.010000   
    190. D(H   6,Al 12,Al  8,Al  1)     34.1079         0.010000   
    191. D(Al  0,Al 12,Al  8,H  15)    128.9393         0.010000   
    192. D(Al  0,Al 12,Al  8,H  10)    -98.9777         0.010000   
    193. D(Al 16,Al 12,H   9,Al  8)    -94.8885         0.010000   
    194. D(Al  0,Al 12,Al  8,H   9)    -44.5282         0.010000   
    195. D(Al  0,Al 12,Al  8,H   2)     20.4030         0.010000   
    196. D(Al 16,H  13,Al 12,H  18)     -1.1624         0.010000   
    197. D(Al 16,H  13,Al 12,H  14)    -94.5486         0.010000   
    198. D(Al 16,H  13,Al 12,H   9)     81.1132         0.010000   
    199. D(Al 16,H  13,Al 12,Al  8)     59.7151         0.010000   
    200. D(Al 16,H  13,Al 12,H   6)    165.9162         0.010000   
    201. D(Al 16,H  13,Al 12,Al  0)    155.0470         0.010000   
    202. D(H  19,Al 16,H  13,Al 12)   -108.2247         0.010000   
    203. D(H  18,Al 16,H  13,Al 12)      1.2664         0.010000   
    204. D(H  17,Al 16,H  13,Al 12)    111.7847         0.010000   
    205. D(H  17,Al 16,Al 12,H  13)    -84.2954         0.010000   
    206. D(H  17,Al 16,Al 12,H   9)    170.3076         0.010000   
    207. D(H  17,Al 16,Al 12,Al  8)    143.8095         0.010000   
    208. D(H  17,Al 16,Al 12,H   6)   -101.1265         0.010000   
    209. D(H  17,Al 16,Al 12,Al  0)   -118.4193         0.010000   
    210. D(H  13,Al 16,Al 12,H  18)    178.1981         0.010000   
    211. D(H  13,Al 16,Al 12,H  14)    109.7429         0.010000   
    212. D(H  13,Al 16,Al 12,H   9)   -105.3971         0.010000   
    213. D(H  13,Al 16,Al 12,Al  8)   -131.8951         0.010000   
    214. D(H  13,Al 16,Al 12,H   6)    -16.8311         0.010000   
    215. D(H  13,Al 16,Al 12,Al  0)    -34.1239         0.010000   
    216. D(Al 12,H  18,Al 16,H  19)    104.0969         0.010000   
    217. D(Al 12,H  18,Al 16,H  17)   -106.7610         0.010000   
    218. D(Al 12,H  18,Al 16,H  13)     -1.1669         0.010000   
    219. D(Al 16,H  18,Al 12,H  14)    122.9840         0.010000   
    220. D(Al 16,H  18,Al 12,H  13)      1.1975         0.010000   
    221. D(Al 16,H  18,Al 12,H   9)   -103.2946         0.010000   
    222. D(Al 16,H  18,Al 12,Al  8)   -126.4221         0.010000   
    223. D(Al 16,H  18,Al 12,H   6)    -38.4567         0.010000   
    224. D(Al 16,H  18,Al 12,Al  0)    -80.5965         0.010000   
    -----------------------------------------------------------------

Number of atoms                         .... 20
Number of degrees of freedom            .... 224


         *************************************************************
         *                GEOMETRY OPTIMIZATION CYCLE   1            *
         *************************************************************
---------------------------------
CARTESIAN COORDINATES (ANGSTROEM)
---------------------------------
  Al    -0.533703    1.012165    2.872789
  Al     0.115813   -0.473201    0.454857
  H     -0.462837   -2.097210    0.329290
  H     -0.143936    0.215410   -0.946532
  H     -1.080482   -0.030243    1.592941
  H     -1.863157    1.341655    3.678215
  H      0.374447   -0.093682    3.756789
  H      1.481527   -0.606361    1.275182
  Al     0.065712   -3.302633    1.446259
  H     -0.065927   -2.214099    2.765206
  H     -1.149052   -4.308919    1.611566
  H      0.433944    2.044283    2.136206
  Al     1.179101   -1.680062    3.790131
  H      0.474277   -1.792909    5.367020
  H      2.684026   -1.270498    3.562291
  H      1.596553   -3.630994    1.187418
  Al     0.710132   -3.513849    5.648246
  H      1.785766   -3.637643    6.809432
  H      1.453340   -3.495903    4.122595
  H     -0.729334   -4.180326    5.550089

----------------------------
CARTESIAN COORDINATES (A.U.)
----------------------------
  NO LB      ZA    FRAG     MASS         X           Y           Z
   0 Al   13.0000    0    26.982   -1.008553    1.912715    5.428785
   1 Al   13.0000    0    26.982    0.218855   -0.894219    0.859555
   2 H     1.0000    0     1.008   -0.874635   -3.963152    0.622268
   3 H     1.0000    0     1.008   -0.271999    0.407066   -1.788687
   4 H     1.0000    0     1.008   -2.041816   -0.057151    3.010223
   5 H     1.0000    0     1.008   -3.520857    2.535360    6.950818
   6 H     1.0000    0     1.008    0.707601   -0.177033    7.099301
   7 H     1.0000    0     1.008    2.799681   -1.145857    2.409744
   8 Al   13.0000    0    26.982    0.124178   -6.241072    2.733034
   9 H     1.0000    0     1.008   -0.124584   -4.184042    5.225483
  10 H     1.0000    0     1.008   -2.171393   -8.142677    3.045419
  11 H     1.0000    0     1.008    0.820035    3.863134    4.036845
  12 Al   13.0000    0    26.982    2.228179   -3.174857    7.162310
  13 H     1.0000    0     1.008    0.896253   -3.388106   10.142197
  14 H     1.0000    0     1.008    5.072075   -2.400894    6.731755
  15 H     1.0000    0     1.008    3.017047   -6.861585    2.243895
  16 Al   13.0000    0    26.982    1.341955   -6.640212   10.673638
  17 H     1.0000    0     1.008    3.374609   -6.874149   12.867961
  18 H     1.0000    0     1.008    2.746414   -6.606299    7.790576
  19 H     1.0000    0     1.008   -1.378241   -7.899672   10.488148

--------------------------------
INTERNAL COORDINATES (ANGSTROEM)
--------------------------------
 Al     0   0   0     0.000000000000     0.00000000     0.00000000
 Al     1   0   0     2.911112848969     0.00000000     0.00000000
 H      2   1   0     1.728585970871   117.71134526     0.00000000
 H      2   1   3     1.582891945895   118.47422087   131.06078767
 H      2   1   3     1.709552789922    32.72490972    45.79914032
 H      1   2   3     1.588937357889   135.52094374   307.80710981
 H      1   2   3     1.681989592186    88.88834771    63.87542561
 H      2   1   3     1.598699074615    78.86679372   259.70785165
 Al     3   2   1     1.726276684376   120.43351224   297.15402537
 H      9   3   2     1.715183801299    91.77091682    41.83821252
 H      9   3   2     1.586061085848   106.01939342   148.30072695
 H      1   2   3     1.595042597579    79.12008420   174.40025156
 Al    10   9   3     1.698753514411   127.38883681   241.69975396
 H     13  10   9     1.730921604203   103.33925796   224.61402800
 H     13  10   9     1.576214712620   133.96611345    39.52915488
 H      9   3   2     1.586912607965   109.53047284   290.60806145
 Al    14  13  10     1.759645337352    98.90400360    81.11316355
 H     17  14  13     1.587660638415   106.49642742   111.78470801
 H     17  14  13     1.697142077055    84.53050224     1.26636283
 H     17  14  13     1.589304003135   106.19206710   251.77530852

---------------------------
INTERNAL COORDINATES (A.U.)
---------------------------
 Al     0   0   0     0.000000000000     0.00000000     0.00000000
 Al     1   0   0     5.501206029490     0.00000000     0.00000000
 H      2   1   0     3.266554083885   117.71134526     0.00000000
 H      2   1   3     2.991232277331   118.47422087   131.06078767
 H      2   1   3     3.230586584433    32.72490972    45.79914032
 H      1   2   3     3.002656450366   135.52094374   307.80710981
 H      1   2   3     3.178499689338    88.88834771    63.87542561
 H      2   1   3     3.021103421576    78.86679372   259.70785165
 Al     3   2   1     3.262190164843   120.43351224   297.15402537
 H      9   3   2     3.241227653793    91.77091682    41.83821252
 H      9   3   2     2.997221083923   106.01939342   148.30072695
 H      1   2   3     3.014193681363    79.12008420   174.40025156
 Al    10   9   3     3.210178911274   127.38883681   241.69975396
 H     13  10   9     3.270967791232   103.33925796   224.61402800
 H     13  10   9     2.978614135109   133.96611345    39.52915488
 H      9   3   2     2.998830227521   109.53047284   290.60806145
 Al    14  13  10     3.325247780427    98.90400360    81.11316355
 H     17  14  13     3.000243800212   106.49642742   111.78470801
 H     17  14  13     3.207133735989    84.53050224     1.26636283
 H     17  14  13     3.003349309471   106.19206710   251.77530852

---------------------
BASIS SET INFORMATION
---------------------
There are 2 groups of distinct atoms

 Group   1 Type Al  : 14s9p3d1f contracted to 5s5p2d1f pattern {73211/51111/21/1}
 Group   2 Type H   : 5s1p contracted to 3s1p pattern {311/1}

Atom   0Al   basis set group =>   1
Atom   1Al   basis set group =>   1
Atom   2H    basis set group =>   2
Atom   3H    basis set group =>   2
Atom   4H    basis set group =>   2
Atom   5H    basis set group =>   2
Atom   6H    basis set group =>   2
Atom   7H    basis set group =>   2
Atom   8Al   basis set group =>   1
Atom   9H    basis set group =>   2
Atom  10H    basis set group =>   2
Atom  11H    basis set group =>   2
Atom  12Al   basis set group =>   1
Atom  13H    basis set group =>   2
Atom  14H    basis set group =>   2
Atom  15H    basis set group =>   2
Atom  16Al   basis set group =>   1
Atom  17H    basis set group =>   2
Atom  18H    basis set group =>   2
Atom  19H    basis set group =>   2
---------------------------------
AUXILIARY/J BASIS SET INFORMATION
---------------------------------
There are 2 groups of distinct atoms

 Group   1 Type Al  : 14s5p5d2f1g contracted to 8s4p3d1f1g pattern {71111111/2111/311/2/1}
 Group   2 Type H   : 5s2p1d contracted to 3s1p1d pattern {311/2/1}

Atom   0Al   basis set group =>   1
Atom   1Al   basis set group =>   1
Atom   2H    basis set group =>   2
Atom   3H    basis set group =>   2
Atom   4H    basis set group =>   2
Atom   5H    basis set group =>   2
Atom   6H    basis set group =>   2
Atom   7H    basis set group =>   2
Atom   8Al   basis set group =>   1
Atom   9H    basis set group =>   2
Atom  10H    basis set group =>   2
Atom  11H    basis set group =>   2
Atom  12Al   basis set group =>   1
Atom  13H    basis set group =>   2
Atom  14H    basis set group =>   2
Atom  15H    basis set group =>   2
Atom  16Al   basis set group =>   1
Atom  17H    basis set group =>   2
Atom  18H    basis set group =>   2
Atom  19H    basis set group =>   2


           ************************************************************
           *        Program running with 24 parallel MPI-processes    *
           *              working on a common directory               *
           ************************************************************
------------------------------------------------------------------------------
                             ORCA STARTUP CALCULATIONS
                           -- RI-GTO INTEGRALS CHOSEN --
------------------------------------------------------------------------------
------------------------------------------------------------------------------
                   ___                                                        
                  /   \      - P O W E R E D   B Y -                         
                 /     \                                                     
                 |  |  |   _    _      __       _____    __    __             
                 |  |  |  | |  | |    /  \     |  _  \  |  |  /  |          
                  \  \/   | |  | |   /    \    | | | |  |  | /  /          
                 / \  \   | |__| |  /  /\  \   | |_| |  |  |/  /          
                |  |  |   |  __  | /  /__\  \  |    /   |      \           
                |  |  |   | |  | | |   __   |  |    \   |  |\   \          
                \     /   | |  | | |  |  |  |  | |\  \  |  | \   \       
                 \___/    |_|  |_| |__|  |__|  |_| \__\ |__|  \__/        
                                                                              
                      - O R C A' S   B I G   F R I E N D -                    
                                      &                                       
                       - I N T E G R A L  F E E D E R -                       
                                                                              
 v1 FN, 2020, v2 2021, v3 2022-2024                                           
------------------------------------------------------------------------------


----------------------
SHARK INTEGRAL PACKAGE
----------------------

Number of atoms                             ...     20
Number of basis functions                   ...    275
Number of shells                            ...    125
Maximum angular momentum                    ...      3
Integral batch strategy                     ... SHARK/LIBINT Hybrid
RI-J (if used) integral strategy            ... SPLIT-RIJ (Revised 2003 algorithm where possible)
Printlevel                                  ...      1
Contraction scheme used                     ... SEGMENTED contraction
Prescreening option                         ... SCHWARTZ
   Thresh                                   ... 2.500e-11
   Tcut                                     ... 2.500e-12
   Tpresel                                  ... 2.500e-12 
Coulomb Range Separation                    ... NOT USED
Exchange Range Separation                   ... NOT USED
Multipole approximations                    ... NOT USED
Finite Nucleus Model                        ... NOT USED
CABS basis                                  ... NOT available
Auxiliary Coulomb fitting basis             ... AVAILABLE
   # of basis functions in Aux-J            ...    420
   # of shells in Aux-J                     ...    160
   Maximum angular momentum in Aux-J        ...      4
Auxiliary J/K fitting basis                 ... NOT available
Auxiliary Correlation fitting basis         ... NOT available
Auxiliary 'external' fitting basis          ... NOT available

Checking pre-screening integrals            ... done (  0.0 sec) Dimension = 125
   => SHARK Basis and OBASIS are compatible. Storing Pre-screening
Shell pair information
Shell pair cut-off parameter TPreSel        ...   2.5e-12
Total number of shell pairs                 ...      7875
Shell pairs after pre-screening             ...      6699
Total number of primitive shell pairs       ...     25650
Primitive shell pairs kept                  ...     15443
          la=0 lb=0:   2109 shell pairs
          la=1 lb=0:   2235 shell pairs
          la=1 lb=1:    621 shell pairs
          la=2 lb=0:    681 shell pairs
          la=2 lb=1:    389 shell pairs
          la=2 lb=2:     55 shell pairs
          la=3 lb=0:    346 shell pairs
          la=3 lb=1:    198 shell pairs
          la=3 lb=2:     50 shell pairs
          la=3 lb=3:     15 shell pairs

Checking whether 4 symmetric matrices of dimension 275 fit in memory
:Max Core in MB      =   4096.00
 MB in use           =     11.69
 MB left             =   4084.31
 MB needed           =      1.16
 Data fit in memory  = YES
Calculating RI/J V-Matrix + Cholesky decomp.... done (  0.1 sec)
Calculating Nuclear repulsion               ... done (  0.0 sec) ENN=    435.971082266563 Eh

Diagonalization of the overlap matrix:
Smallest eigenvalue                        ... 8.166e-04
Time for diagonalization                   ...    0.068 sec
Threshold for overlap eigenvalues          ... 1.000e-07
Number of eigenvalues below threshold      ... 0
Time for construction of square roots      ...    0.013 sec
Total time needed                          ...    0.085 sec

-------------------
DFT GRID GENERATION
-------------------

General Integration Accuracy     IntAcc      ... 4.959
Radial Grid Type                 RadialGrid  ... OptM3 with GC (2021)
Angular Grid (max. ang.)         AngularGrid ... 6 (Lebedev-590)
Angular grid pruning method      GridPruning ... 4 (adaptive)
Weight generation scheme         WeightScheme... mBecke (2022)
Basis function cutoff            BFCut       ... 1.0000e-11
Integration weight cutoff        WCut        ... 1.0000e-14
Partially contracted basis set               ... off
Rotationally invariant grid construction     ... off
Angular grids for H and He will be reduced by one unit

Total number of grid points                  ...   210718
Total number of batches                      ...     3302
Average number of points per batch           ...       63
Average number of grid points per atom       ...    10536
Grids setup in   5.8 sec
Initializing property integral containers    ... done (  0.0 sec)

SHARK setup successfully completed in   6.7 seconds

Maximum memory used throughout the entire STARTUP-calculation: 45.6 MB


           ************************************************************
           *        Program running with 24 parallel MPI-processes    *
           *              working on a common directory               *
           ************************************************************
-------------------------------------------------------------------------------
                                 ORCA GUESS
                   Start orbitals & Density for SCF / CASSCF
-------------------------------------------------------------------------------

------------
SCF SETTINGS
------------
Hamiltonian:
 Density Functional     Method          .... DFT(GTOs)
 Exchange Functional    Exchange        .... PBE
   PBE kappa parameter   XKappa         ....  0.804000
   PBE mue parameter    XMuePBE         ....  0.219520
 Correlation Functional Correlation     .... PBE
   PBE beta parameter  CBetaPBE         ....  0.066725
 LDA part of GGA corr.  LDAOpt          .... PW91-LDA
 Gradients option       PostSCFGGA      .... off
   NL short-range parameter             ....  6.400000
 RI-approximation to the Coulomb term is turned on
   Number of AuxJ basis functions       .... 420


General Settings:
 Integral files         IntName         .... run
 Hartree-Fock type      HFTyp           .... RHF
 Total Charge           Charge          ....    0
 Multiplicity           Mult            ....    1
 Number of Electrons    NEL             ....   80
 Basis Dimension        Dim             ....  275
 Nuclear Repulsion      ENuc            ....    435.9710822666 Eh

Convergence Acceleration:
 AO-DIIS                CNVDIIS         .... on
   Start iteration      DIISMaxIt       ....    12
   Startup error        DIISStart       ....  0.200000
   # of expansion vecs  DIISMaxEq       ....     5
   Bias factor          DIISBfac        ....   1.050
   Max. coefficient     DIISMaxC        ....  10.000
 MO-DIIS                CNVKDIIS        .... off
 Trust-Rad. Augm. Hess. CNVTRAH         .... auto
   Auto Start mean grad. ratio tolernc. ....  1.125000
   Auto Start start iteration           ....    50
   Auto Start num. interpolation iter.  ....    10
   Max. Number of Micro iterations      ....    24
   Max. Number of Macro iterations      .... Maxiter - #DIIS iter
   Number of Davidson start vectors     ....     2
   Converg. threshold    (grad. norm)   ....   1.000e-05
   Grad. Scal. Fac. for Micro threshold ....   0.100
   Minimum threshold for Micro iter.    ....   1.000e-02
   NR start threshold (gradient norm)   ....   1.000e-04
   Initial trust radius                 ....   0.400
   Minimum AH scaling param. (alpha)    ....   1.000
   Maximum AH scaling param. (alpha)    .... 1000.000
   Quad. conv. algorithm                .... NR
   White noise on init. David. guess    .... on
   Maximum white noise                  ....   0.010
   Pseudo random numbers                .... off
   Inactive MOs                         .... canonical
   Orbital update algorithm             .... Taylor
   Preconditioner                       .... Diag
   Full preconditioner red. dimension   ....   250
 SOSCF                 CNVSOSCF           .... on
   Start iteration     SOSCFMaxIt         ....   150
   Startup grad/error  SOSCFStart         ....  0.003300
   Hessian update      SOSCFHessUp        .... L-BFGS
   Autom. constraints  SOSCFAutoConstrain .... off
 Level Shifting         CNVShift        .... on
   Level shift para.    LevelShift      ....    0.2500
   Turn off err/grad.   ShiftErr        ....    0.0010
 Zerner damping         CNVZerner       .... off
 Static damping         CNVDamp         .... on
   Fraction old density DampFac         ....    0.7000
   Max. Damping (<1)    DampMax         ....    0.9800
   Min. Damping (>=0)   DampMin         ....    0.0000
   Turn off err/grad.   DampErr         ....    0.1000

SCF Procedure:
 Maximum # iterations   MaxIter         ....   125
 SCF integral mode      SCFMode         .... Direct
   Integral package                     .... SHARK and LIBINT hybrid scheme
 Reset frequency        DirectResetFreq ....    20
 Integral Threshold     Thresh          ....  2.500e-11 Eh
 Primitive CutOff       TCut            ....  2.500e-12 Eh

Convergence Tolerance:
 Convergence Check Mode ConvCheckMode   .... Total+1el-Energy
 Convergence forced     ConvForced      .... 0
 Energy Change          TolE            ....  1.000e-08 Eh
 1-El. energy change                    ....  1.000e-05 Eh
 Orbital Gradient       TolG            ....  1.000e-05
 Orbital Rotation angle TolX            ....  1.000e-05
 DIIS Error             TolErr          ....  5.000e-07

------------------------------
INITIAL GUESS: MODEL POTENTIAL
------------------------------
Loading Hartree-Fock densities                     ... done
Calculating cut-offs                               ... done
Initializing the effective Hamiltonian             ... done
Setting up the integral package (SHARK)            ... done
Starting the Coulomb interaction                   ... done (   0.1 sec)
Making the grid                                    ... done (   0.2 sec)
Mapping shells                                     ... done
Starting the XC term evaluation                    ... done (   0.1 sec)
  promolecular density results
     # of electrons  =     79.996260740
     EX              =    -94.541885082
     EC              =     -2.778685433
     EX+EC           =    -97.320570514
Transforming the Hamiltonian                       ... done (   0.0 sec)
Diagonalizing the Hamiltonian                      ... done (   0.0 sec)
Back transforming the eigenvectors                 ... done (   0.0 sec)
Now organizing SCF variables                       ... done
                      ------------------
                      INITIAL GUESS DONE (   0.4 sec)
                      ------------------
             **** ENERGY FILE WAS UPDATED (run.en.tmp) ****
Finished Guess after   1.1 sec
Maximum memory used throughout the entire GUESS-calculation: 16.4 MB


           ************************************************************
           *        Program running with 24 parallel MPI-processes    *
           *              working on a common directory               *
           ************************************************************

-------------------------------------------------------------------------------------------
                                      ORCA LEAN-SCF
                              memory conserving SCF solver
-------------------------------------------------------------------------------------------

--------------------
CPCM SOLVATION MODEL
--------------------
CPCM parameters:
  Epsilon                                         ...       1.9578
  Refrac                                          ...       1.0000
  Rsolv                                           ...       1.3000
  Surface type                                    ... GAUSSIAN VDW
  Discretization scheme                           ... Constant charge density
    Threshold for H atoms                         ...       5.0000 (charges/Ang^2)
    Threshold for non-H atoms                     ...       5.0000 (charges/Ang^2)
  Epsilon function type                           ...         CPCM
Solvent:                                          ... CUSTOM
Radii:
  Scheme                                          ... Element-dependent radii
  Radius for Al used is    4.1725 Bohr (=   2.2080 Ang.)
  Radius for H  used is    2.4944 Bohr (=   1.3200 Ang.)
Calculating surface                               ...        done! (  0.0s)
Cavity surface points                             ...         1735
Cavity Volume                                     ...    1474.7856
Cavity Surface-area                               ...     828.0478
Calculating surface distance matrix               ...        done! (  0.1s)
Performing Cholesky decomposition & store         ...        done! (  0.2s)
Overall time for CPCM initialization              ...                 0.3s

----------------------------------------D-I-I-S--------------------------------------------
Iteration    Energy (Eh)           Delta-E    RMSDP     MaxDP     DIISErr   Damp  Time(sec)
-------------------------------------------------------------------------------------------
               ***  Starting incremental Fock matrix formation  ***
    1    -1220.3737618872607982     0.00e+00  2.81e-03  1.89e-02  8.34e-02  0.700   1.1
    2    -1220.3927806770072948    -1.90e-02  2.58e-03  1.65e-02  5.71e-02  0.700   1.0
                               ***Turning on AO-DIIS***
    3    -1220.4051729108007294    -1.24e-02  1.56e-03  9.19e-03  3.46e-02  0.700   0.9
    4    -1220.4126590272298927    -7.49e-03  3.38e-03  1.87e-02  2.27e-02  0.000   0.9
                              *** Initializing SOSCF ***
---------------------------------------S-O-S-C-F--------------------------------------
Iteration    Energy (Eh)           Delta-E    RMSDP     MaxDP     MaxGrad    Time(sec)
--------------------------------------------------------------------------------------
    5    -1220.4276991119309059    -1.50e-02  2.71e-04  2.35e-03  1.56e-03     1.0
               *** Restarting incremental Fock matrix formation ***
    6    -1220.4277334738783338    -3.44e-05  1.66e-04  1.58e-03  2.41e-04     1.0
    7    -1220.4277366903172606    -3.22e-06  5.24e-05  8.62e-04  1.80e-04     0.8
    8    -1220.4277379513523556    -1.26e-06  2.32e-05  2.22e-04  2.57e-05     0.8
    9    -1220.4277380068888306    -5.55e-08  8.27e-06  6.71e-05  1.47e-05     0.8
   10    -1220.4277380523069496    -4.54e-08  2.48e-06  3.09e-05  3.78e-06     0.8
   11    -1220.4277380556161461    -3.31e-09  1.27e-06  1.44e-05  2.05e-06     0.8
                 **** Energy Check signals convergence ****

               *****************************************************
               *                     SUCCESS                       *
               *           SCF CONVERGED AFTER  11 CYCLES          *
               *****************************************************

             **** ENERGY FILE WAS UPDATED (run.en.tmp) ****

----------------
TOTAL SCF ENERGY
----------------

Total Energy       :      -1220.42773805249840 Eh          -33209.52709 eV

Components:
Nuclear Repulsion  :        435.97108226656343 Eh           11863.37627 eV
Electronic Energy  :      -1656.39322934953816 Eh          -45072.75122 eV
One Electron Energy:      -2563.00603161772642 Eh          -69742.93978 eV
Two Electron Energy:        906.61280226818837 Eh           24670.18856 eV
CPCM Dielectric    :         -0.00559096952377 Eh              -0.15214 eV

Virial components:
Potential Energy   :      -2438.04581436582248 Eh          -66342.59940 eV
Kinetic Energy     :       1217.61807631332408 Eh           33133.07231 eV
Virial Ratio       :          2.00230750659327

DFT components:
N(Alpha)           :       40.000000938269 electrons
N(Beta)            :       40.000000938269 electrons
N(Total)           :       80.000001876538 electrons
E(X)               :      -95.283319952300 Eh       
E(C)               :       -2.739512983874 Eh       
E(XC)              :      -98.022832936174 Eh       

CPCM Solvation Model Properties:
Surface-charge          :         -0.07524538937037
Corrected charge        :         -0.00000000000000
Outlying charge corr.   :          0.00017949948798 Eh               0.00488 eV
Free-energy (cav+disp)  :  This term is not implemented in the current solvation scheme

---------------
SCF CONVERGENCE
---------------

  Last Energy change         ...    3.3092e-09  Tolerance :   1.0000e-08
  Last MAX-Density change    ...    1.4412e-05  Tolerance :   1.0000e-07
  Last RMS-Density change    ...    1.2692e-06  Tolerance :   5.0000e-09
  Last DIIS Error            ...    1.5583e-03  Tolerance :   5.0000e-07
  Last Orbital Gradient      ...    2.0486e-06  Tolerance :   1.0000e-05
  Last Orbital Rotation      ...    3.0718e-06  Tolerance :   1.0000e-05


----------------
ORBITAL ENERGIES
----------------

  NO   OCC          E(Eh)            E(eV) 
   0   2.0000     -55.399796     -1507.5051 
   1   2.0000     -55.380578     -1506.9821 
   2   2.0000     -55.380556     -1506.9815 
   3   2.0000     -55.372853     -1506.7719 
   4   2.0000     -55.363862     -1506.5273 
   5   2.0000      -3.956580      -107.6640 
   6   2.0000      -3.940907      -107.2375 
   7   2.0000      -3.940714      -107.2323 
   8   2.0000      -3.933244      -107.0290 
   9   2.0000      -3.925246      -106.8114 
  10   2.0000      -2.560627       -69.6782 
  11   2.0000      -2.559603       -69.6503 
  12   2.0000      -2.555175       -69.5298 
  13   2.0000      -2.546096       -69.2828 
  14   2.0000      -2.545720       -69.2726 
  15   2.0000      -2.543774       -69.2196 
  16   2.0000      -2.543403       -69.2095 
  17   2.0000      -2.538622       -69.0794 
  18   2.0000      -2.538258       -69.0695 
  19   2.0000      -2.538040       -69.0636 
  20   2.0000      -2.535859       -69.0042 
  21   2.0000      -2.531003       -68.8721 
  22   2.0000      -2.530869       -68.8684 
  23   2.0000      -2.527226       -68.7693 
  24   2.0000      -2.522996       -68.6542 
  25   2.0000      -0.493837       -13.4380 
  26   2.0000      -0.451911       -12.2971 
  27   2.0000      -0.421564       -11.4713 
  28   2.0000      -0.386354       -10.5132 
  29   2.0000      -0.345774        -9.4090 
  30   2.0000      -0.336385        -9.1535 
  31   2.0000      -0.315571        -8.5871 
  32   2.0000      -0.307812        -8.3760 
  33   2.0000      -0.295402        -8.0383 
  34   2.0000      -0.292082        -7.9480 
  35   2.0000      -0.283901        -7.7253 
  36   2.0000      -0.276404        -7.5213 
  37   2.0000      -0.270517        -7.3612 
  38   2.0000      -0.268073        -7.2946 
  39   2.0000      -0.261351        -7.1117 
  40   0.0000      -0.067999        -1.8503 
  41   0.0000      -0.057091        -1.5535 
  42   0.0000      -0.051634        -1.4050 
  43   0.0000      -0.039896        -1.0856 
  44   0.0000      -0.031321        -0.8523 
  45   0.0000      -0.027326        -0.7436 
  46   0.0000      -0.020007        -0.5444 
  47   0.0000      -0.010919        -0.2971 
  48   0.0000      -0.009173        -0.2496 
  49   0.0000       0.001154         0.0314 
  50   0.0000       0.009135         0.2486 
*Only the first 10 virtual orbitals were printed.
-------
TIMINGS
-------

Total SCF time: 0 days 0 hours 0 min 11 sec 

Total time                  ....      11.949 sec
Sum of individual times     ....      11.133 sec  ( 93.2%)

SCF preparation             ....       0.976 sec  (  8.2%)
Fock matrix formation       ....       8.949 sec  ( 74.9%)
  Startup                   ....       0.021 sec  (  0.2% of F)
  Split-RI-J                ....       1.433 sec  ( 16.0% of F)
  XC integration            ....       5.235 sec  ( 58.5% of F)
    XC Preparation          ....       0.000 sec  (  0.0% of XC)
    Basis function eval.    ....       1.470 sec  ( 28.1% of XC)
    Density eval.           ....       1.322 sec  ( 25.3% of XC)
    XC-Functional eval.     ....       0.134 sec  (  2.6% of XC)
    XC-Potential eval.      ....       1.334 sec  ( 25.5% of XC)
  CPCM terms                ....       2.640 sec  ( 29.5% of F)
Diagonalization             ....       0.000 sec  (  0.0%)
Density matrix formation    ....       0.120 sec  (  1.0%)
Total Energy calculation    ....       0.076 sec  (  0.6%)
Population analysis         ....       0.000 sec  (  0.0%)
Orbital Transformation      ....       0.128 sec  (  1.1%)
Orbital Orthonormalization  ....       0.000 sec  (  0.0%)
DIIS solution               ....       0.493 sec  (  4.1%)
SOSCF solution              ....       0.390 sec  (  3.3%)
Finished LeanSCF after  12.1 sec

Maximum memory used throughout the entire LEANSCF-calculation: 17.7 MB


           ************************************************************
           *        Program running with 24 parallel MPI-processes    *
           *              working on a common directory               *
           ************************************************************

------------------------------------------------------------------------------
                         ORCA PROPERTY INTEGRAL CALCULATIONS
------------------------------------------------------------------------------

GBWName                                   ... run.gbw
Number of atoms                           ...     20
Number of basis functions                 ...    275
Max core memory                           ...   4096 MB

Dipole integrals                          ... YES
Quadrupole integrals                      ...  NO
Linear momentum integrals                 ...  NO
Angular momentum integrals                ...  NO
Higher moments length integrals           ...  NO
Higher moments velocity integrals         ...  NO
Kinetic energy integrals                  ...  NO
GIAO right hand sides                     ...  NO
GIAO dipole derivative integrals          ...  NO
SOC integrals                             ...  NO
EPR diamagnetic integrals (GIAO)          ...  NO
EPR gauge integrals                       ...  NO
Field gradient integrals                  ...  NO (   0 nuclei)
Spin-dipole/Fermi contact integrals       ...  NO (   0 nuclei)
Contact density integrals                 ...  NO (   0 nuclei)
Nucleus-orbit integrals                   ...  NO (   0 nuclei)
Geometric perturbations                   ...  NO (  20 nuclei)

Choice of electric origin   ... Center of mass
Position of electric origin ... (  0.5832, -3.0061,  5.3735) 
Choice of magnetic origin   ... GIAO
Position of magnetic origin ... (  0.0000,  0.0000,  0.0000) 

Calculating integrals                     ... Electric Dipole (Length)     done (  0.0 sec)

Property integrals calculated in   0.1 sec

Maximum memory used throughout the entire PROPINT-calculation: 17.0 MB


-------------------------------------------------------------------------------
                          DFT DISPERSION CORRECTION                            
                                                                               
                              DFTD3 V3.1  Rev 1                                
                          USING Becke-Johnson damping                          
-------------------------------------------------------------------------------
The PBE functional is recognized
Active option DFTDOPT                   ...         4   

molecular C6(AA) [au] = 7716.618232 


            DFT-D V3
 parameters
 s6 scaling factor         :     1.0000 
 a1 scaling factor         :     0.4289 
 s8 scaling factor         :     0.7875 
 a2 scaling factor         :     4.4407 
 ad hoc parameters k1-k3   :    16.0000     1.3333    -4.0000 

 Edisp/kcal,au: -12.328314084655  -0.019646416953 
 E6   /kcal   :  -7.734949032 
 E8   /kcal   :  -4.593365053 
 % E8         :  37.258663439 

-------------------------   ----------------
Dispersion correction           -0.019646417
-------------------------   ----------------


-------------------------   --------------------
FINAL SINGLE POINT ENERGY     -1220.447384469452
-------------------------   --------------------



           ************************************************************
           *        Program running with 24 parallel MPI-processes    *
           *              working on a common directory               *
           ************************************************************
------------------------------------------------------------------------------
                         ORCA SCF GRADIENT CALCULATION
------------------------------------------------------------------------------

Nuc. rep. gradient        (SHARK) ... done (  0.0 sec)
HCore & Overlap gradient  (SHARK) ... done (  0.2 sec)
Split-RIJ-J gradient      (SHARK) ... done (  0.7 sec)
XC gradient                       ... done (  3.1 sec)
CPCM gradient                     ... done (  0.8 sec)
Dispersion correction             ... done (  0.1 sec)

-------------------
DISPERSION GRADIENT
-------------------

   1   Al  :   -0.000216982    0.000591893    0.000090284
   2   Al  :   -0.000043067    0.000182296   -0.000474129
   3   H   :   -0.000067771   -0.000075366   -0.000173064
   4   H   :   -0.000006138    0.000056326   -0.000175611
   5   H   :   -0.000146781    0.000132713   -0.000072843
   6   H   :   -0.000116605    0.000107783    0.000070023
   7   H   :    0.000005409    0.000156462    0.000136491
   8   H   :    0.000127197    0.000074832   -0.000146069
   9   Al  :   -0.000082558   -0.000483872   -0.000420128
  10   H   :   -0.000053553   -0.000094088   -0.000019419
  11   H   :   -0.000110573   -0.000155130   -0.000072909
  12   H   :    0.000011061    0.000194225    0.000013502
  13   Al  :    0.000274984   -0.000010257    0.000299102
  14   H   :    0.000005543   -0.000004386    0.000173177
  15   H   :    0.000255459    0.000055968    0.000066285
  16   H   :    0.000094466   -0.000186132   -0.000132985
  17   Al  :    0.000035412   -0.000274388    0.000492909
  18   H   :    0.000046428   -0.000063133    0.000126292
  19   H   :    0.000082058   -0.000091664    0.000091901
  20   H   :   -0.000093989   -0.000114081    0.000127192

Difference to translation invariance:
           :    0.0000000000    0.0000000000   -0.0000000000

Difference to rotation invariance:
           :    0.0000000000    0.0000000000    0.0000000000

Norm of the Dispersion gradient    ...    0.0014636309
RMS gradient                       ...    0.0001889539
MAX gradient                       ...    0.0005918927

------------------
CARTESIAN GRADIENT
------------------

   1   Al  :   -0.000361240    0.001309874    0.000178885
   2   Al  :    0.000949827    0.001082821   -0.000110867
   3   H   :   -0.000302714    0.000004766   -0.000241488
   4   H   :   -0.000105378   -0.000272092    0.000198953
   5   H   :   -0.000379465   -0.000409476   -0.000102649
   6   H   :    0.000269698   -0.000298455   -0.000134454
   7   H   :   -0.000140729   -0.000167358    0.000154682
   8   H   :   -0.000290386   -0.000265140   -0.000052855
   9   Al  :    0.000364032   -0.001135619    0.000636325
  10   H   :   -0.000577573    0.000080845    0.000025431
  11   H   :    0.000091820    0.000340393   -0.000115069
  12   H   :   -0.000112957   -0.000370078   -0.000105638
  13   Al  :    0.001650436   -0.000162987   -0.000389753
  14   H   :   -0.000094535    0.000270718   -0.000156326
  15   H   :   -0.000404612    0.000070993    0.000159888
  16   H   :   -0.000236439    0.000249139   -0.000133803
  17   Al  :   -0.000188939   -0.000893152    0.001033764
  18   H   :   -0.000084093    0.000180647   -0.000323818
  19   H   :   -0.000233861    0.000141133   -0.000253761
  20   H   :    0.000187108    0.000243030   -0.000267448

Difference to translation invariance:
           :   -0.0000000000    0.0000000001   -0.0000000000

Difference to rotation invariance:
           :   -0.0002331584    0.0001381324    0.0000591868

Norm of the Cartesian gradient     ...    0.0036232500
RMS gradient                       ...    0.0004677596
MAX gradient                       ...    0.0016504356

-------
TIMINGS
-------

Total SCF gradient time     ....        4.847 sec

Densities                   ....       0.003 sec  (  0.1%)
One electron gradient       ....       0.156 sec  (  3.2%)
RI-J Coulomb gradient       ....       0.651 sec  ( 13.4%)
XC gradient                 ....       3.090 sec  ( 63.8%)
CPCM gradient               ....       0.820 sec  ( 16.9%)
   A-Matrix (El+Nuc)        ....       0.013 sec  (  0.3%)
   Potential                ....       0.806 sec  ( 16.6%)

Maximum memory used throughout the entire SCFGRAD-calculation: 35.3 MB
------------------------------------------------------------------------------
                         ORCA GEOMETRY RELAXATION STEP
------------------------------------------------------------------------------

Reading the OPT-File                    .... done
Getting information on internals        .... done
Copying old internal coords+grads       .... done
Making the new internal coordinates     .... (2022 redundants) done
Validating the new internal coordinates .... (2022 redundants) done
Calculating the B-matrix                .... done
Calculating the G,G- and P matrices     .... done
Transforming gradient to internals      .... done
Projecting the internal gradient        .... done
Number of atoms                         ....  20
Number of internal coordinates          .... 224
Current Energy                          .... -1220.447384469 Eh
Current gradient norm                   ....     0.003623250 Eh/bohr
Maximum allowed component of the step   ....  0.300
Current trust radius                    ....  0.300
Evaluating the initial hessian          ....  (Almloef) done
Projecting the Hessian                  .... done
Forming the augmented Hessian           .... done
Diagonalizing the augmented Hessian     .... done
Last element of RFO vector              ....  0.999943164
Lowest eigenvalues of augmented Hessian:
 -0.000013822  0.014171996  0.016567531  0.021858825  0.027208811
Length of the computed step             ....  0.010662147
The final length of the internal step   ....  0.010662147
Converting the step to Cartesian space:
 Initial RMS(Int)=    0.0007123947
Transforming coordinates:
 Iter   0:  RMS(Cart)=    0.0012955203 RMS(Int)=    0.0007124614
done
Storing new coordinates                 .... done

                                .--------------------.
          ----------------------|Geometry convergence|-------------------------
          Item                value                   Tolerance       Converged
          ---------------------------------------------------------------------
          RMS gradient        0.0001133321            0.0000300000      NO
          MAX gradient        0.0003919866            0.0001000000      NO
          RMS step            0.0007123947            0.0006000000      NO
          MAX step            0.0029360270            0.0010000000      NO
          -------------------------------------------------------------------------
          ........................................................
          Max(Bonds)      0.0016      Max(Angles)    0.06
          Max(Dihed)        0.14      Max(Improp)    0.00
          ---------------------------------------------------------------------

The optimization has not yet converged - more geometry cycles are needed


    ---------------------------------------------------------------------------
                         Redundant Internal Coordinates
                            (Angstroem and degrees)

        Definition                    Value    dE/dq     Step     New-Value
    ----------------------------------------------------------------------------
     1. B(Al  1,Al  0)                2.9111 -0.000011  0.0001    2.9112   
     2. B(H   2,Al  1)                1.7286  0.000219 -0.0006    1.7280   
     3. B(H   3,Al  1)                1.5829 -0.000277  0.0004    1.5832   
     4. B(H   4,Al  1)                1.7096  0.000116 -0.0003    1.7093   
     5. B(H   4,Al  0)                1.7388  0.000292 -0.0006    1.7383   
     6. B(H   5,Al  0)                1.5889 -0.000355  0.0005    1.5894   
     7. B(H   6,Al  0)                1.6820  0.000218 -0.0007    1.6812   
     8. B(H   7,Al  1)                1.5987 -0.000251  0.0003    1.5990   
     9. B(Al  8,H   2)                1.7263  0.000223 -0.0007    1.7255   
    10. B(Al  8,Al  1)                2.9985  0.000287 -0.0009    2.9977   
    11. B(H   9,Al  8)                1.7152  0.000018 -0.0001    1.7151   
    12. B(H  10,Al  8)                1.5861 -0.000300  0.0004    1.5865   
    13. B(H  11,Al  0)                1.5950 -0.000260  0.0003    1.5954   
    14. B(Al 12,H   6)                1.7791  0.000099 -0.0008    1.7783   
    15. B(Al 12,Al  0)                3.3201  0.000270 -0.0016    3.3186   
    16. B(Al 12,H   9)                1.6988  0.000229 -0.0005    1.6983   
    17. B(Al 12,Al  8)                3.0604 -0.000039  0.0000    3.0604   
    18. B(H  13,Al 12)                1.7309 -0.000015  0.0001    1.7310   
    19. B(H  14,Al 12)                1.5762 -0.000392  0.0005    1.5767   
    20. B(H  15,Al  8)                1.5869 -0.000257  0.0003    1.5872   
    21. B(Al 16,H  13)                1.7596  0.000238 -0.0006    1.7591   
    22. B(Al 16,Al 12)                2.6524  0.000235 -0.0004    2.6520   
    23. B(H  17,Al 16)                1.5877 -0.000310  0.0004    1.5881   
    24. B(H  18,Al 16)                1.6971  0.000166 -0.0003    1.6968   
    25. B(H  18,Al 12)                1.8663 -0.000094  0.0003    1.8666   
    26. B(H  19,Al 16)                1.5893 -0.000252  0.0003    1.5896   
    27. A(H   5,Al  0,H  11)          127.41  0.000177   -0.06    127.35   
    28. A(H   4,Al  0,H  11)          103.81 -0.000099    0.04    103.86   
    29. A(Al  1,Al  0,H  11)           79.12 -0.000175    0.05     79.17   
    30. A(H   4,Al  0,H   6)           99.35 -0.000006    0.03     99.38   
    31. A(H   6,Al  0,H  11)          109.91 -0.000026   -0.02    109.90   
    32. A(Al  1,Al  0,H   5)          135.52  0.000028   -0.00    135.52   
    33. A(Al  1,Al  0,H   4)           32.11  0.000084   -0.02     32.08   
    34. A(H   5,Al  0,Al 12)          117.37 -0.000039    0.02    117.39   
    35. A(H   5,Al  0,H   6)          108.76 -0.000038    0.01    108.78   
    36. A(Al  1,Al  0,H   6)           88.89 -0.000036    0.04     88.93   
    37. A(Al  1,Al  0,Al 12)           72.58 -0.000046    0.04     72.62   
    38. A(H   4,Al  0,H   5)          103.55 -0.000059    0.02    103.57   
    39. A(H  11,Al  0,Al 12)          109.84 -0.000074    0.00    109.84   
    40. A(H   4,Al  0,Al 12)           83.08 -0.000015    0.03     83.11   
    41. A(H   6,Al  0,Al 12)           16.89  0.000013    0.00     16.89   
    42. A(Al  0,Al  1,H   2)          117.71  0.000035    0.01    117.72   
    43. A(Al  0,Al  1,H   7)           78.87  0.000041   -0.02     78.84   
    44. A(H   3,Al  1,H   4)          111.21  0.000012   -0.01    111.21   
    45. A(H   2,Al  1,H   3)          106.83 -0.000136    0.03    106.86   
    46. A(H   2,Al  1,H   7)          104.18 -0.000196    0.04    104.22   
    47. A(H   4,Al  1,H   7)          106.13  0.000052   -0.01    106.12   
    48. A(Al  0,Al  1,H   4)           32.72  0.000120   -0.03     32.70   
    49. A(H   3,Al  1,Al  8)          134.47 -0.000109    0.03    134.49   
    50. A(H   2,Al  1,H   4)           93.30 -0.000084    0.06     93.36   
    51. A(Al  0,Al  1,H   3)          118.47  0.000078   -0.00    118.47   
    52. A(H   4,Al  1,Al  8)           90.73 -0.000047    0.03     90.76   
    53. A(Al  0,Al  1,Al  8)          101.72  0.000018   -0.01    101.71   
    54. A(H   7,Al  1,Al  8)           76.47 -0.000231    0.06     76.52   
    55. A(H   2,Al  1,Al  8)           29.76  0.000030   -0.01     29.75   
    56. A(H   3,Al  1,H   7)          129.10  0.000226   -0.06    129.04   
    57. A(Al  1,H   2,Al  8)          120.43 -0.000060    0.02    120.45   
    58. A(Al  0,H   4,Al  1)          115.17 -0.000204    0.05    115.22   
    59. A(Al  0,H   6,Al 12)          147.17 -0.000036   -0.00    147.17   
    60. A(H   9,Al  8,H  15)          109.32  0.000106   -0.03    109.28   
    61. A(H   2,Al  8,H  15)          109.53 -0.000163    0.05    109.58   
    62. A(Al  1,Al  8,H  15)           97.19 -0.000139    0.04     97.23   
    63. A(H   2,Al  8,H  10)          106.02 -0.000084    0.03    106.05   
    64. A(Al  1,Al  8,H  10)          130.24 -0.000061    0.02    130.26   
    65. A(H   2,Al  8,H   9)           91.77 -0.000045    0.02     91.79   
    66. A(Al  1,Al  8,H   9)           69.92 -0.000054    0.02     69.94   
    67. A(Al  1,Al  8,H   2)           29.81  0.000029   -0.01     29.80   
    68. A(H   9,Al  8,H  10)          105.29 -0.000015    0.01    105.30   
    69. A(H  10,Al  8,Al 12)          122.36  0.000091   -0.03    122.33   
    70. A(H   9,Al  8,Al 12)           26.17  0.000107   -0.02     26.15   
    71. A(H   2,Al  8,Al 12)          103.69 -0.000003    0.02    103.71   
    72. A(Al  1,Al  8,Al 12)           75.34 -0.000042    0.03     75.37   
    73. A(H  10,Al  8,H  15)          128.65  0.000144   -0.05    128.60   
    74. A(Al 12,Al  8,H  15)           83.32  0.000008   -0.01     83.31   
    75. A(Al  8,H   9,Al 12)          127.39 -0.000182    0.04    127.43   
    76. A(H   9,Al 12,H  14)          133.97  0.000138   -0.04    133.93   
    77. A(Al  8,Al 12,H  14)          111.99  0.000083   -0.03    111.95   
    78. A(H   6,Al 12,H  14)          101.39 -0.000021    0.00    101.39   
    79. A(Al  0,Al 12,H  14)          104.00  0.000004    0.00    104.00   
    80. A(H   9,Al 12,H  13)          103.34 -0.000126    0.03    103.37   
    81. A(Al  8,Al 12,H  13)          121.00 -0.000056    0.02    121.02   
    82. A(H   6,Al 12,H  13)           83.74 -0.000089    0.02     83.77   
    83. A(Al  0,Al 12,H  13)           95.42 -0.000082    0.02     95.44   
    84. A(H  13,Al 12,H  14)          122.51 -0.000003    0.00    122.51   
    85. A(Al  8,Al 12,H   9)           26.44  0.000075   -0.02     26.42   
    86. A(H   6,Al 12,H   9)           86.42 -0.000026    0.03     86.45   
    87. A(Al  0,Al 12,H   9)           73.15 -0.000036    0.02     73.17   
    88. A(H   6,Al 12,Al  8)          107.09  0.000046    0.01    107.10   
    89. A(Al  0,Al 12,Al  8)           91.75  0.000025    0.00     91.76   
    90. A(Al 16,Al 12,H  18)           39.51 -0.000003   -0.00     39.51   
    91. A(H  14,Al 12,H  18)           97.95  0.000113   -0.04     97.91   
    92. A(Al  0,Al 12,H   6)           15.94  0.000023    0.00     15.94   
    93. A(H   9,Al 12,H  18)           84.80 -0.000057    0.02     84.81   
    94. A(Al  8,Al 12,H  18)           70.98 -0.000079    0.03     71.00   
    95. A(H   6,Al 12,H  18)          159.62 -0.000098    0.04    159.65   
[...]
     35       0.015866  -0.001892  -0.039575  -0.009049   0.008520  -0.016679
     36       0.008909  -0.003267  -0.009682   0.001273   0.000122   0.030127
     37      -0.001176  -0.000446  -0.000846   0.000908  -0.000141   0.009597
     38      -0.000541  -0.000574  -0.002884   0.000315   0.000614  -0.006596
     39      -0.001778   0.003295   0.000671   0.002394   0.000631   0.000445
     40      -0.024662  -0.001721   0.028112   0.002379   0.003479   0.038571
     41       0.023811   0.004258  -0.029210  -0.005085  -0.003319  -0.024234
     42      -0.169089   0.062896   0.101757  -0.041095  -0.001511  -0.902468
     43      -0.051866   0.015760   0.034099  -0.010971   0.000618  -0.209928
     44       0.030226  -0.012372  -0.019057   0.005674  -0.003794   0.162758
     45       0.210989   0.261300   0.519990   0.691948   0.048330  -0.031123
     46      -0.046612  -0.060826  -0.117695  -0.170915  -0.009228   0.007641
     47      -0.035875  -0.044851  -0.089672  -0.119621  -0.007432   0.007340
     48       0.000337   0.036467  -0.012979  -0.004255  -0.000397   0.001074
     49       0.002200   0.005347  -0.003507  -0.001196  -0.000406  -0.001469
     50      -0.002830   0.021657  -0.005553  -0.001282   0.000407   0.003031
     51       0.073528  -0.539910   0.144612   0.036462  -0.007083  -0.043828
     52      -0.007776   0.063828  -0.016432  -0.004448   0.001063   0.007465
     53       0.078072  -0.583963   0.155522   0.038804  -0.008043  -0.048302
     54       0.003237   0.006067  -0.004583   0.003829   0.001483   0.014259
     55      -0.003605  -0.001318   0.012217   0.001111   0.001324   0.028787
     56       0.000498   0.008856  -0.013389  -0.007226  -0.004451  -0.035114
     57      -0.082528  -0.452432   0.204686   0.075888   0.016674   0.006722
     58      -0.036255  -0.208059   0.093084   0.034224   0.007717   0.005751
     59      -0.004628  -0.008711   0.005632   0.002768   0.000355  -0.001410


-----------
IR SPECTRUM
-----------

 Mode   freq       eps      Int      T**2         TX        TY        TZ
       cm**-1   L/(mol*cm) km/mol    a.u.
----------------------------------------------------------------------------
  6:     41.92   0.000464    2.35  0.003457  ( 0.034616 -0.031332  0.035730)
  7:     48.03   0.000147    0.74  0.000958  ( 0.018051  0.002269  0.025035)
  8:     66.29   0.000278    1.41  0.001310  (-0.029987  0.000977  0.020252)
  9:     94.10   0.001271    6.42  0.004213  (-0.018853  0.039727 -0.047746)
 10:    110.25   0.001212    6.13  0.003431  (-0.030577  0.000664 -0.049958)
 11:    129.09   0.000387    1.96  0.000936  (-0.012531 -0.013952 -0.024166)
 12:    182.12   0.000193    0.98  0.000331  ( 0.013073  0.009171 -0.008715)
 13:    193.50   0.001201    6.07  0.001937  ( 0.023762 -0.034456  0.013597)
 14:    210.33   0.001320    6.67  0.001958  (-0.003107 -0.014288 -0.041769)
 15:    233.87   0.000336    1.70  0.000448  (-0.009323  0.001818 -0.018914)
 16:    280.46   0.006193   31.30  0.006891  (-0.014788  0.022549 -0.078508)
 17:    297.43   0.002013   10.17  0.002112  (-0.028463 -0.030217 -0.019728)
 18:    335.58   0.002715   13.72  0.002525  ( 0.030078 -0.038338  0.012256)
 19:    345.70   0.005194   26.25  0.004688  (-0.008858 -0.033297  0.059171)
 20:    369.60   0.010932   55.24  0.009230  ( 0.063334 -0.036225  0.062500)
 21:    387.48   0.002149   10.86  0.001731  (-0.019168  0.028832 -0.023073)
 22:    422.35   0.001178    5.95  0.000871  (-0.003520  0.018682  0.022564)
 23:    427.88   0.000970    4.90  0.000707  ( 0.013397  0.016914  0.015542)
 24:    474.07   0.002460   12.43  0.001620  ( 0.025078  0.021117  0.023342)
 25:    487.36   0.037712  190.58  0.024148  ( 0.012510  0.023644 -0.153075)
 26:    518.73   0.043649  220.59  0.026259  (-0.020088 -0.132334 -0.091341)
 27:    542.74   0.028621  144.64  0.016457  ( 0.064058 -0.070340  0.086054)
 28:    556.73   0.064687  326.90  0.036259  (-0.063748  0.179237 -0.008358)
 29:    630.20   0.204231  1032.10  0.101131  (-0.014236  0.216242 -0.232739)
 30:    652.28   0.193423  977.48  0.092537  ( 0.054241 -0.264465 -0.140191)
 31:    656.12   0.045409  229.48  0.021597  ( 0.009813  0.059577 -0.133983)
 32:    663.99   0.038612  195.13  0.018147  ( 0.089796 -0.040825 -0.091744)
 33:    683.18   0.034864  176.19  0.015925  (-0.051614 -0.092136  0.069081)
 34:    701.27   0.023280  117.65  0.010360  (-0.099891 -0.017251  0.009148)
 35:    712.23   0.048136  243.26  0.021091  (-0.010321 -0.051437  0.135419)
 36:    721.94   0.029124  147.18  0.012589  (-0.002277 -0.111349  0.013604)
 37:    738.36   0.035473  179.27  0.014992  (-0.047888  0.001726 -0.112678)
 38:    812.78   0.033806  170.84  0.012980  ( 0.103859  0.030788  0.035284)
 39:    824.82   0.036994  186.95  0.013996  ( 0.040237  0.049418  0.099675)
 40:   1028.51   0.062394  315.31  0.018931  ( 0.084068 -0.101543  0.039404)
 41:   1084.07   0.052102  263.30  0.014998  (-0.006392  0.122119 -0.006642)
 42:   1125.76   0.025023  126.45  0.006936  ( 0.035554  0.022413  0.071902)
 43:   1157.16   0.032524  164.36  0.008771  ( 0.081295  0.031519  0.034187)
 44:   1375.87   0.042624  215.40  0.009668  (-0.037995  0.088780  0.018494)
 45:   1422.84   0.200645  1013.98  0.044006  (-0.005230 -0.126176  0.167507)
 46:   1571.68   0.077994  394.15  0.015486  (-0.017865 -0.053209  0.111066)
 47:   1644.46   0.101418  512.52  0.019246  (-0.024241  0.130348  0.040835)
 48:   1707.54   0.111753  564.75  0.020424  ( 0.023602  0.052409 -0.130843)
 49:   1768.34   0.281917  1424.69  0.049751  ( 0.035699 -0.206828 -0.075489)
 50:   1851.12   0.054878  277.33  0.009251  (-0.058434  0.044215 -0.062304)
 51:   1863.17   0.067642  341.83  0.011329  (-0.058364  0.035001 -0.081841)
 52:   1879.27   0.046073  232.83  0.007651  ( 0.086954  0.000858  0.009427)
 53:   1885.49   0.031203  157.69  0.005164  ( 0.056456  0.034756 -0.027732)
 54:   1889.34   0.012753   64.45  0.002106  (-0.010643 -0.006720  0.044136)
 55:   1898.57   0.027839  140.68  0.004576  ( 0.054224  0.016732  0.036818)
 56:   1900.61   0.050843  256.94  0.008348  (-0.063062  0.031197 -0.058292)
 57:   1908.13   0.048670  245.96  0.007960  (-0.086510 -0.016435  0.014337)
 58:   1913.08   0.032286  163.16  0.005266  (-0.028156  0.024401 -0.062276)
 59:   1934.45   0.025152  127.11  0.004057  ( 0.032280  0.046657 -0.028958)

* The epsilon (eps) is given for a Dirac delta lineshape.
** The dipole moment derivative (T) already includes vibrational overlap.

The first frequency considered to be a vibration is 6
The total number of vibrations considered is 54


--------------------------
THERMOCHEMISTRY AT 298.15K
--------------------------

Temperature         ...   298.15 K
Pressure            ...     1.00 atm
Total Mass          ...   150.03 AMU
Quasi RRHO          ...     True
Cut-Off Frequency   ...     1.00 cm^-1

Throughout the following assumptions are being made:
  (1) The electronic state is orbitally nondegenerate
  (2) There are no thermally accessible electronically excited states
  (3) Hindered rotations indicated by low frequency modes are not
      treated as such but are treated as vibrations and this may
      cause some error
  (4) All equations used are the standard statistical mechanics
      equations for an ideal gas
  (5) All vibrations are strictly harmonic

freq.      41.92  E(vib)   ...       0.53 
freq.      48.03  E(vib)   ...       0.53 
freq.      66.29  E(vib)   ...       0.50 
freq.      94.10  E(vib)   ...       0.47 
freq.     110.25  E(vib)   ...       0.45 
freq.     129.09  E(vib)   ...       0.43 
freq.     182.12  E(vib)   ...       0.37 
freq.     193.50  E(vib)   ...       0.36 
freq.     210.33  E(vib)   ...       0.34 
freq.     233.87  E(vib)   ...       0.32 
freq.     280.46  E(vib)   ...       0.28 
freq.     297.43  E(vib)   ...       0.27 
freq.     335.58  E(vib)   ...       0.24 
freq.     345.70  E(vib)   ...       0.23 
freq.     369.60  E(vib)   ...       0.21 
freq.     387.48  E(vib)   ...       0.20 
freq.     422.35  E(vib)   ...       0.18 
freq.     427.88  E(vib)   ...       0.18 
freq.     474.07  E(vib)   ...       0.15 
freq.     487.36  E(vib)   ...       0.15 
freq.     518.73  E(vib)   ...       0.13 
freq.     542.74  E(vib)   ...       0.12 
freq.     556.73  E(vib)   ...       0.12 
freq.     630.20  E(vib)   ...       0.09 
freq.     652.28  E(vib)   ...       0.08 
freq.     656.12  E(vib)   ...       0.08 
freq.     663.99  E(vib)   ...       0.08 
freq.     683.18  E(vib)   ...       0.08 
freq.     701.27  E(vib)   ...       0.07 
freq.     712.23  E(vib)   ...       0.07 
freq.     721.94  E(vib)   ...       0.07 
freq.     738.36  E(vib)   ...       0.06 
freq.     812.78  E(vib)   ...       0.05 
freq.     824.82  E(vib)   ...       0.04 
freq.    1028.51  E(vib)   ...       0.02 
freq.    1084.07  E(vib)   ...       0.02 
freq.    1125.76  E(vib)   ...       0.01 
freq.    1157.16  E(vib)   ...       0.01 
freq.    1375.87  E(vib)   ...       0.01 
freq.    1422.84  E(vib)   ...       0.00 
freq.    1571.68  E(vib)   ...       0.00 
freq.    1644.46  E(vib)   ...       0.00 
freq.    1707.54  E(vib)   ...       0.00 
freq.    1768.34  E(vib)   ...       0.00 
freq.    1851.12  E(vib)   ...       0.00 
freq.    1863.17  E(vib)   ...       0.00 
freq.    1879.27  E(vib)   ...       0.00 
freq.    1885.49  E(vib)   ...       0.00 
freq.    1889.34  E(vib)   ...       0.00 
freq.    1898.57  E(vib)   ...       0.00 
freq.    1900.61  E(vib)   ...       0.00 
freq.    1908.13  E(vib)   ...       0.00 
freq.    1913.08  E(vib)   ...       0.00 
freq.    1934.45  E(vib)   ...       0.00 

------------
INNER ENERGY
------------

The inner energy is: U= E(el) + E(ZPE) + E(vib) + E(rot) + E(trans)
    E(el)   - is the total energy from the electronic structure calculation
              = E(kin-el) + E(nuc-el) + E(el-el) + E(nuc-nuc)
    E(ZPE)  - the the zero temperature vibrational energy from the frequency calculation
    E(vib)  - the the finite temperature correction to E(ZPE) due to population
              of excited vibrational states
    E(rot)  - is the rotational thermal energy
    E(trans)- is the translational thermal energy

Summary of contributions to the inner energy U:
Electronic energy                ...  -1220.44749529 Eh
Zero point energy                ...      0.10789913 Eh      67.71 kcal/mol
Thermal vibrational correction   ...      0.01212382 Eh       7.61 kcal/mol
Thermal rotational correction    ...      0.00141627 Eh       0.89 kcal/mol
Thermal translational correction ...      0.00141627 Eh       0.89 kcal/mol
-----------------------------------------------------------------------
Total thermal energy                  -1220.32463980 Eh


Summary of corrections to the electronic energy:
(perhaps to be used in another calculation)
Total thermal correction                  0.01495636 Eh       9.39 kcal/mol
Non-thermal (ZPE) correction              0.10789913 Eh      67.71 kcal/mol
-----------------------------------------------------------------------
Total correction                          0.12285549 Eh      77.09 kcal/mol


--------
ENTHALPY
--------

The enthalpy is H = U + kB*T
                kB is Boltzmann's constant
Total thermal energy              ...  -1220.32463980 Eh 
Thermal Enthalpy correction       ...      0.00094421 Eh       0.59 kcal/mol
-----------------------------------------------------------------------
Total Enthalpy                    ...  -1220.32369559 Eh


Note: Only C1 symmetry has been detected, increase convergence thresholds 
      if your molecule has a higher symmetry. Symmetry factor of 1.0 is   
      used for the rotational entropy correction. 
 

Note: Rotational entropy computed according to Herzberg 
Infrared and Raman Spectra, Chapter V,1, Van Nostrand Reinhold, 1945 
Point Group:  C1, Symmetry Number:   1  
Rotational constants in cm-1:     0.047240     0.023052     0.016955 

Vibrational entropy computed according to the QRRHO of S. Grimme
Chem.Eur.J. 2012 18 9955 using a reference frequency of 100.0 cm-1


-------
ENTROPY
-------

The entropy contributions are T*S = T*(S(el)+S(vib)+S(rot)+S(trans))
     S(el)   - electronic entropy
     S(vib)  - vibrational entropy
     S(rot)  - rotational entropy
     S(trans)- translational entropy
The entropies will be listed as multiplied by the temperature to get
units of energy

Electronic entropy                ...      0.00000000 Eh      0.00 kcal/mol
Vibrational entropy               ...      0.02109938 Eh     13.24 kcal/mol
Rotational entropy                ...      0.01465646 Eh      9.20 kcal/mol
Translational entropy             ...      0.01944577 Eh     12.20 kcal/mol
-----------------------------------------------------------------------
Final entropy term                ...      0.05520161 Eh     34.64 kcal/mol

In case the symmetry of your molecule has not been determined correctly
or in case you have a reason to use a different symmetry number we print 
out the resulting rotational entropy values for sn=1,12:

 non-linear molecules -----------------------------------
|  sn= 1 | S(rot)=       0.01465646 Eh      9.20 kcal/mol|
|  sn= 2 | S(rot)=       0.01400200 Eh      8.79 kcal/mol|
|  sn= 3 | S(rot)=       0.01361917 Eh      8.55 kcal/mol|
|  sn= 4 | S(rot)=       0.01334754 Eh      8.38 kcal/mol|
|  sn= 5 | S(rot)=       0.01313686 Eh      8.24 kcal/mol|
|  sn= 6 | S(rot)=       0.01296471 Eh      8.14 kcal/mol|
|  sn= 7 | S(rot)=       0.01281916 Eh      8.04 kcal/mol|
|  sn= 8 | S(rot)=       0.01269309 Eh      7.97 kcal/mol|
|  sn= 9 | S(rot)=       0.01258188 Eh      7.90 kcal/mol|
|  sn=10 | S(rot)=       0.01248240 Eh      7.83 kcal/mol|
|  sn=11 | S(rot)=       0.01239241 Eh      7.78 kcal/mol|
|  sn=12 | S(rot)=       0.01231025 Eh      7.72 kcal/mol|
 linear molecules ---------------------------------------
|  Dinfh | S(rot)=       0.00917542 Eh      5.76 kcal/mol|
|  Cinfv | S(rot)=       0.00982988 Eh      6.17 kcal/mol|
 --------------------------------------------------------


-------------------
GIBBS FREE ENERGY
-------------------

The Gibbs free energy is G = H - T*S

Total enthalpy                    ...  -1220.32369559 Eh 
Total entropy correction          ...     -0.05520161 Eh    -34.64 kcal/mol
-----------------------------------------------------------------------
Final Gibbs free energy         ...  -1220.37889719 Eh

For completeness - the Gibbs free energy minus the electronic energy
G-E(el)                           ...      0.06859809 Eh     43.05 kcal/mol


Maximum memory used throughout the entire PROP-calculation: 41.8 MB

--------------------------------
SUGGESTED CITATIONS FOR THIS RUN
--------------------------------

Below you find a list of papers that are relevant to this ORCA run
We neither can nor want to force you to cite these papers, but we appreciate if you do
You receive ORCA, which is the product of decades of hard work by many enthusiastic individuals, for free
The only thing we kindly ask in return is that you cite our papers,
We deeply appreciate it, if you show your appreciation for ORCA by not just citing the generic ORCA reference.

Please note that relegating all ORCA citations to the supporting information does *not* help us.
SI sections are not indexed - citations you put there will not count into any citation statistics
But we need these citations in order to attract the funding resources that allow us to do what we are doing

Therefore, if you are a happy ORCA user, please consider citing a few of the papers listed below in the main body of your paper

In addition to the list printed below, the program has created the file run.bibtex that contains the list in bibtex format
You can import this file easily into all common literature databanks and citation aid programs


List of essential papers. We consider these as the minimum necessary citations

  1. Neese, F.
     Software update: the ORCA program system, version 6.0
     WIRES Comput. Molec. Sci. 2025 15(1), e70019
     doi.org/10.1002/wcms.7019

List of papers to cite with high priority. The work reported in these papers was absolutely
necessary for this run to complete.
Our perspective: the developers of density functionals and basis sets usually get cited in chemistry papers
Good! But without the algorithms to do something with them, the functionals or basis sets would not do anything.
Hence, in our opinion, the algorithm design and method developments papers are equally worthy of getting cited

  1. Neese, F.
     An improvement of the resolution of the identity approximation for the formation of the Coulomb matrix
     J. Comp. Chem. 2003 24(14), 1740-1747
     doi.org/10.1002/jcc.10318
  2. Grimme, S.; Antony, J.; Ehrlich, S.; Krieg, H.
     A consistent and accurate ab initio parametrization of density functional dispersion correction (DFT-D) for the 94 elements H-Pu
     J. Chem. Phys. 2010 132 , 154104
     doi.org/10.1063/1.3382344
  3. Grimme, S.; Ehrlich, S.; Goerigk, L.
     Effect of the damping function in dispersion corrected density functional theory
     J. Comput. Chem. 2011 32(7), 1456-1465
     doi.org/10.1002/jcc.21759
  4. Bykov, D.; Petrenko, T.; Izsak, R.; Kossmann, S.; Becker, U.; Valeev, E.; Neese, F.
     Efficient implementation of the analytic second derivatives of Hartree-Fock and hybrid DFT energies: a detailed analysis of different approximations
     Molec. Phys. 2015 113 , 1961-1977
     doi.org/10.1080/00268976.2015.1025114
  5. Garcia-Rates, M.; Neese, F.
     Efficient implementation of the analytical second derivatives of hartree-fock and hybrid DFT energies within the framework of the conductor-like polarizable continuum model
     J. Comput. Chem. 2019 40 , 1816-1828
     doi.org/10.1002/jcc.25833
  6. Garcia-Rates, M.; Neese, F.
     Effect of the Solute Cavity on the Solvation Energy and its Derivatives within the Framework of the Gaussian Charge Scheme
     J. Comput. Chem. 2020 41 , 922-939
     doi.org/10.1002/jcc.26139
  7. Neese, F.
     The SHARK Integral Generation and Digestion System
     J. Comp. Chem. 2022 44(3), 381
     doi.org/10.1002/jcc.26942

List of suggested additional citations. These are papers that are important in the 'surrounding' of 
of this run, or papers that preceded the highly important papers. If you like your results we are grateful for a citation.

  1. Neese, F.
     The ORCA program system
     WIRES Comput. Molec. Sci. 2012 2(1), 73-78
     doi.org/10.1002/wcms.81
  2. Neese, F.
     Software update: the ORCA program system, version 4.0
     WIRES Comput. Molec. Sci. 2018 8(1), 1-6
     doi.org/10.1002/wcms.1327
  3. Neese, F.; Wennmohs, F.; Becker, U.; Riplinger, C.
     The ORCA quantum chemistry program package
     J. Chem. Phys. 2020 152(22), 224108
     doi.org/10.1063/5.0004608
  4. Neese, F.
     Software update: The ORCA program system—Version 5.0
     WIRES Comput. Molec. Sci. 2022 12(1), e1606
     doi.org/10.1002/wcms.1606

List of optional additional citations

  1. Neese, F.
     Approximate second-order SCF convergence for spin unrestricted wavefunctions
     Chem. Phys. Lett. 2000 325(1-3), 93-98
     doi.org/10.1016/s0009-2614(00)00662-x

Timings for individual modules:

Sum of individual times          ...      942.610 sec (=  15.710 min)
Startup calculation              ...      250.796 sec (=   4.180 min)  26.6 %
SCF iterations                   ...      271.294 sec (=   4.522 min)  28.8 %
Property integrals               ...      114.945 sec (=   1.916 min)  12.2 %
SCF Response                     ...       55.300 sec (=   0.922 min)   5.9 %
Property calculations            ...       40.563 sec (=   0.676 min)   4.3 %
SCF Gradient evaluation          ...      208.702 sec (=   3.478 min)  22.1 %
Geometry relaxation              ...        1.010 sec (=   0.017 min)   0.1 %
                             ****ORCA TERMINATED NORMALLY****
TOTAL RUN TIME: 0 days 0 hours 16 minutes 17 seconds 605 msec
