
                                 *****************
                                 * O   R   C   A *
                                 *****************

                                            #,                                       
                                            ###                                      
                                            ####                                     
                                            #####                                    
                                            ######                                   
                                           ########,                                 
                                     ,,################,,,,,                         
                               ,,#################################,,                 
                          ,,##########################################,,             
                       ,#########################################, ''#####,          
                    ,#############################################,,   '####,        
                  ,##################################################,,,,####,       
                ,###########''''           ''''###############################       
              ,#####''   ,,,,##########,,,,          '''####'''          '####       
            ,##' ,,,,###########################,,,                        '##       
           ' ,,###''''                  '''############,,,                           
         ,,##''                                '''############,,,,        ,,,,,,###''
      ,#''                                            '''#######################'''  
     '                                                          ''''####''''         
             ,#######,   #######,   ,#######,      ##                                
            ,#'     '#,  ##    ##  ,#'     '#,    #''#        ,####,    ,#,          
            ##       ##  ##   ,#'  ##            #'  '#       #'       ,# #          
            ##       ##  #######   ##           ,######,      #####,      #          
            '#,     ,#'  ##    ##  '#,     ,#' ,#      #,     #,   #      #          
             '#######'   ##     ##  '#######'  #'      '#     '####' #    #          



                #########################################################
                #                        -***-                          #
                #          Department of theory and spectroscopy        #
                #                                                       #
                #                      Frank Neese                      #
                #                                                       #
                #     Directorship, Architecture, Infrastructure        #
                #                    SHARK, DRIVERS                     #
                #        Core code/Algorithms in most modules           #
                #                                                       #
                #        Max Planck Institute fuer Kohlenforschung      #
                #                Kaiser Wilhelm Platz 1                 #
                #                 D-45470 Muelheim/Ruhr                 #
                #                      Germany                          #
                #                                                       #
                #                  All rights reserved                  #
                #                        -***-                          #
                #########################################################


                         Program Version 6.1.0  -  RELEASE   -
                                (GIT: $679e74b$)
                          ($2025-06-10 18:02:51 +0200$)


 With contributions from (in alphabetic order):
[Max-Planck-Institut fuer Kohlenforschung]                               
  Daniel Aravena         : Magnetic Suceptibility                        
  Michael Atanasov       : Ab Initio Ligand Field Theory (pilot matlab implementation)
  Alexander A. Auer      : GIAO ZORA, VPT2 properties, NMR spectrum      
  Ute Becker             : All parallelization in ORCA, NUMFREQ, NUMCALC 
  Giovanni Bistoni       : ED, misc. LED, open-shell LED, HFLD           
  Dmytro Bykov           : pre 5.0 version of the SCF Hessian            
  Marcos Casanova-Páez   : Triplet and SCS-CIS(D). UHF-(DLPNO)-IP/EA/STEOM-CCSD. UHF-CVS-IP/STEOM-CCSD   
  Vijay G. Chilkuri      : MRCI spin determinant printing, contributions to CSF-ICE 
  Pauline Colinet        : FMM embedding                                 
  Dipayan Datta          : RHF DLPNO-CCSD density                        
  Achintya Kumar Dutta   : EOM-CC, STEOM-CC                              
  Nicolas Foglia         : Exact transition moments, OPA infrastructure, MCD improvements    
  Dmitry Ganyushin       : Spin-Orbit,Spin-Spin,Magnetic field MRCI      
  Miquel Garcia-Rates    : C-PCM and meta-GGA Hessian, CCSD/C-PCM, Gaussian charge scheme 
  Tiago L. C. Gouveia    : GS-ROHF, GS-ROCIS                             
  Yang Guo               : DLPNO-NEVPT2, F12-NEVPT2, CIM, IAO-localization        
  Andreas Hansen         : Spin unrestricted coupled pair/coupled cluster methods 
  Ingolf Harden          : AUTO-CI MPn and infrastructure                
  Benjamin Helmich-Paris : MC-RPA, TRAH-(SCF,CASSCF), AVAS, COSX integrals, SCF dyn. polar., MC-PDFT, srDFT 
  Lee Huntington         : MR-EOM, pCC                                   
  Robert Izsak           : Overlap fitted RIJCOSX, COSX-SCS-MP3, EOM     
  Riya Kayal             : Wick's Theorem for AUTO-CI, AUTO-CI UHF-CCSDT 
  Emily Kempfer          : AUTO-CI RHF CISDT and CCSDT, approximate NEVPT4
  Christian Kollmar      : KDIIS, OOCD, Brueckner-CCSD(T), CCSD density, CASPT2, CASPT2-K, improved NEVPT2 
  Axel Koslowski         : Symmetry handling                             
  Simone Kossmann        : meta-GGA functionals, TD-DFT gradient, OOMP2, (MP2 Hessian; deprecated post 5.0) 
  Lucas Lang             : DCDCAS, Hyperfine gauge corrections, ICE-SOC+SSC
  Marvin Lechner         : AUTO-CI (C++ implementation), FIC-MRCC        
  Spencer Leger          : CASSCF response                               
  Dagmar Lenk            : GEPOL surface, SMD, ORCA-2-JSON               
  Dimitrios Liakos       : Extrapolation schemes; Compound Job, Property file
  Dimitrios Manganas     : Further ROCIS development; embedding schemes. LFT, Crystal Embedding 
  Dimitrios Pantazis     : SARC Basis sets                               
  Anastasios Papadopoulos: AUTO-CI, single reference methods and gradients 
  Taras Petrenko         : pre 6.0 DFT Hessian and TD-DFT gradient,  ECA, NRVS 
  Petra Pikulova         : Analytic Raman intensities                    
  Peter Pinski           : DLPNO-MP2, DLPNO-MP2 Gradient                 
  Shashank Vittal Rao    : ES-AILFT, MagRelax                            
  Christoph Reimann      : Effective Core Potentials                     
  Marius Retegan         : Local ZFS, SOC                                
  Christoph Riplinger    : Optimizer, TS searches, QM/MM, DLPNO-CCSD(T), (RO)-DLPNO pert. Triples 
  Michael Roemelt        : Original ROCIS implementation, recursive CI coupling coefficients
  Masaaki Saitow         : Open-shell DLPNO-CCSD energy and density      
  Barbara Sandhoefer     : DKH picture change effects                    
  Yorick L. A. Schmerwitz: GMF and freeze-and-release deltaSCF, NEB S-IDPP initial path                    
  Kantharuban Sivalingam : CASSCF convergence/infrastructure, NEVPT2, NEVPT3, NEVPT4(SD), FIC-MRCI and CEPA variants
  Bernardo de Souza      : ESD, SOC TD-DFT                               
  Georgi L. Stoychev     : AutoAux, RI-MP2 NMR, DLPNO-MP2 response, X2C  
  Van Anh Tran           : RI-MP2 g-tensors                              
  Willem Van den Heuvel  : Paramagnetic NMR                              
  Zikuan Wang            : NOTCH, Electric field optimization            
  Frank Wennmohs         : Technical directorship and infrastructure     
  Hang Xu                : AUTO-CI-Response properties                   
                                                                         
[FACCTs GmbH]                                                            
  Markus Bursch, Nicolas Foglia, Miquel Garcia-Rates, Ingolf Harden, Hagen Neugebauer, Anastasios Papadopoulos, 
  Christoph Riplinger, Bernardo de Souza, Georgi L. Stoychev                                                    
                                                                 
  APM, various basis sets, CI-OPT, improved COSX, DLPNO-Multilevel,           
  DOCKER, DRACO, updates on ESD, Fragmentator, GOAT, IRC, LR-CPCM, L-BFGS, MBIS, meta-GGA TD-DFT gradient, ML-optimized integration grids, 
  MM, NACMEs, nearIR, NEB, NEB-TS, NL-DFT gradient (VV10), 2- and 3-layer-ONIOM, interface openCOSMO-RS, QMMM,   
  Crystal-QMMM, RESP, rigid body optimization, SF, symmetry and pop. for TD-DFT, various functionals, SOLVATOR                                   
                                                                         
[Other institutions]                                                     
  V. Asgeirsson          : NEB                                           
  Christoph Bannwarth    : sTDA-DFT, sTD-DFT, PBEh-3c, B97-3c, D3        
  Giovanni Bistoni       : ETS/NOCV, ADLD/ADEX, COVALED                  
  Martin Brehm           : Molecular dynamics                            
  Ronald Cardenas        : ETS/NOCV                                      
  Martina Colucci        : COVALED                                       
  Sebastian Ehlert       : rSCAN, r2SCAN, r2SCAN-3c, D4, dhf basis sets  
  Marvin Friede          : D4 for Fr, Ra, Ac-Lr                          
  Lars Goerigk           : TD-DFT with DH, B97 family of functionals     
  Stefan Grimme          : VdW corrections, initial TS optimization, DFT functionals, gCP, sTDA/sTD-DF 
  Waldemar Hujo          : DFT-NL                                        
  H. Jonsson             : NEB                                           
  Holger Kruse           : gCP                                           
  Marcel Mueller         : wB97X-3c, vDZP basis set                      
  Hagen Neugebauer       : wr2SCAN, Native XTB                           
  Gianluca Regni         : ADLD/ADEX                                     
  Tobias Risthaus        : pre 6.0 range-separated hybrid DFT and stability analysis
  Lukas Wittmann         : regularized MP2, r2SCAN double-hybrids, wr2SCAN        
                                                                         
We gratefully acknowledge several colleagues who have allowed us to      
interface, adapt or use parts of their codes:                            
  Ed Valeev, F. Pavosevic, A. Kumar             : LibInt (2-el integral package), F12 methods 
  Garnet Chan, S. Sharma, J. Yang, R. Olivares  : DMRG                   
  Ulf Ekstrom                                   : XCFun DFT Library      
  Mihaly Kallay                                 : mrcc  (arbitrary order and MRCC methods)
  Frank Weinhold                                : gennbo (NPA and NBO analysis)           
  Simon Mueller                                 : openCOSMO-RS                            
  Christopher J. Cramer and Donald G. Truhlar   : smd solvation model                     
  S Lehtola, MJT Oliveira, MAL Marques          : LibXC Library                           
  Liviu Ungur et al                             : ANISO software                          


 Your calculation uses the libint2 library for the computation of 2-el integrals
 For citations please refer to: http://libint.valeyev.net

 Your ORCA version has been built with support for libXC version: 7.0.0
 For citations please refer to: https://libxc.gitlab.io

 This ORCA versions uses:
   CBLAS   interface :  Fast vector & matrix operations
   LAPACKE interface :  Fast linear algebra routines
   SCALAPACK package :  Parallel linear algebra routines
   Shared memory     :  Shared parallel matrices
   BLAS/LAPACK       :  OpenBLAS 0.3.29  USE64BITINT DYNAMIC_ARCH NO_AFFINITY Zen SINGLE_THREADED
        Core in use  :  Zen
   Copyright (c) 2011-2014, The OpenBLAS Project


  ***********************************
  * Starting time: Wed Jun 25 08:46:12 2025
  * Host name:     gadolinium01
  * Process ID:    2084225
  * Working dir.:  /local/scratch/mehlhorn/61310
  ***********************************



***************************************
The coordinates will be read from file: start.xyz
***************************************


Your calculation utilizes the atom-pairwise dispersion correction
with the Becke-Johnson damping scheme (D3BJ)


================================================================================

cite the ECPs for Zr [Def-ECP] as follows:
 

ECP parameters for Zr [Def-ECP] have been obtained from:
TURBOMOLE (7.0.2)

----- Orbital basis set information -----
Your calculation utilizes the basis: def-SV(P)
   H-Kr: A. Schäfer, H. Horn, R. Ahlrichs; J. Chem. Phys. 97, 2571 (1992)
   Rb-At: K. Eichkorn, F. Weigend, O. Treutler, R. Ahlrichs; Theor. Chem. Acc. 97, 119 (1997)
   Rn: F. Weigend, R. Ahlrichs; Phys. Chem. Chem. Phys. 7, 3297 (2005)
   Fr-Ra: I. S. Lim, P. Schwerdtfeger, B. Metz, H. Stoll, J. Chem. Phys. 122, 104103 (2005)
   Ac-Lr: X. Cao, M. Dolg, J. Molec. Struct. Theochem. 673 (2004)
----- AuxJ basis set information -----
Your calculation utilizes the auxiliary basis: def2/J
   H-Rn: F. Weigend, Phys. Chem. Chem. Phys. 8, 1057 (2006).
   Fr-Lr: K. Eichkorn, F. Weigend, O. Treutler, R. Ahlrichs; Theor. Chem. Acc. 97, 119 (1997).

================================================================================
                                        WARNINGS
                       Please study these warnings very carefully!
================================================================================


WARNING: Geometry Optimization
  ===> : Switching off AutoStart
         For restart on a previous wavefunction, please use MOREAD

================================================================================
                                       INPUT FILE
================================================================================
NAME = run.inp
|  1> # Geometry optimization for UiO-66-dehydrox SBU
|  2> 
|  3> %pal nprocs 64 end
|  4> 
|  5> ! PBE 	# functional used for the MOF calculations later (non-expensive)
|  6> ! RKS	# closed shell for SBU
|  7> ! D3BJ  # better geometries at low cost
|  8> ! def-SV(P) def-ECP def2/J  	# Ahlrichs basis set with core potentials ans auxilarry basis set for coulomb integrals
|  9> ! Freq 	# Frequency analysis to check the stabiltity of the structures
| 10> 
| 11> ! NoPop # population analysis not necessary	
| 12> 
| 13> ! RI 		# speed up calculation 
| 14> ! DEFGRID2 # medium Grid
| 15> ! TightSCF # tight SCF criteria as basis for Geom.-Opt.
| 16> ! NormalOpt # normal convergence criteria for geometry optimizations
| 17> 
| 18> ! SmallPrint
| 19> 
| 20> 
| 21> * xyzFile 0 1 start.xyz # only maingroup elements H and Al so there should be no net spin
| 22> 
| 23>                          ****END OF INPUT****
================================================================================

                       *****************************
                       * Geometry Optimization Run *
                       *****************************

Geometry optimization settings:
Update method            Update   .... BFGS
Choice of coordinates    CoordSys .... (2022) Redundant Internals
Initial Hessian          InHess   .... Almloef's Model
Max. no of cycles        MaxIter  .... 180

Convergence Tolerances:
Energy Change            TolE     ....  5.0000e-06 Eh
Max. Gradient            TolMAXG  ....  3.0000e-04 Eh/bohr
RMS Gradient             TolRMSG  ....  1.0000e-04 Eh/bohr
Max. Displacement        TolMAXD  ....  4.0000e-03 bohr
RMS Displacement         TolRMSD  ....  2.0000e-03 bohr
Strict Convergence                .... False

------------------------------------------------------------------------------
                        ORCA OPTIMIZATION COORDINATE SETUP
------------------------------------------------------------------------------

The optimization will be done in redundant internal coordinates (2022)
Making redundant internal coordinates   ...  (2022 redundants) done
Evaluating the initial hessian          ...  (Almloef) done
Evaluating the coordinates              ...  done
Calculating the B-matrix                .... done
Calculating the G-matrix                .... done
The number of degrees of freedom        ....  894

    -----------------------------------------------------------------
                    Redundant Internal Coordinates


    -----------------------------------------------------------------
         Definition                    Initial Value    Approx d2E/dq
    -----------------------------------------------------------------
      1. B(Zr  2,Zr  1)                  3.4692         0.030816   
      2. B(Zr  3,Zr  0)                  3.4692         0.030816   
      3. B(Zr  4,Zr  3)                  3.4692         0.030816   
      4. B(Zr  4,Zr  1)                  3.4692         0.030816   
      5. B(Zr  5,Zr  0)                  3.4692         0.030816   
      6. B(Zr  5,Zr  2)                  3.4692         0.030816   
      7. B(O   6,Zr  0)                  2.2439         0.245821   
      8. B(O   6,Zr  3)                  2.0618         0.479956   
      9. B(O   6,Zr  5)                  2.0542         0.493501   
     10. B(O   7,Zr  4)                  2.0542         0.493501   
     11. B(O   7,Zr  1)                  2.2439         0.245821   
     12. B(O   7,Zr  2)                  2.0618         0.479956   
     13. B(O   8,Zr  5)                  2.0618         0.479944   
     14. B(O   8,Zr  2)                  2.2439         0.245823   
     15. B(O   8,Zr  1)                  2.0542         0.493491   
     16. B(O   9,Zr  4)                  2.0618         0.479944   
     17. B(O   9,Zr  3)                  2.2439         0.245823   
     18. B(O   9,Zr  0)                  2.0542         0.493491   
     19. B(O  10,Zr  3)                  2.0542         0.493502   
     20. B(O  10,Zr  4)                  2.2439         0.245815   
     21. B(O  10,Zr  1)                  2.0618         0.479951   
     22. B(O  11,Zr  5)                  2.2439         0.245815   
     23. B(O  11,Zr  2)                  2.0542         0.493502   
     24. B(O  11,Zr  0)                  2.0618         0.479951   
     25. B(O  12,Zr  0)                  2.1953         0.293892   
     26. B(O  13,Zr  0)                  2.2277         0.260920   
     27. B(O  14,Zr  0)                  2.2453         0.244598   
     28. B(O  15,Zr  0)                  2.2322         0.256684   
     29. B(O  16,Zr  1)                  2.2322         0.256684   
     30. B(O  17,Zr  1)                  2.2453         0.244598   
     31. B(O  18,Zr  1)                  2.2277         0.260920   
     32. B(O  19,Zr  1)                  2.1953         0.293892   
     33. B(O  20,Zr  2)                  2.2277         0.260913   
     34. B(O  21,Zr  2)                  2.2322         0.256686   
     35. B(O  22,Zr  2)                  2.1953         0.293894   
     36. B(O  23,Zr  2)                  2.2453         0.244602   
     37. B(O  24,Zr  3)                  2.2453         0.244602   
     38. B(O  25,Zr  3)                  2.1953         0.293894   
     39. B(O  26,Zr  3)                  2.2322         0.256686   
     40. B(O  27,Zr  3)                  2.2277         0.260913   
     41. B(O  28,Zr  4)                  2.1953         0.293884   
     42. B(O  29,Zr  4)                  2.2453         0.244604   
     43. B(O  30,Zr  4)                  2.2277         0.260914   
     44. B(O  31,Zr  4)                  2.2321         0.256695   
     45. B(O  32,Zr  5)                  2.2321         0.256695   
     46. B(O  33,Zr  5)                  2.2277         0.260914   
     47. B(O  34,Zr  5)                  2.2453         0.244604   
     48. B(O  35,Zr  5)                  2.1953         0.293884   
     49. B(C  36,O  33)                  1.2683         0.874946   
     50. B(C  36,O  12)                  1.2754         0.852417   
     51. B(C  37,O  25)                  1.2754         0.852398   
     52. B(C  37,O  13)                  1.2683         0.874980   
     53. B(C  38,O  21)                  1.2697         0.870572   
     54. B(C  38,O  14)                  1.2749         0.854086   
     55. B(C  39,O  29)                  1.2749         0.854091   
     56. B(C  39,O  15)                  1.2697         0.870591   
     57. B(C  40,O  34)                  1.2749         0.854091   
     58. B(C  40,O  16)                  1.2697         0.870591   
     59. B(C  41,O  26)                  1.2697         0.870572   
     60. B(C  41,O  17)                  1.2749         0.854086   
     61. B(C  42,O  22)                  1.2754         0.852398   
     62. B(C  42,O  18)                  1.2683         0.874980   
     63. B(C  43,O  19)                  1.2754         0.852417   
     64. B(C  43,O  30)                  1.2683         0.874946   
     65. B(C  44,O  35)                  1.2754         0.852413   
     66. B(C  44,O  20)                  1.2683         0.874984   
     67. B(C  45,O  31)                  1.2697         0.870560   
     68. B(C  45,O  23)                  1.2749         0.854064   
     69. B(C  46,O  32)                  1.2697         0.870560   
     70. B(C  46,O  24)                  1.2749         0.854064   
     71. B(C  47,O  28)                  1.2754         0.852413   
     72. B(C  47,O  27)                  1.2683         0.874984   
     73. B(H  48,C  41)                  1.0700         0.387551   
     74. B(H  49,C  42)                  1.0700         0.387543   
     75. B(H  50,C  38)                  1.0700         0.387551   
     76. B(H  51,C  37)                  1.0700         0.387543   
     77. B(H  52,C  43)                  1.0700         0.387554   
     78. B(H  53,C  47)                  1.0700         0.387558   
     79. B(H  54,C  39)                  1.0700         0.387553   
     80. B(H  55,C  45)                  1.0700         0.387559   
     81. B(H  56,C  40)                  1.0700         0.387553   
     82. B(H  57,C  46)                  1.0700         0.387559   
     83. B(H  58,C  36)                  1.0700         0.387554   
     84. B(H  59,C  44)                  1.0700         0.387558   
     85. A(O  13,Zr  0,O  14)          129.6501         0.391991   
     86. A(O  12,Zr  0,O  13)           76.8343         0.404847   
     87. A(O  12,Zr  0,O  15)          121.8042         0.403679   
     88. A(Zr  5,Zr  0,O  11)           38.1419         0.332635   
     89. A(Zr  3,Zr  0,Zr  5)           65.2159         0.235516   
     90. A(Zr  3,Zr  0,O  14)          153.8009         0.298162   
     91. A(Zr  5,Zr  0,O  15)          162.6468         0.300457   
     92. A(O  13,Zr  0,O  15)           79.4273         0.395316   
     93. A(O   6,Zr  0,O  13)           83.1407         0.392333   
     94. A(O   9,Zr  0,O  11)           96.7422         0.496692   
     95. A(Zr  3,Zr  0,O  11)           91.0727         0.332636   
     96. A(O   6,Zr  0,O  15)          141.8331         0.391211   
     97. A(O   9,Zr  0,O  14)          121.0530         0.439004   
     98. A(O  14,Zr  0,O  15)           70.1213         0.390870   
     99. A(Zr  5,Zr  0,O  13)          111.3873         0.301242   
    100. A(O  11,Zr  0,O  12)           86.7255         0.451565   
    101. A(Zr  5,Zr  0,O  14)          109.0751         0.298161   
    102. A(Zr  5,Zr  0,O  12)           74.8601         0.307036   
    103. A(O  11,Zr  0,O  15)          131.2585         0.440625   
    104. A(Zr  5,Zr  0,O   9)           91.0767         0.334174   
    105. A(O   6,Zr  0,O  11)           69.6409         0.437200   
    106. A(O   6,Zr  0,O  14)          143.1412         0.387930   
    107. A(Zr  3,Zr  0,O  13)           73.0183         0.301242   
    108. A(Zr  3,Zr  0,O  15)          107.4050         0.300457   
    109. A(O   9,Zr  0,O  15)           75.5899         0.442846   
    110. A(O  12,Zr  0,O  14)           86.2047         0.400262   
    111. A(Zr  3,Zr  0,O   6)           34.5747         0.298398   
    112. A(O   9,Zr  0,O  12)          152.4737         0.453855   
    113. A(O  11,Zr  0,O  13)          149.0937         0.441930   
    114. A(Zr  5,Zr  0,O   6)           34.3719         0.298397   
    115. A(Zr  3,Zr  0,O   9)           38.0756         0.334175   
    116. A(O  11,Zr  0,O  14)           73.9574         0.436807   
    117. A(O   6,Zr  0,O   9)           69.7691         0.439399   
    118. A(O   6,Zr  0,O  12)           86.1633         0.400614   
    119. A(O   9,Zr  0,O  13)           86.9001         0.444159   
    120. A(Zr  3,Zr  0,O  12)          114.8438         0.307037   
    121. A(Zr  4,Zr  1,O  19)           74.8601         0.307036   
    122. A(O   8,Zr  1,O  16)           75.5899         0.442846   
    123. A(O   7,Zr  1,O  18)           83.1407         0.392333   
    124. A(O  17,Zr  1,O  19)           86.2047         0.400262   
    125. A(O  16,Zr  1,O  17)           70.1213         0.390870   
    126. A(Zr  4,Zr  1,O  16)          162.6468         0.300457   
    127. A(Zr  4,Zr  1,O  10)           38.1419         0.332635   
    128. A(O   7,Zr  1,O  10)           69.6409         0.437200   
    129. A(O   8,Zr  1,O  10)           96.7422         0.496692   
    130. A(Zr  2,Zr  1,O   8)           38.0756         0.334175   
    131. A(Zr  4,Zr  1,O  18)          111.3873         0.301242   
    132. A(O  10,Zr  1,O  16)          131.2585         0.440625   
    133. A(O   7,Zr  1,O  17)          143.1412         0.387930   
    134. A(Zr  2,Zr  1,O  16)          107.4050         0.300457   
    135. A(O  10,Zr  1,O  17)           73.9574         0.436807   
    136. A(Zr  4,Zr  1,O  17)          109.0751         0.298161   
    137. A(O   8,Zr  1,O  18)           86.9001         0.444159   
    138. A(Zr  2,Zr  1,O  10)           91.0727         0.332636   
    139. A(O  17,Zr  1,O  18)          129.6501         0.391991   
    140. A(Zr  2,Zr  1,O  19)          114.8438         0.307037   
    141. A(O  10,Zr  1,O  18)          149.0937         0.441930   
    142. A(O  16,Zr  1,O  18)           79.4273         0.395316   
    143. A(O   7,Zr  1,O  19)           86.1633         0.400614   
    144. A(Zr  4,Zr  1,O   7)           34.3719         0.298397   
    145. A(O   8,Zr  1,O  17)          121.0530         0.439004   
    146. A(Zr  2,Zr  1,O  18)           73.0183         0.301242   
    147. A(Zr  4,Zr  1,O   8)           91.0767         0.334174   
    148. A(Zr  2,Zr  1,Zr  4)           65.2159         0.235516   
    149. A(O  18,Zr  1,O  19)           76.8343         0.404847   
    150. A(Zr  2,Zr  1,O   7)           34.5747         0.298398   
    151. A(O   7,Zr  1,O  16)          141.8331         0.391211   
    152. A(Zr  2,Zr  1,O  17)          153.8009         0.298162   
    153. A(O  10,Zr  1,O  19)           86.7255         0.451565   
    154. A(O   7,Zr  1,O   8)           69.7691         0.439399   
    155. A(O   8,Zr  1,O  19)          152.4737         0.453855   
    156. A(O  16,Zr  1,O  19)          121.8042         0.403679   
    157. A(O   8,Zr  2,O  20)           83.1405         0.392332   
    158. A(Zr  1,Zr  2,O  20)          111.3872         0.301241   
    159. A(Zr  5,Zr  2,O  11)           38.0757         0.334175   
    160. A(Zr  5,Zr  2,O   8)           34.5747         0.298398   
    161. A(O   7,Zr  2,O  23)           73.9576         0.436809   
    162. A(O  21,Zr  2,O  23)           70.1213         0.390872   
    163. A(O  22,Zr  2,O  23)           86.2046         0.400264   
    164. A(Zr  1,Zr  2,O   8)           34.3720         0.298398   
    165. A(O  11,Zr  2,O  23)          121.0532         0.439007   
    166. A(O   8,Zr  2,O  22)           86.1630         0.400615   
    167. A(O  11,Zr  2,O  22)          152.4736         0.453857   
    168. A(Zr  1,Zr  2,Zr  5)           65.2161         0.235515   
    169. A(Zr  1,Zr  2,O  21)          162.6474         0.300458   
    170. A(O   7,Zr  2,O   8)           69.6410         0.437201   
    171. A(O  20,Zr  2,O  23)          129.6498         0.391990   
    172. A(O   8,Zr  2,O  23)          143.1415         0.387932   
    173. A(Zr  5,Zr  2,O   7)           91.0729         0.332635   
    174. A(O   8,Zr  2,O  21)          141.8333         0.391212   
    175. A(Zr  5,Zr  2,O  23)          153.8014         0.298162   
    176. A(Zr  1,Zr  2,O  23)          109.0751         0.298162   
    177. A(O  21,Zr  2,O  22)          121.8038         0.403680   
    178. A(Zr  5,Zr  2,O  20)           73.0182         0.301240   
    179. A(Zr  5,Zr  2,O  22)          114.8435         0.307036   
    180. A(O   7,Zr  2,O  21)          131.2590         0.440626   
    181. A(Zr  1,Zr  2,O  22)           74.8599         0.307037   
    182. A(Zr  1,Zr  2,O  11)           91.0769         0.334176   
    183. A(O   7,Zr  2,O  11)           96.7424         0.496695   
    184. A(Zr  5,Zr  2,O  21)          107.4053         0.300457   
    185. A(O   8,Zr  2,O  11)           69.7693         0.439402   
    186. A(O  20,Zr  2,O  21)           79.4270         0.395315   
    187. A(O  11,Zr  2,O  20)           86.9002         0.444159   
    188. A(O   7,Zr  2,O  20)          149.0935         0.441928   
    189. A(Zr  1,Zr  2,O   7)           38.1418         0.332636   
    190. A(O  20,Zr  2,O  22)           76.8342         0.404845   
    191. A(O  11,Zr  2,O  21)           75.5902         0.442848   
    192. A(O   7,Zr  2,O  22)           86.7253         0.451566   
    193. A(O   6,Zr  3,O  10)           96.7424         0.496695   
    194. A(O   9,Zr  3,O  10)           69.7693         0.439402   
    195. A(Zr  4,Zr  3,O  10)           38.0757         0.334175   
    196. A(O  24,Zr  3,O  25)           86.2046         0.400264   
    197. A(O  26,Zr  3,O  27)           79.4270         0.395315   
    198. A(O   9,Zr  3,O  25)           86.1630         0.400615   
    199. A(Zr  0,Zr  3,O  27)          111.3872         0.301241   
    200. A(O  24,Zr  3,O  26)           70.1213         0.390872   
    201. A(O  25,Zr  3,O  27)           76.8342         0.404845   
    202. A(O  24,Zr  3,O  27)          129.6498         0.391990   
    203. A(O   9,Zr  3,O  27)           83.1405         0.392332   
    204. A(O   6,Zr  3,O  27)          149.0935         0.441928   
    205. A(Zr  4,Zr  3,O  27)           73.0182         0.301240   
    206. A(O  10,Zr  3,O  27)           86.9002         0.444159   
    207. A(O   9,Zr  3,O  26)          141.8333         0.391212   
    208. A(O  25,Zr  3,O  26)          121.8038         0.403680   
    209. A(O  10,Zr  3,O  26)           75.5902         0.442848   
    210. A(Zr  4,Zr  3,O   6)           91.0729         0.332635   
    211. A(O   6,Zr  3,O  26)          131.2590         0.440626   
    212. A(Zr  4,Zr  3,O  26)          107.4053         0.300457   
    213. A(Zr  0,Zr  3,O  26)          162.6474         0.300458   
    214. A(O   6,Zr  3,O   9)           69.6410         0.437201   
    215. A(O  10,Zr  3,O  25)          152.4736         0.453857   
    216. A(O   6,Zr  3,O  25)           86.7253         0.451566   
    217. A(Zr  4,Zr  3,O   9)           34.5747         0.298398   
    218. A(Zr  4,Zr  3,O  25)          114.8435         0.307036   
    219. A(Zr  0,Zr  3,O  25)           74.8599         0.307037   
    220. A(O  10,Zr  3,O  24)          121.0532         0.439007   
    221. A(O   9,Zr  3,O  24)          143.1415         0.387932   
    222. A(Zr  0,Zr  3,O   9)           34.3720         0.298398   
    223. A(O   6,Zr  3,O  24)           73.9576         0.436809   
    224. A(Zr  4,Zr  3,O  24)          153.8014         0.298162   
    225. A(Zr  0,Zr  3,O  24)          109.0751         0.298162   
    226. A(Zr  0,Zr  3,O  10)           91.0769         0.334176   
    227. A(Zr  0,Zr  3,O   6)           38.1418         0.332636   
    228. A(Zr  0,Zr  3,Zr  4)           65.2161         0.235515   
    229. A(Zr  1,Zr  4,Zr  3)           65.2160         0.235515   
    230. A(O   9,Zr  4,O  10)           69.6408         0.437197   
    231. A(O   7,Zr  4,O  10)           69.7691         0.439399   
    232. A(Zr  3,Zr  4,O  10)           34.3719         0.298396   
    233. A(O  10,Zr  4,O  28)           86.1630         0.400610   
    234. A(O   9,Zr  4,O  29)           73.9576         0.436808   
    235. A(O  28,Zr  4,O  30)           76.8341         0.404843   
    236. A(O  30,Zr  4,O  31)           79.4272         0.395318   
    237. A(O  29,Zr  4,O  31)           70.1216         0.390875   
    238. A(O   7,Zr  4,O  31)           75.5902         0.442851   
    239. A(O  28,Zr  4,O  31)          121.8040         0.403680   
    240. A(O  10,Zr  4,O  31)          141.8331         0.391212   
    241. A(O   9,Zr  4,O  31)          131.2593         0.440627   
    242. A(Zr  3,Zr  4,O  31)          162.6472         0.300459   
    243. A(Zr  1,Zr  4,O  31)          107.4051         0.300459   
    244. A(O  29,Zr  4,O  30)          129.6500         0.391991   
    245. A(O  10,Zr  4,O  30)           83.1406         0.392330   
    246. A(O   9,Zr  4,O  30)          149.0931         0.441927   
    247. A(O   7,Zr  4,O  30)           86.9003         0.444159   
    248. A(Zr  3,Zr  4,O  30)          111.3871         0.301241   
    249. A(Zr  1,Zr  4,O  30)           73.0182         0.301241   
    250. A(O  28,Zr  4,O  29)           86.2046         0.400262   
    251. A(O  10,Zr  4,O  29)          143.1412         0.387930   
    252. A(O   7,Zr  4,O  29)          121.0533         0.439008   
    253. A(Zr  3,Zr  4,O  29)          109.0751         0.298162   
    254. A(Zr  1,Zr  4,O  29)          153.8013         0.298162   
    255. A(O   9,Zr  4,O  28)           86.7250         0.451561   
    256. A(O   7,Zr  4,O  28)          152.4735         0.453854   
    257. A(Zr  3,Zr  4,O  28)           74.8598         0.307034   
    258. A(O   7,Zr  4,O   9)           96.7424         0.496692   
    259. A(Zr  1,Zr  4,O  28)          114.8435         0.307034   
    260. A(Zr  3,Zr  4,O   9)           38.1416         0.332634   
    261. A(Zr  1,Zr  4,O   9)           91.0728         0.332634   
    262. A(Zr  3,Zr  4,O   7)           91.0766         0.334175   
    263. A(Zr  1,Zr  4,O   7)           38.0755         0.334175   
    264. A(Zr  1,Zr  4,O  10)           34.5747         0.298396   
    265. A(O  11,Zr  5,O  35)           86.1630         0.400610   
    266. A(O  34,Zr  5,O  35)           86.2046         0.400262   
    267. A(O  33,Zr  5,O  35)           76.8341         0.404843   
    268. A(O  32,Zr  5,O  35)          121.8040         0.403680   
    269. A(O   8,Zr  5,O  35)           86.7250         0.451561   
    270. A(O   6,Zr  5,O  35)          152.4735         0.453854   
    271. A(Zr  2,Zr  5,O  35)           74.8598         0.307034   
    272. A(O  33,Zr  5,O  34)          129.6500         0.391991   
    273. A(O  32,Zr  5,O  34)           70.1216         0.390875   
    274. A(O  11,Zr  5,O  34)          143.1412         0.387930   
    275. A(Zr  0,Zr  5,O  35)          114.8435         0.307034   
    276. A(O  32,Zr  5,O  33)           79.4272         0.395318   
    277. A(O   6,Zr  5,O  34)          121.0533         0.439008   
    278. A(Zr  2,Zr  5,O  34)          109.0751         0.298162   
    279. A(Zr  0,Zr  5,O  34)          153.8013         0.298162   
    280. A(O  11,Zr  5,O  33)           83.1406         0.392330   
    281. A(O   8,Zr  5,O  33)          149.0931         0.441927   
    282. A(O   6,Zr  5,O  33)           86.9003         0.444159   
    283. A(Zr  0,Zr  5,O  33)           73.0182         0.301241   
    284. A(O  11,Zr  5,O  32)          141.8331         0.391212   
    285. A(O   8,Zr  5,O  32)          131.2593         0.440627   
    286. A(O   6,Zr  5,O  32)           75.5902         0.442851   
    287. A(Zr  2,Zr  5,O  32)          162.6472         0.300459   
    288. A(Zr  0,Zr  5,O  32)          107.4051         0.300459   
    289. A(Zr  2,Zr  5,O   6)           91.0766         0.334175   
    290. A(Zr  0,Zr  5,O   6)           38.0755         0.334175   
    291. A(Zr  0,Zr  5,Zr  2)           65.2160         0.235515   
    292. A(O   8,Zr  5,O  34)           73.9576         0.436808   
    293. A(O   8,Zr  5,O  11)           69.6408         0.437197   
    294. A(O   6,Zr  5,O  11)           69.7691         0.439399   
    295. A(Zr  2,Zr  5,O  11)           34.3719         0.298396   
    296. A(Zr  0,Zr  5,O  11)           34.5747         0.298396   
    297. A(O   6,Zr  5,O   8)           96.7424         0.496692   
    298. A(Zr  2,Zr  5,O  33)          111.3871         0.301241   
    299. A(Zr  2,Zr  5,O   8)           38.1416         0.332634   
    300. A(Zr  0,Zr  5,O   8)           91.0728         0.332634   
    301. A(Zr  3,O   6,Zr  5)          130.5720         0.496694   
    302. A(Zr  0,O   6,Zr  5)          107.5526         0.439401   
    303. A(Zr  0,O   6,Zr  3)          107.2836         0.437201   
    304. A(Zr  2,O   7,Zr  4)          130.5720         0.496694   
    305. A(Zr  1,O   7,Zr  4)          107.5526         0.439401   
    306. A(Zr  1,O   7,Zr  2)          107.2836         0.437201   
    307. A(Zr  1,O   8,Zr  2)          107.5524         0.439400   
    308. A(Zr  2,O   8,Zr  5)          107.2836         0.437200   
    309. A(Zr  1,O   8,Zr  5)          130.5719         0.496691   
    310. A(Zr  3,O   9,Zr  4)          107.2836         0.437200   
    311. A(Zr  0,O   9,Zr  4)          130.5719         0.496691   
    312. A(Zr  0,O   9,Zr  3)          107.5524         0.439400   
    313. A(Zr  3,O  10,Zr  4)          107.5525         0.439399   
    314. A(Zr  1,O  10,Zr  4)          107.2834         0.437198   
    315. A(Zr  1,O  10,Zr  3)          130.5723         0.496694   
    316. A(Zr  2,O  11,Zr  5)          107.5525         0.439399   
    317. A(Zr  0,O  11,Zr  5)          107.2834         0.437198   
    318. A(Zr  0,O  11,Zr  2)          130.5723         0.496694   
    319. A(Zr  0,O  12,C  36)          133.3073         0.445651   
    320. A(Zr  0,O  13,C  37)          134.6521         0.438232   
    321. A(Zr  0,O  14,C  38)          138.6324         0.431285   
    322. A(Zr  0,O  15,C  39)          131.7994         0.436545   
    323. A(Zr  1,O  16,C  40)          131.7994         0.436545   
    324. A(Zr  1,O  17,C  41)          138.6324         0.431285   
    325. A(Zr  1,O  18,C  42)          134.6521         0.438232   
    326. A(Zr  1,O  19,C  43)          133.3073         0.445651   
    327. A(Zr  2,O  20,C  44)          134.6523         0.438230   
    328. A(Zr  2,O  21,C  38)          131.7988         0.436543   
    329. A(Zr  2,O  22,C  42)          133.3072         0.445649   
    330. A(Zr  2,O  23,C  45)          138.6323         0.431284   
    331. A(Zr  3,O  24,C  46)          138.6323         0.431284   
    332. A(Zr  3,O  25,C  37)          133.3072         0.445649   
    333. A(Zr  3,O  26,C  41)          131.7988         0.436543   
    334. A(Zr  3,O  27,C  47)          134.6523         0.438230   
    335. A(Zr  4,O  28,C  47)          133.3073         0.445648   
    336. A(Zr  4,O  29,C  39)          138.6325         0.431288   
    337. A(Zr  4,O  30,C  43)          134.6520         0.438227   
    338. A(Zr  4,O  31,C  45)          131.7993         0.436545   
    339. A(Zr  5,O  32,C  46)          131.7993         0.436545   
    340. A(Zr  5,O  33,C  36)          134.6520         0.438227   
    341. A(Zr  5,O  34,C  40)          138.6325         0.431288   
    342. A(Zr  5,O  35,C  44)          133.3073         0.445648   
    343. A(O  12,C  36,O  33)          123.9899         0.483345   
    344. A(O  33,C  36,H  58)          118.0047         0.376704   
    345. A(O  12,C  36,H  58)          118.0054         0.375010   
    346. A(O  13,C  37,O  25)          123.9900         0.483347   
    347. A(O  25,C  37,H  51)          118.0050         0.375007   
    348. A(O  13,C  37,H  51)          118.0050         0.376705   
    349. A(O  14,C  38,O  21)          124.8994         0.483073   
    350. A(O  21,C  38,H  50)          117.5502         0.376377   
    351. A(O  14,C  38,H  50)          117.5504         0.375136   
    352. A(O  15,C  39,O  29)          124.8992         0.483075   
    353. A(O  29,C  39,H  54)          117.5506         0.375137   
    354. A(O  15,C  39,H  54)          117.5501         0.376379   
    355. A(O  16,C  40,O  34)          124.8992         0.483075   
    356. A(O  34,C  40,H  56)          117.5506         0.375137   
    357. A(O  16,C  40,H  56)          117.5501         0.376379   
    358. A(O  17,C  41,O  26)          124.8994         0.483073   
    359. A(O  26,C  41,H  48)          117.5502         0.376377   
    360. A(O  17,C  41,H  48)          117.5504         0.375136   
    361. A(O  18,C  42,O  22)          123.9900         0.483347   
    362. A(O  22,C  42,H  49)          118.0050         0.375007   
    363. A(O  18,C  42,H  49)          118.0050         0.376705   
    364. A(O  30,C  43,H  52)          118.0047         0.376704   
    365. A(O  19,C  43,H  52)          118.0054         0.375010   
    366. A(O  19,C  43,O  30)          123.9899         0.483345   
    367. A(O  35,C  44,H  59)          118.0051         0.375011   
    368. A(O  20,C  44,H  59)          118.0050         0.376707   
    369. A(O  20,C  44,O  35)          123.9898         0.483349   
    370. A(O  31,C  45,H  55)          117.5503         0.376378   
    371. A(O  23,C  45,H  55)          117.5508         0.375136   
    372. A(O  23,C  45,O  31)          124.8989         0.483069   
    373. A(O  32,C  46,H  57)          117.5503         0.376378   
    374. A(O  24,C  46,H  57)          117.5508         0.375136   
    375. A(O  24,C  46,O  32)          124.8989         0.483069   
    376. A(O  28,C  47,H  53)          118.0051         0.375011   
    377. A(O  27,C  47,H  53)          118.0050         0.376707   
    378. A(O  27,C  47,O  28)          123.9898         0.483349   
    379. D(O   7,Zr  2,Zr  1,O  10)    -50.1827         0.010000   
    380. D(Zr  5,Zr  2,Zr  1,O  19)    165.1215         0.010000   
    381. D(O   8,Zr  2,Zr  1,Zr  4)    128.5314         0.010000   
    382. D(O   7,Zr  2,Zr  1,O  19)     36.7054         0.010000   
    383. D(O   7,Zr  2,Zr  1,Zr  4)    -21.2359         0.010000   
    384. D(O   7,Zr  2,Zr  1,O  16)    175.6232         0.010000   
    385. D(Zr  5,Zr  2,Zr  1,O   8)    -21.3512         0.010000   
    386. D(Zr  5,Zr  2,Zr  1,Zr  4)    107.1802         0.010000   
    387. D(O   7,Zr  2,Zr  1,O  17)   -104.1672         0.010000   
    388. D(Zr  5,Zr  2,Zr  1,O  17)     24.2489         0.010000   
    389. D(O   7,Zr  2,Zr  1,O   8)   -149.7673         0.010000   
    390. D(Zr  5,Zr  2,Zr  1,O   7)    128.4161         0.010000   
    391. D(Zr  5,Zr  2,Zr  1,O  10)     78.2334         0.010000   
    392. D(O   7,Zr  2,Zr  1,O  18)    102.8877         0.010000   
    393. D(Zr  5,Zr  2,Zr  1,O  16)    -55.9607         0.010000   
    394. D(Zr  5,Zr  2,Zr  1,O  18)   -128.6962         0.010000   
    395. D(O   6,Zr  3,Zr  0,O  11)     50.1827         0.010000   
    396. D(O   6,Zr  3,Zr  0,O  13)   -102.8877         0.010000   
    397. D(O   6,Zr  3,Zr  0,Zr  5)     21.2359         0.010000   
    398. D(O   6,Zr  3,Zr  0,O  12)    -36.7054         0.010000   
    399. D(O   6,Zr  3,Zr  0,O   9)    149.7673         0.010000   
    400. D(O   9,Zr  3,Zr  0,Zr  5)   -128.5314         0.010000   
    401. D(Zr  4,Zr  3,Zr  0,O   6)   -128.4161         0.010000   
    402. D(Zr  4,Zr  3,Zr  0,O  11)    -78.2334         0.010000   
    403. D(Zr  4,Zr  3,Zr  0,Zr  5)   -107.1802         0.010000   
    404. D(Zr  4,Zr  3,Zr  0,O   9)     21.3512         0.010000   
    405. D(Zr  4,Zr  3,Zr  0,O  15)     55.9607         0.010000   
    406. D(Zr  4,Zr  3,Zr  0,O  13)    128.6962         0.010000   
    407. D(O   6,Zr  3,Zr  0,O  15)   -175.6232         0.010000   
    408. D(O   6,Zr  3,Zr  0,O  14)    104.1672         0.010000   
    409. D(Zr  4,Zr  3,Zr  0,O  12)   -165.1215         0.010000   
    410. D(Zr  4,Zr  3,Zr  0,O  14)    -24.2489         0.010000   
    411. D(O   7,Zr  4,Zr  3,O   6)     49.3842         0.010000   
    412. D(Zr  1,Zr  4,Zr  3,Zr  0)    107.1803         0.010000   
    413. D(O   7,Zr  4,Zr  3,O   9)     99.5669         0.010000   
    414. D(O   7,Zr  4,Zr  1,O  17)    173.7320         0.010000   
    415. D(Zr  3,Zr  4,Zr  1,O  18)   -165.4230         0.010000   
    416. D(Zr  1,Zr  4,Zr  3,O  27)   -128.6962         0.010000   
    417. D(Zr  1,Zr  4,Zr  3,O  10)    -21.3510         0.010000   
    418. D(O   7,Zr  4,Zr  3,O  24)     -4.6005         0.010000   
    419. D(Zr  1,Zr  4,Zr  3,O  25)    165.1217         0.010000   
    420. D(O   7,Zr  4,Zr  3,O  26)    -84.8106         0.010000   
    421. D(Zr  1,Zr  4,Zr  3,O  24)     24.2490         0.010000   
    422. D(O   9,Zr  4,Zr  1,Zr  2)    -78.2337         0.010000   
    423. D(O   7,Zr  4,Zr  3,O  10)    -50.2005         0.010000   
    424. D(Zr  3,Zr  4,Zr  1,O  16)    -39.0785         0.010000   
    425. D(O   7,Zr  4,Zr  1,O  16)     89.4526         0.010000   
    426. D(O   7,Zr  4,Zr  1,O  19)   -105.8301         0.010000   
    427. D(Zr  1,Zr  4,Zr  3,O  26)    -55.9611         0.010000   
    428. D(Zr  3,Zr  4,Zr  1,O  10)     21.2359         0.010000   
    429. D(O   7,Zr  4,Zr  1,O  10)    149.7669         0.010000   
    430. D(Zr  1,Zr  4,Zr  3,O   6)     78.2337         0.010000   
    431. D(O   7,Zr  4,Zr  3,O  25)    136.2721         0.010000   
    432. D(O   7,Zr  4,Zr  3,Zr  0)     78.3307         0.010000   
    433. D(O   7,Zr  4,Zr  1,O  18)    -36.8919         0.010000   
    434. D(Zr  3,Zr  4,Zr  1,Zr  2)   -107.1800         0.010000   
    435. D(Zr  3,Zr  4,Zr  1,O  17)     45.2009         0.010000   
    436. D(Zr  3,Zr  4,Zr  1,O  19)    125.6388         0.010000   
    437. D(O   7,Zr  4,Zr  1,O   8)     50.2005         0.010000   
    438. D(O   7,Zr  4,Zr  1,Zr  2)     21.3511         0.010000   
    439. D(Zr  3,Zr  4,Zr  1,O   8)    -78.3306         0.010000   
    440. D(Zr  1,Zr  4,Zr  3,O   9)    128.4164         0.010000   
    441. D(O   7,Zr  4,Zr  3,O  27)   -157.5457         0.010000   
    442. D(Zr  3,Zr  4,Zr  1,O   7)   -128.5311         0.010000   
    443. D(O   6,Zr  5,Zr  2,O  23)      4.6005         0.010000   
    444. D(O   6,Zr  5,Zr  2,O  22)   -136.2721         0.010000   
    445. D(O   6,Zr  5,Zr  2,O  20)    157.5457         0.010000   
    446. D(Zr  0,Zr  5,Zr  2,O  23)    -24.2490         0.010000   
    447. D(Zr  0,Zr  5,Zr  2,O  20)    128.6962         0.010000   
    448. D(Zr  0,Zr  5,Zr  2,O  22)   -165.1217         0.010000   
    449. D(O   6,Zr  5,Zr  2,Zr  1)    -78.3307         0.010000   
    450. D(O   6,Zr  5,Zr  2,O   7)    -49.3842         0.010000   
    451. D(O   6,Zr  5,Zr  2,O   8)    -99.5669         0.010000   
    452. D(Zr  0,Zr  5,Zr  2,O   7)    -78.2337         0.010000   
    453. D(O   8,Zr  5,Zr  0,Zr  3)     78.2337         0.010000   
    454. D(O   6,Zr  5,Zr  2,O  11)     50.2005         0.010000   
    455. D(O   6,Zr  5,Zr  0,O  12)    105.8301         0.010000   
    456. D(O   6,Zr  5,Zr  0,O  14)   -173.7320         0.010000   
    457. D(Zr  2,Zr  5,Zr  0,O   9)     78.3306         0.010000   
    458. D(Zr  2,Zr  5,Zr  0,O  15)     39.0785         0.010000   
    459. D(Zr  0,Zr  5,Zr  2,O   8)   -128.4164         0.010000   
    460. D(Zr  2,Zr  5,Zr  0,O  14)    -45.2009         0.010000   
    461. D(Zr  0,Zr  5,Zr  2,O  11)     21.3510         0.010000   
    462. D(Zr  0,Zr  5,Zr  2,O  21)     55.9611         0.010000   
    463. D(O   6,Zr  5,Zr  0,O   9)    -50.2005         0.010000   
    464. D(O   6,Zr  5,Zr  2,O  21)     84.8106         0.010000   
    465. D(O   6,Zr  5,Zr  0,Zr  3)    -21.3511         0.010000   
    466. D(Zr  2,Zr  5,Zr  0,O  12)   -125.6388         0.010000   
    467. D(Zr  0,Zr  5,Zr  2,Zr  1)   -107.1803         0.010000   
    468. D(Zr  2,Zr  5,Zr  0,Zr  3)    107.1800         0.010000   
    469. D(O   6,Zr  5,Zr  0,O  11)   -149.7669         0.010000   
    470. D(Zr  2,Zr  5,Zr  0,O  11)    -21.2359         0.010000   
    471. D(Zr  2,Zr  5,Zr  0,O   6)    128.5311         0.010000   
    472. D(O   6,Zr  5,Zr  0,O  13)     36.8919         0.010000   
    473. D(Zr  2,Zr  5,Zr  0,O  13)    165.4230         0.010000   
    474. D(O   6,Zr  5,Zr  0,O  15)    -89.4526         0.010000   
    475. D(Zr  3,O   6,Zr  5,O   8)     49.8392         0.010000   
    476. D(Zr  3,O   6,Zr  5,Zr  2)     87.6648         0.010000   
    477. D(Zr  3,O   6,Zr  5,Zr  0)    132.9277         0.010000   
    478. D(Zr  0,O   6,Zr  5,O  32)    145.9727         0.010000   
    479. D(Zr  0,O   6,Zr  3,O   9)     17.6503         0.010000   
    480. D(Zr  5,O   6,Zr  3,O   9)   -115.3680         0.010000   
    481. D(Zr  0,O   6,Zr  5,Zr  2)    -45.2629         0.010000   
    482. D(Zr  0,O   6,Zr  5,O   8)    -83.0885         0.010000   
    483. D(Zr  5,O   6,Zr  3,Zr  0)   -133.0183         0.010000   
    484. D(Zr  0,O   6,Zr  3,O  26)    159.8378         0.010000   
    485. D(Zr  0,O   6,Zr  5,O  35)     12.7875         0.010000   
    486. D(Zr  0,O   6,Zr  3,O  25)    -69.4687         0.010000   
    487. D(Zr  0,O   6,Zr  3,O  24)   -156.4571         0.010000   
    488. D(Zr  0,O   6,Zr  3,O  27)    -12.1351         0.010000   
    489. D(Zr  0,O   6,Zr  5,O  34)   -158.3955         0.010000   
    490. D(Zr  5,O   6,Zr  0,Zr  3)    144.3746         0.010000   
    491. D(Zr  5,O   6,Zr  3,Zr  4)    -87.6630         0.010000   
    492. D(Zr  0,O   6,Zr  5,O  11)    -17.7295         0.010000   
    493. D(Zr  3,O   6,Zr  0,O  14)   -134.4694         0.010000   
    494. D(Zr  3,O   6,Zr  0,O  15)      6.7676         0.010000   
    495. D(Zr  3,O   6,Zr  0,O  13)     69.8887         0.010000   
    496. D(Zr  3,O   6,Zr  0,O  12)    147.0705         0.010000   
    497. D(Zr  5,O   6,Zr  0,O  11)     19.3720         0.010000   
    498. D(Zr  3,O   6,Zr  0,O  11)   -125.0027         0.010000   
    499. D(Zr  5,O   6,Zr  0,O   9)    125.0492         0.010000   
    500. D(Zr  3,O   6,Zr  0,Zr  5)   -144.3746         0.010000   
    501. D(Zr  0,O   6,Zr  5,O  33)     66.0984         0.010000   
    502. D(Zr  3,O   6,Zr  0,O   9)    -19.3254         0.010000   
    503. D(Zr  0,O   6,Zr  3,O  10)     83.1133         0.010000   
    504. D(Zr  0,O   6,Zr  3,Zr  4)     45.3553         0.010000   
    505. D(Zr  2,O   7,Zr  1,Zr  4)    144.3746         0.010000   
    506. D(Zr  2,O   7,Zr  4,O   9)    -49.8392         0.010000   
    507. D(Zr  2,O   7,Zr  4,Zr  1)   -132.9277         0.010000   
    508. D(Zr  1,O   7,Zr  4,O  31)   -145.9727         0.010000   
    509. D(Zr  1,O   7,Zr  4,O  30)    -66.0984         0.010000   
    510. D(Zr  1,O   7,Zr  4,O  28)    -12.7875         0.010000   
    511. D(Zr  1,O   7,Zr  4,O  10)     17.7295         0.010000   
    512. D(Zr  1,O   7,Zr  4,O   9)     83.0885         0.010000   
    513. D(Zr  1,O   7,Zr  4,Zr  3)     45.2629         0.010000   
    514. D(Zr  4,O   7,Zr  2,O   8)    115.3680         0.010000   
    515. D(Zr  4,O   7,Zr  2,Zr  5)     87.6630         0.010000   
    516. D(Zr  4,O   7,Zr  2,Zr  1)    133.0183         0.010000   
    517. D(Zr  1,O   7,Zr  2,O  23)    156.4571         0.010000   
    518. D(Zr  1,O   7,Zr  2,O  22)     69.4687         0.010000   
    519. D(Zr  1,O   7,Zr  2,O  21)   -159.8378         0.010000   
    520. D(Zr  1,O   7,Zr  2,O  20)     12.1351         0.010000   
    521. D(Zr  1,O   7,Zr  2,O  11)    -83.1133         0.010000   
    522. D(Zr  1,O   7,Zr  2,O   8)    -17.6503         0.010000   
    523. D(Zr  4,O   7,Zr  1,O  10)    -19.3720         0.010000   
    524. D(Zr  4,O   7,Zr  1,Zr  2)   -144.3746         0.010000   
    525. D(Zr  2,O   7,Zr  1,O  19)   -147.0705         0.010000   
    526. D(Zr  2,O   7,Zr  1,O  18)    -69.8887         0.010000   
    527. D(Zr  4,O   7,Zr  1,O   8)   -125.0492         0.010000   
    528. D(Zr  1,O   7,Zr  4,O  29)    158.3955         0.010000   
    529. D(Zr  2,O   7,Zr  1,O  17)    134.4694         0.010000   
    530. D(Zr  2,O   7,Zr  1,O  16)     -6.7676         0.010000   
    531. D(Zr  2,O   7,Zr  1,O  10)    125.0027         0.010000   
    532. D(Zr  2,O   7,Zr  4,Zr  3)    -87.6648         0.010000   
    533. D(Zr  2,O   7,Zr  1,O   8)     19.3254         0.010000   
    534. D(Zr  1,O   7,Zr  2,Zr  5)    -45.3553         0.010000   
    535. D(Zr  2,O   8,Zr  5,O   6)     83.1128         0.010000   
    536. D(Zr  2,O   8,Zr  5,Zr  0)     45.3550         0.010000   
    537. D(Zr  1,O   8,Zr  5,O  35)    157.5132         0.010000   
    538. D(Zr  1,O   8,Zr  5,O  33)   -145.1535         0.010000   
    539. D(Zr  1,O   8,Zr  5,O  32)     26.8194         0.010000   
    540. D(Zr  1,O   8,Zr  5,O  11)   -115.3677         0.010000   
    541. D(Zr  1,O   8,Zr  5,O   6)    -49.9051         0.010000   
    542. D(Zr  1,O   8,Zr  5,Zr  2)   -133.0179         0.010000   
    543. D(Zr  1,O   8,Zr  5,Zr  0)    -87.6629         0.010000   
    544. D(Zr  5,O   8,Zr  2,O  11)    -19.3253         0.010000   
    545. D(Zr  5,O   8,Zr  2,Zr  1)   -144.3743         0.010000   
    546. D(Zr  1,O   8,Zr  2,O  23)      9.9042         0.010000   
    547. D(Zr  1,O   8,Zr  2,O  22)    -68.5551         0.010000   
    548. D(Zr  1,O   8,Zr  2,O  21)    151.1431         0.010000   
    549. D(Zr  1,O   8,Zr  2,O  20)   -145.7368         0.010000   
    550. D(Zr  1,O   8,Zr  2,O  11)    125.0490         0.010000   
    551. D(Zr  1,O   8,Zr  2,O   7)     19.3717         0.010000   
    552. D(Zr  5,O   8,Zr  2,O   7)   -125.0027         0.010000   
    553. D(Zr  1,O   8,Zr  2,Zr  5)    144.3743         0.010000   
    554. D(Zr  5,O   8,Zr  1,O   7)    115.1981         0.010000   
    555. D(Zr  5,O   8,Zr  1,Zr  4)     87.6647         0.010000   
    556. D(Zr  5,O   8,Zr  1,Zr  2)    132.9274         0.010000   
    557. D(Zr  2,O   8,Zr  1,O  19)     12.7884         0.010000   
    558. D(Zr  2,O   8,Zr  1,O  18)     66.0988         0.010000   
    559. D(Zr  2,O   8,Zr  1,O  17)   -158.3953         0.010000   
    560. D(Zr  1,O   8,Zr  5,O  34)     70.5246         0.010000   
    561. D(Zr  2,O   8,Zr  1,O  16)    145.9733         0.010000   
    562. D(Zr  2,O   8,Zr  1,O  10)    -83.0885         0.010000   
    563. D(Zr  2,O   8,Zr  1,O   7)    -17.7293         0.010000   
    564. D(Zr  2,O   8,Zr  1,Zr  4)    -45.2627         0.010000   
    565. D(Zr  3,O   9,Zr  4,O   7)    -83.1128         0.010000   
    566. D(Zr  0,O   9,Zr  4,O  31)    -26.8194         0.010000   
    567. D(Zr  0,O   9,Zr  4,O  30)    145.1535         0.010000   
    568. D(Zr  0,O   9,Zr  4,O  29)    -70.5246         0.010000   
    569. D(Zr  0,O   9,Zr  4,O  28)   -157.5132         0.010000   
    570. D(Zr  0,O   9,Zr  4,O  10)    115.3677         0.010000   
    571. D(Zr  0,O   9,Zr  4,O   7)     49.9051         0.010000   
    572. D(Zr  0,O   9,Zr  4,Zr  3)    133.0179         0.010000   
    573. D(Zr  4,O   9,Zr  3,O  10)     19.3253         0.010000   
    574. D(Zr  4,O   9,Zr  3,O   6)    125.0027         0.010000   
    575. D(Zr  4,O   9,Zr  3,Zr  0)    144.3743         0.010000   
    576. D(Zr  0,O   9,Zr  3,O  27)    145.7368         0.010000   
    577. D(Zr  0,O   9,Zr  3,O  26)   -151.1431         0.010000   
    578. D(Zr  0,O   9,Zr  3,O  25)     68.5551         0.010000   
    579. D(Zr  0,O   9,Zr  3,O  24)     -9.9042         0.010000   
    580. D(Zr  0,O   9,Zr  3,O  10)   -125.0490         0.010000   
    581. D(Zr  0,O   9,Zr  3,O   6)    -19.3717         0.010000   
    582. D(Zr  0,O   9,Zr  3,Zr  4)   -144.3743         0.010000   
    583. D(Zr  4,O   9,Zr  0,O   6)   -115.1981         0.010000   
    584. D(Zr  0,O   9,Zr  4,Zr  1)     87.6629         0.010000   
    585. D(Zr  4,O   9,Zr  0,Zr  5)    -87.6647         0.010000   
    586. D(Zr  4,O   9,Zr  0,Zr  3)   -132.9274         0.010000   
    587. D(Zr  3,O   9,Zr  0,O  15)   -145.9733         0.010000   
    588. D(Zr  3,O   9,Zr  0,O  14)    158.3953         0.010000   
    589. D(Zr  3,O   9,Zr  0,O  13)    -66.0988         0.010000   
    590. D(Zr  3,O   9,Zr  0,O  12)    -12.7884         0.010000   
    591. D(Zr  3,O   9,Zr  0,O  11)     83.0885         0.010000   
    592. D(Zr  3,O   9,Zr  4,Zr  1)    -45.3550         0.010000   
    593. D(Zr  3,O   9,Zr  0,O   6)     17.7293         0.010000   
    594. D(Zr  3,O   9,Zr  0,Zr  5)     45.2627         0.010000   
    595. D(Zr  3,O  10,Zr  4,O   9)     19.3716         0.010000   
    596. D(Zr  3,O  10,Zr  4,O   7)    125.0491         0.010000   
    597. D(Zr  3,O  10,Zr  4,Zr  1)    144.3747         0.010000   
    598. D(Zr  1,O  10,Zr  4,O  31)      6.7682         0.010000   
    599. D(Zr  1,O  10,Zr  4,O  30)     69.8888         0.010000   
    600. D(Zr  1,O  10,Zr  4,O  29)   -134.4701         0.010000   
    601. D(Zr  1,O  10,Zr  4,O  28)    147.0704         0.010000   
    602. D(Zr  1,O  10,Zr  4,O   7)    -19.3256         0.010000   
    603. D(Zr  1,O  10,Zr  4,Zr  3)   -144.3747         0.010000   
    604. D(Zr  4,O  10,Zr  3,O   6)    -83.0886         0.010000   
    605. D(Zr  1,O  10,Zr  3,O  27)   -160.9738         0.010000   
    606. D(Zr  1,O  10,Zr  3,O  26)    -81.0996         0.010000   
    607. D(Zr  1,O  10,Zr  3,O  25)    145.7157         0.010000   
    608. D(Zr  1,O  10,Zr  3,O  24)    -25.4681         0.010000   
    609. D(Zr  1,O  10,Zr  3,O   9)    115.1983         0.010000   
    610. D(Zr  1,O  10,Zr  3,O   6)     49.8390         0.010000   
    611. D(Zr  1,O  10,Zr  3,Zr  4)    132.9275         0.010000   
    612. D(Zr  4,O  10,Zr  3,Zr  0)    -45.2628         0.010000   
    613. D(Zr  1,O  10,Zr  3,Zr  0)     87.6647         0.010000   
    614. D(Zr  4,O  10,Zr  1,O   7)     17.6504         0.010000   
    615. D(Zr  4,O  10,Zr  1,Zr  2)     45.3554         0.010000   
    616. D(Zr  1,O  10,Zr  4,O   9)   -125.0032         0.010000   
    617. D(Zr  3,O  10,Zr  1,O  19)    157.5131         0.010000   
    618. D(Zr  3,O  10,Zr  1,O  18)   -145.1529         0.010000   
    619. D(Zr  3,O  10,Zr  1,O  17)     70.5245         0.010000   
    620. D(Zr  3,O  10,Zr  1,O  16)     26.8191         0.010000   
    621. D(Zr  3,O  10,Zr  1,O   8)    -49.9049         0.010000   
    622. D(Zr  3,O  10,Zr  1,O   7)   -115.3677         0.010000   
    623. D(Zr  3,O  10,Zr  1,Zr  4)   -133.0182         0.010000   
    624. D(Zr  3,O  10,Zr  1,Zr  2)    -87.6628         0.010000   
    625. D(Zr  2,O  11,Zr  0,O  15)    -26.8191         0.010000   
    626. D(Zr  2,O  11,Zr  0,O  14)    -70.5245         0.010000   
    627. D(Zr  2,O  11,Zr  0,O  13)    145.1529         0.010000   
    628. D(Zr  2,O  11,Zr  0,O  12)   -157.5131         0.010000   
    629. D(Zr  2,O  11,Zr  0,O   9)     49.9049         0.010000   
    630. D(Zr  2,O  11,Zr  0,O   6)    115.3677         0.010000   
    631. D(Zr  2,O  11,Zr  0,Zr  5)    133.0182         0.010000   
    632. D(Zr  5,O  11,Zr  0,Zr  3)    -45.3554         0.010000   
    633. D(Zr  2,O  11,Zr  0,Zr  3)     87.6628         0.010000   
    634. D(Zr  2,O  11,Zr  5,O   8)    -19.3716         0.010000   
    635. D(Zr  2,O  11,Zr  5,O   6)   -125.0491         0.010000   
    636. D(Zr  2,O  11,Zr  5,Zr  0)   -144.3747         0.010000   
    637. D(Zr  0,O  11,Zr  5,O  35)   -147.0704         0.010000   
    638. D(Zr  0,O  11,Zr  5,O  34)    134.4701         0.010000   
    639. D(Zr  0,O  11,Zr  5,O  32)     -6.7682         0.010000   
    640. D(Zr  0,O  11,Zr  5,O   8)    125.0032         0.010000   
    641. D(Zr  0,O  11,Zr  5,O   6)     19.3256         0.010000   
    642. D(Zr  0,O  11,Zr  5,Zr  2)    144.3747         0.010000   
    643. D(Zr  5,O  11,Zr  2,O   7)     83.0886         0.010000   
    644. D(Zr  5,O  11,Zr  2,Zr  1)     45.2628         0.010000   
    645. D(Zr  0,O  11,Zr  2,O  23)     25.4681         0.010000   
    646. D(Zr  0,O  11,Zr  2,O  22)   -145.7157         0.010000   
    647. D(Zr  0,O  11,Zr  2,O  21)     81.0996         0.010000   
    648. D(Zr  0,O  11,Zr  5,O  33)    -69.8888         0.010000   
    649. D(Zr  0,O  11,Zr  2,O  20)    160.9738         0.010000   
    650. D(Zr  0,O  11,Zr  2,O   8)   -115.1983         0.010000   
    651. D(Zr  0,O  11,Zr  2,O   7)    -49.8390         0.010000   
    652. D(Zr  0,O  11,Zr  2,Zr  5)   -132.9275         0.010000   
    653. D(Zr  0,O  11,Zr  2,Zr  1)    -87.6647         0.010000   
    654. D(Zr  5,O  11,Zr  0,O   6)    -17.6504         0.010000   
    655. D(C  36,O  12,Zr  0,O  15)   -174.4724         0.010000   
    656. D(C  36,O  12,Zr  0,O  14)   -110.7117         0.010000   
    657. D(C  36,O  12,Zr  0,O  13)    117.0451         0.010000   
    658. D(C  36,O  12,Zr  0,O  11)    -36.5912         0.010000   
    659. D(C  36,O  12,Zr  0,O   9)     61.7268         0.010000   
    660. D(C  36,O  12,Zr  0,O   6)     33.2015         0.010000   
    661. D(C  36,O  12,Zr  0,Zr  5)      0.2198         0.010000   
    662. D(C  36,O  12,Zr  0,Zr  3)     53.0750         0.010000   
    663. D(C  37,O  13,Zr  0,O  15)    107.6866         0.010000   
    664. D(C  37,O  13,Zr  0,O  14)    160.5343         0.010000   
    665. D(C  37,O  13,Zr  0,O  12)   -125.8540         0.010000   
    666. D(C  37,O  13,Zr  0,O  11)    -66.1825         0.010000   
    667. D(C  37,O  13,Zr  0,O   9)     31.7752         0.010000   
    668. D(C  37,O  13,Zr  0,O   6)    -38.2082         0.010000   
    669. D(C  37,O  13,Zr  0,Zr  5)    -58.1676         0.010000   
    670. D(C  37,O  13,Zr  0,Zr  3)     -4.3478         0.010000   
    671. D(C  38,O  14,Zr  0,O  15)   -144.1863         0.010000   
    672. D(C  38,O  14,Zr  0,O  13)    159.3906         0.010000   
    673. D(C  38,O  14,Zr  0,O  12)     89.9664         0.010000   
    674. D(C  38,O  14,Zr  0,O  11)      2.2869         0.010000   
    675. D(C  38,O  14,Zr  0,O   9)    -85.9628         0.010000   
    676. D(C  38,O  14,Zr  0,O   6)     11.5199         0.010000   
    677. D(C  38,O  14,Zr  0,Zr  5)     17.4179         0.010000   
    678. D(C  38,O  14,Zr  0,Zr  3)    -55.0105         0.010000   
    679. D(C  39,O  15,Zr  0,O  14)     99.8813         0.010000   
    680. D(C  39,O  15,Zr  0,O  13)   -120.8538         0.010000   
    681. D(C  39,O  15,Zr  0,O  12)    172.0002         0.010000   
    682. D(C  39,O  15,Zr  0,O  11)     54.9615         0.010000   
    683. D(C  39,O  15,Zr  0,O   9)    -31.3602         0.010000   
    684. D(C  39,O  15,Zr  0,O   6)    -56.5805         0.010000   
    685. D(C  39,O  15,Zr  0,Zr  5)      9.4208         0.010000   
    686. D(C  39,O  15,Zr  0,Zr  3)    -52.5619         0.010000   
    687. D(C  40,O  16,Zr  1,O  19)   -172.0002         0.010000   
    688. D(C  40,O  16,Zr  1,O  18)    120.8538         0.010000   
    689. D(C  40,O  16,Zr  1,O  17)    -99.8813         0.010000   
    690. D(C  40,O  16,Zr  1,O  10)    -54.9615         0.010000   
    691. D(C  40,O  16,Zr  1,O   8)     31.3602         0.010000   
    692. D(C  40,O  16,Zr  1,O   7)     56.5805         0.010000   
    693. D(C  40,O  16,Zr  1,Zr  4)     -9.4208         0.010000   
    694. D(C  40,O  16,Zr  1,Zr  2)     52.5619         0.010000   
    695. D(C  41,O  17,Zr  1,O  19)    -89.9664         0.010000   
    696. D(C  41,O  17,Zr  1,O  18)   -159.3906         0.010000   
    697. D(C  41,O  17,Zr  1,O  16)    144.1863         0.010000   
    698. D(C  41,O  17,Zr  1,O  10)     -2.2869         0.010000   
    699. D(C  41,O  17,Zr  1,O   8)     85.9628         0.010000   
    700. D(C  41,O  17,Zr  1,O   7)    -11.5199         0.010000   
    701. D(C  41,O  17,Zr  1,Zr  4)    -17.4179         0.010000   
    702. D(C  41,O  17,Zr  1,Zr  2)     55.0105         0.010000   
    703. D(C  42,O  18,Zr  1,O  19)    125.8540         0.010000   
    704. D(C  42,O  18,Zr  1,O  17)   -160.5343         0.010000   
    705. D(C  42,O  18,Zr  1,O  16)   -107.6866         0.010000   
    706. D(C  42,O  18,Zr  1,O  10)     66.1825         0.010000   
    707. D(C  42,O  18,Zr  1,O   8)    -31.7752         0.010000   
    708. D(C  42,O  18,Zr  1,O   7)     38.2082         0.010000   
    709. D(C  42,O  18,Zr  1,Zr  4)     58.1676         0.010000   
    710. D(C  42,O  18,Zr  1,Zr  2)      4.3478         0.010000   
    711. D(C  43,O  19,Zr  1,O  18)   -117.0451         0.010000   
    712. D(C  43,O  19,Zr  1,O  17)    110.7117         0.010000   
    713. D(C  43,O  19,Zr  1,O  16)    174.4724         0.010000   
    714. D(C  43,O  19,Zr  1,O  10)     36.5912         0.010000   
    715. D(C  43,O  19,Zr  1,O   8)    -61.7268         0.010000   
    716. D(C  43,O  19,Zr  1,O   7)    -33.2015         0.010000   
    717. D(C  43,O  19,Zr  1,Zr  4)     -0.2198         0.010000   
    718. D(C  43,O  19,Zr  1,Zr  2)    -53.0750         0.010000   
    719. D(C  44,O  20,Zr  2,O  23)    160.5347         0.010000   
    720. D(C  44,O  20,Zr  2,O  22)   -125.8539         0.010000   
    721. D(C  44,O  20,Zr  2,O  21)    107.6870         0.010000   
    722. D(C  44,O  20,Zr  2,O  11)     31.7752         0.010000   
    723. D(C  44,O  20,Zr  2,O   8)    -38.2084         0.010000   
    724. D(C  44,O  20,Zr  2,O   7)    -66.1828         0.010000   
    725. D(C  44,O  20,Zr  2,Zr  5)     -4.3478         0.010000   
    726. D(C  44,O  20,Zr  2,Zr  1)    -58.1677         0.010000   
    727. D(C  38,O  21,Zr  2,O  23)     99.8812         0.010000   
    728. D(C  38,O  21,Zr  2,O  22)    172.0001         0.010000   
    729. D(C  38,O  21,Zr  2,O  20)   -120.8541         0.010000   
    730. D(C  38,O  21,Zr  2,O  11)    -31.3605         0.010000   
    731. D(C  38,O  21,Zr  2,O   8)    -56.5819         0.010000   
    732. D(C  38,O  21,Zr  2,O   7)     54.9616         0.010000   
    733. D(C  38,O  21,Zr  2,Zr  5)    -52.5625         0.010000   
    734. D(C  38,O  21,Zr  2,Zr  1)      9.4208         0.010000   
    735. D(C  42,O  22,Zr  2,O  23)   -110.7121         0.010000   
    736. D(C  42,O  22,Zr  2,O  21)   -174.4729         0.010000   
    737. D(C  42,O  22,Zr  2,O  20)    117.0448         0.010000   
    738. D(C  42,O  22,Zr  2,O  11)     61.7265         0.010000   
    739. D(C  42,O  22,Zr  2,O   8)     33.2014         0.010000   
    740. D(C  42,O  22,Zr  2,O   7)    -36.5915         0.010000   
    741. D(C  42,O  22,Zr  2,Zr  5)     53.0749         0.010000   
    742. D(C  42,O  22,Zr  2,Zr  1)      0.2195         0.010000   
    743. D(C  45,O  23,Zr  2,O  22)     89.9664         0.010000   
    744. D(C  45,O  23,Zr  2,O  21)   -144.1867         0.010000   
    745. D(C  45,O  23,Zr  2,O  20)    159.3903         0.010000   
    746. D(C  45,O  23,Zr  2,O  11)    -85.9629         0.010000   
    747. D(C  45,O  23,Zr  2,O   8)     11.5207         0.010000   
    748. D(C  45,O  23,Zr  2,O   7)      2.2871         0.010000   
    749. D(C  45,O  23,Zr  2,Zr  5)    -55.0105         0.010000   
    750. D(C  45,O  23,Zr  2,Zr  1)     17.4181         0.010000   
    751. D(C  46,O  24,Zr  3,O  27)   -159.3903         0.010000   
    752. D(C  46,O  24,Zr  3,O  26)    144.1867         0.010000   
    753. D(C  46,O  24,Zr  3,O  25)    -89.9664         0.010000   
    754. D(C  46,O  24,Zr  3,O  10)     85.9629         0.010000   
    755. D(C  46,O  24,Zr  3,O   9)    -11.5207         0.010000   
    756. D(C  46,O  24,Zr  3,O   6)     -2.2871         0.010000   
    757. D(C  46,O  24,Zr  3,Zr  4)     55.0105         0.010000   
    758. D(C  46,O  24,Zr  3,Zr  0)    -17.4181         0.010000   
    759. D(C  37,O  25,Zr  3,O  27)   -117.0448         0.010000   
    760. D(C  37,O  25,Zr  3,O  26)    174.4729         0.010000   
    761. D(C  37,O  25,Zr  3,O  24)    110.7121         0.010000   
    762. D(C  37,O  25,Zr  3,O  10)    -61.7265         0.010000   
    763. D(C  37,O  25,Zr  3,O   9)    -33.2014         0.010000   
    764. D(C  37,O  25,Zr  3,O   6)     36.5915         0.010000   
    765. D(C  37,O  25,Zr  3,Zr  4)    -53.0749         0.010000   
    766. D(C  37,O  25,Zr  3,Zr  0)     -0.2195         0.010000   
    767. D(C  41,O  26,Zr  3,O  27)    120.8541         0.010000   
    768. D(C  41,O  26,Zr  3,O  25)   -172.0001         0.010000   
    769. D(C  41,O  26,Zr  3,O  24)    -99.8812         0.010000   
    770. D(C  41,O  26,Zr  3,O  10)     31.3605         0.010000   
    771. D(C  41,O  26,Zr  3,O   9)     56.5819         0.010000   
    772. D(C  41,O  26,Zr  3,O   6)    -54.9616         0.010000   
    773. D(C  41,O  26,Zr  3,Zr  4)     52.5625         0.010000   
    774. D(C  41,O  26,Zr  3,Zr  0)     -9.4208         0.010000   
    775. D(C  47,O  27,Zr  3,O  26)   -107.6870         0.010000   
    776. D(C  47,O  27,Zr  3,O  25)    125.8539         0.010000   
    777. D(C  47,O  27,Zr  3,O  24)   -160.5347         0.010000   
    778. D(C  47,O  27,Zr  3,O  10)    -31.7752         0.010000   
    779. D(C  47,O  27,Zr  3,O   9)     38.2084         0.010000   
    780. D(C  47,O  27,Zr  3,O   6)     66.1828         0.010000   
    781. D(C  47,O  27,Zr  3,Zr  4)      4.3478         0.010000   
    782. D(C  47,O  27,Zr  3,Zr  0)     58.1677         0.010000   
    783. D(C  47,O  28,Zr  4,O  31)   -174.4732         0.010000   
    784. D(C  47,O  28,Zr  4,O  30)    117.0445         0.010000   
    785. D(C  47,O  28,Zr  4,O  29)   -110.7122         0.010000   
    786. D(C  47,O  28,Zr  4,O  10)     33.2010         0.010000   
    787. D(C  47,O  28,Zr  4,O   9)    -36.5916         0.010000   
    788. D(C  47,O  28,Zr  4,O   7)     61.7257         0.010000   
    789. D(C  47,O  28,Zr  4,Zr  3)      0.2193         0.010000   
    790. D(C  47,O  28,Zr  4,Zr  1)     53.0746         0.010000   
    791. D(C  39,O  29,Zr  4,O  31)   -144.1865         0.010000   
    792. D(C  39,O  29,Zr  4,O  30)    159.3902         0.010000   
    793. D(C  39,O  29,Zr  4,O  28)     89.9664         0.010000   
    794. D(C  39,O  29,Zr  4,O  10)     11.5205         0.010000   
    795. D(C  39,O  29,Zr  4,O   9)      2.2874         0.010000   
    796. D(C  39,O  29,Zr  4,O   7)    -85.9625         0.010000   
    797. D(C  39,O  29,Zr  4,Zr  3)     17.4181         0.010000   
    798. D(C  39,O  29,Zr  4,Zr  1)    -55.0102         0.010000   
    799. D(C  43,O  30,Zr  4,O  31)    107.6868         0.010000   
    800. D(C  43,O  30,Zr  4,O  29)    160.5348         0.010000   
    801. D(C  43,O  30,Zr  4,O  28)   -125.8539         0.010000   
    802. D(C  43,O  30,Zr  4,O  10)    -38.2083         0.010000   
    803. D(C  43,O  30,Zr  4,O   9)    -66.1832         0.010000   
    804. D(C  43,O  30,Zr  4,O   7)     31.7750         0.010000   
    805. D(C  43,O  30,Zr  4,Zr  3)    -58.1677         0.010000   
    806. D(C  43,O  30,Zr  4,Zr  1)     -4.3478         0.010000   
    807. D(C  45,O  31,Zr  4,O  30)   -120.8540         0.010000   
    808. D(C  45,O  31,Zr  4,O  29)     99.8813         0.010000   
    809. D(C  45,O  31,Zr  4,O  28)    172.0003         0.010000   
    810. D(C  45,O  31,Zr  4,O  10)    -56.5813         0.010000   
    811. D(C  45,O  31,Zr  4,O   9)     54.9617         0.010000   
    812. D(C  45,O  31,Zr  4,O   7)    -31.3603         0.010000   
    813. D(C  45,O  31,Zr  4,Zr  3)      9.4203         0.010000   
    814. D(C  45,O  31,Zr  4,Zr  1)    -52.5623         0.010000   
    815. D(C  46,O  32,Zr  5,O  35)   -172.0003         0.010000   
    816. D(C  46,O  32,Zr  5,O  34)    -99.8813         0.010000   
    817. D(C  46,O  32,Zr  5,O  33)    120.8540         0.010000   
    818. D(C  46,O  32,Zr  5,O  11)     56.5813         0.010000   
    819. D(C  46,O  32,Zr  5,O   8)    -54.9617         0.010000   
    820. D(C  46,O  32,Zr  5,O   6)     31.3603         0.010000   
    821. D(C  46,O  32,Zr  5,Zr  2)     -9.4203         0.010000   
    822. D(C  46,O  32,Zr  5,Zr  0)     52.5623         0.010000   
    823. D(C  36,O  33,Zr  5,O  35)    125.8539         0.010000   
    824. D(C  36,O  33,Zr  5,O  34)   -160.5348         0.010000   
    825. D(C  36,O  33,Zr  5,O  32)   -107.6868         0.010000   
    826. D(C  36,O  33,Zr  5,O  11)     38.2083         0.010000   
    827. D(C  36,O  33,Zr  5,O   8)     66.1832         0.010000   
    828. D(C  36,O  33,Zr  5,O   6)    -31.7750         0.010000   
    829. D(C  36,O  33,Zr  5,Zr  2)     58.1677         0.010000   
    830. D(C  36,O  33,Zr  5,Zr  0)      4.3478         0.010000   
    831. D(C  40,O  34,Zr  5,O  35)    -89.9664         0.010000   
    832. D(C  40,O  34,Zr  5,O  33)   -159.3902         0.010000   
    833. D(C  40,O  34,Zr  5,O  32)    144.1865         0.010000   
    834. D(C  40,O  34,Zr  5,O  11)    -11.5205         0.010000   
    835. D(C  40,O  34,Zr  5,O   8)     -2.2874         0.010000   
    836. D(C  40,O  34,Zr  5,O   6)     85.9625         0.010000   
    837. D(C  40,O  34,Zr  5,Zr  2)    -17.4181         0.010000   
    838. D(C  40,O  34,Zr  5,Zr  0)     55.0102         0.010000   
    839. D(C  44,O  35,Zr  5,O  34)    110.7122         0.010000   
    840. D(C  44,O  35,Zr  5,O  33)   -117.0445         0.010000   
    841. D(C  44,O  35,Zr  5,O  32)    174.4732         0.010000   
    842. D(C  44,O  35,Zr  5,O  11)    -33.2010         0.010000   
    843. D(C  44,O  35,Zr  5,O   8)     36.5916         0.010000   
    844. D(C  44,O  35,Zr  5,O   6)    -61.7257         0.010000   
    845. D(C  44,O  35,Zr  5,Zr  2)     -0.2193         0.010000   
    846. D(C  44,O  35,Zr  5,Zr  0)    -53.0746         0.010000   
    847. D(H  58,C  36,O  33,Zr  5)    174.1825         0.060351   
    848. D(O  12,C  36,O  33,Zr  5)     -5.8168         0.060351   
    849. D(H  58,C  36,O  12,Zr  0)   -177.3812         0.056892   
    850. D(O  33,C  36,O  12,Zr  0)      2.6182         0.056892   
    851. D(H  51,C  37,O  25,Zr  3)    177.3813         0.056889   
    852. D(O  13,C  37,O  25,Zr  3)     -2.6187         0.056889   
    853. D(H  51,C  37,O  13,Zr  0)   -174.1828         0.060356   
    854. D(O  25,C  37,O  13,Zr  0)      5.8171         0.060356   
    855. D(H  50,C  38,O  21,Zr  2)    174.0328         0.059669   
    856. D(O  14,C  38,O  21,Zr  2)     -5.9675         0.059669   
    857. D(H  50,C  38,O  14,Zr  0)   -152.1614         0.057143   
    858. D(O  21,C  38,O  14,Zr  0)     27.8389         0.057143   
    859. D(H  54,C  39,O  29,Zr  4)   -152.1618         0.057144   
    860. D(O  15,C  39,O  29,Zr  4)     27.8389         0.057144   
    861. D(H  54,C  39,O  15,Zr  0)    174.0327         0.059672   
    862. D(O  29,C  39,O  15,Zr  0)     -5.9680         0.059672   
    863. D(H  56,C  40,O  34,Zr  5)    152.1618         0.057144   
    864. D(O  16,C  40,O  34,Zr  5)    -27.8389         0.057144   
    865. D(H  56,C  40,O  16,Zr  1)   -174.0327         0.059672   
    866. D(O  34,C  40,O  16,Zr  1)      5.9680         0.059672   
    867. D(H  48,C  41,O  26,Zr  3)   -174.0328         0.059669   
    868. D(O  17,C  41,O  26,Zr  3)      5.9675         0.059669   
    869. D(H  48,C  41,O  17,Zr  1)    152.1614         0.057143   
    870. D(O  26,C  41,O  17,Zr  1)    -27.8389         0.057143   
    871. D(H  49,C  42,O  22,Zr  2)   -177.3813         0.056889   
    872. D(O  18,C  42,O  22,Zr  2)      2.6187         0.056889   
    873. D(H  49,C  42,O  18,Zr  1)    174.1828         0.060356   
    874. D(O  22,C  42,O  18,Zr  1)     -5.8171         0.060356   
    875. D(H  52,C  43,O  30,Zr  4)   -174.1825         0.060351   
    876. D(O  19,C  43,O  30,Zr  4)      5.8168         0.060351   
    877. D(H  52,C  43,O  19,Zr  1)    177.3812         0.056892   
    878. D(O  30,C  43,O  19,Zr  1)     -2.6182         0.056892   
    879. D(H  59,C  44,O  35,Zr  5)    177.3815         0.056891   
    880. D(O  20,C  44,O  35,Zr  5)     -2.6189         0.056891   
    881. D(H  59,C  44,O  20,Zr  2)   -174.1832         0.060357   
    882. D(O  35,C  44,O  20,Zr  2)      5.8172         0.060357   
    883. D(H  55,C  45,O  31,Zr  4)    174.0330         0.059667   
    884. D(O  23,C  45,O  31,Zr  4)     -5.9679         0.059667   
    885. D(H  55,C  45,O  23,Zr  2)   -152.1618         0.057140   
    886. D(O  31,C  45,O  23,Zr  2)     27.8391         0.057140   
    887. D(O  24,C  46,O  32,Zr  5)      5.9679         0.059667   
    888. D(H  57,C  46,O  24,Zr  3)    152.1618         0.057140   
    889. D(O  32,C  46,O  24,Zr  3)    -27.8391         0.057140   
    890. D(H  57,C  46,O  32,Zr  5)   -174.0330         0.059667   
    891. D(H  53,C  47,O  28,Zr  4)   -177.3815         0.056891   
    892. D(O  27,C  47,O  28,Zr  4)      2.6189         0.056891   
    893. D(H  53,C  47,O  27,Zr  3)    174.1832         0.060357   
    894. D(O  28,C  47,O  27,Zr  3)     -5.8172         0.060357   
    -----------------------------------------------------------------

Number of atoms                         .... 60
Number of degrees of freedom            .... 894


         *************************************************************
         *                GEOMETRY OPTIMIZATION CYCLE   1            *
         *************************************************************
---------------------------------
CARTESIAN COORDINATES (ANGSTROEM)
---------------------------------
  Zr    -0.183400    2.052920    1.501920
  Zr     0.183400   -2.052920   -1.501920
  Zr     1.746340   -1.149360    1.460520
  Zr    -1.746340    1.149360   -1.460520
  Zr     1.720240    1.056780   -1.558160
  Zr    -1.720240   -1.056780    1.558160
  O     -1.739040    0.738470    0.559900
  O      1.739040   -0.738470   -0.559900
  O     -0.149100   -1.895110    0.519060
  O      0.149100    1.895110   -0.519060
  O     -0.174860   -0.075150   -1.961340
  O      0.174860    0.075150    1.961340
  O     -1.495150    2.093380    3.261760
  O     -1.637170    3.668850    1.014110
  O      1.524040    2.054060    2.959980
  O      1.211680    3.731880    1.035710
  O     -1.211680   -3.731880   -1.035710
  O     -1.524040   -2.054060   -2.959980
  O      1.637170   -3.668850   -1.014110
  O      1.495150   -2.093380   -3.261760
  O      1.107810   -2.456690    3.147480
  O      2.495090    0.031890    3.200210
  O      2.602390   -3.100730    0.932610
  O      3.771940   -0.301330    0.992480
  O     -3.771940    0.301330   -0.992480
  O     -2.602390    3.100730   -0.932610
  O     -2.495090   -0.031890   -3.200210
  O     -1.107810    2.456690   -3.147480
  O      1.133590    2.345330   -3.235920
  O      2.531200    2.920750   -0.604630
  O      2.453150   -0.063490   -3.338750
  O      3.860050    0.754250   -0.999460
  O     -3.860050   -0.754250    0.999460
  O     -2.453150    0.063490    3.338750
  O     -2.531200   -2.920750    0.604630
  O     -1.133590   -2.345330    3.235920
  C     -2.291120    1.241750    3.779350
[...]
156:   1564.51   0.000000    0.00  0.000000  (-0.000000  0.000000 -0.000000)
157:   1575.10   0.000930    4.70  0.000184  ( 0.011816  0.005413  0.003915)
158:   1584.00   0.003267   16.51  0.000644  ( 0.002943  0.012083 -0.022113)
159:   1584.21   0.003379   17.08  0.000666  ( 0.013881 -0.020013 -0.008513)
160:   1590.81   0.000000    0.00  0.000000  (-0.000000  0.000000 -0.000000)
161:   1596.73   0.000000    0.00  0.000000  ( 0.000000 -0.000000  0.000000)
162:   1597.37   0.000000    0.00  0.000000  ( 0.000000 -0.000000  0.000000)
163:   1651.15   0.333755  1686.66  0.063079  ( 0.129438 -0.214036 -0.022662)
164:   1651.64   0.337597  1706.08  0.063786  ( 0.071931  0.067327 -0.232550)
165:   1655.94   0.273262  1380.95  0.051497  (-0.183451 -0.100814 -0.087630)
166:   1656.97   0.000000    0.00  0.000000  ( 0.000004  0.000002  0.000003)
167:   1657.35   0.000000    0.00  0.000000  (-0.000006 -0.000003 -0.000004)
168:   2951.77   0.029303  148.09  0.003098  ( 0.015774  0.051625 -0.013566)
169:   2951.81   0.000000    0.00  0.000000  (-0.000005 -0.000015  0.000005)
170:   2953.05   0.000000    0.00  0.000000  (-0.000001  0.000016  0.000028)
171:   2953.07   0.022928  115.87  0.002423  (-0.011316  0.022091  0.042507)
172:   2954.01   0.069452  350.98  0.007337  (-0.075946 -0.024062 -0.031469)
173:   2954.65   0.000000    0.00  0.000000  (-0.000004 -0.000000  0.000000)
174:   2968.07   0.000664    3.36  0.000070  (-0.003542 -0.000375 -0.007559)
175:   2968.28   0.000000    0.00  0.000000  ( 0.000001 -0.000000 -0.000001)
176:   2968.38   0.000000    0.00  0.000000  (-0.000001  0.000000  0.000002)
177:   2968.92   0.065017  328.57  0.006834  ( 0.048527 -0.045530 -0.049053)
178:   2969.02   0.064250  324.69  0.006753  ( 0.007663 -0.056088  0.059569)
179:   2970.31   0.000000    0.00  0.000000  ( 0.000001 -0.000001 -0.000001)

* The epsilon (eps) is given for a Dirac delta lineshape.
** The dipole moment derivative (T) already includes vibrational overlap.

The first frequency considered to be a vibration is 6
The total number of vibrations considered is 174


--------------------------
THERMOCHEMISTRY AT 298.15K
--------------------------

Temperature         ...   298.15 K
Pressure            ...     1.00 atm
Total Mass          ...  1183.52 AMU
Quasi RRHO          ...     True
Cut-Off Frequency   ...     1.00 cm^-1

Throughout the following assumptions are being made:
  (1) The electronic state is orbitally nondegenerate
  (2) There are no thermally accessible electronically excited states
  (3) Hindered rotations indicated by low frequency modes are not
      treated as such but are treated as vibrations and this may
      cause some error
  (4) All equations used are the standard statistical mechanics
      equations for an ideal gas
  (5) All vibrations are strictly harmonic

freq.      40.13  E(vib)   ...       0.54 
freq.      43.07  E(vib)   ...       0.53 
freq.      55.88  E(vib)   ...       0.52 
freq.      58.70  E(vib)   ...       0.51 
freq.      62.62  E(vib)   ...       0.51 
freq.      66.80  E(vib)   ...       0.50 
freq.      80.21  E(vib)   ...       0.49 
freq.      81.63  E(vib)   ...       0.48 
freq.      95.43  E(vib)   ...       0.47 
freq.      96.25  E(vib)   ...       0.47 
freq.      98.74  E(vib)   ...       0.46 
freq.     100.77  E(vib)   ...       0.46 
freq.     103.58  E(vib)   ...       0.46 
freq.     104.54  E(vib)   ...       0.46 
freq.     106.42  E(vib)   ...       0.45 
freq.     107.17  E(vib)   ...       0.45 
freq.     122.05  E(vib)   ...       0.44 
freq.     127.68  E(vib)   ...       0.43 
freq.     127.80  E(vib)   ...       0.43 
freq.     134.36  E(vib)   ...       0.42 
freq.     151.48  E(vib)   ...       0.40 
freq.     152.35  E(vib)   ...       0.40 
freq.     153.46  E(vib)   ...       0.40 
freq.     154.08  E(vib)   ...       0.40 
freq.     157.68  E(vib)   ...       0.40 
freq.     158.23  E(vib)   ...       0.39 
freq.     163.83  E(vib)   ...       0.39 
freq.     163.94  E(vib)   ...       0.39 
freq.     164.29  E(vib)   ...       0.39 
freq.     166.00  E(vib)   ...       0.39 
freq.     171.70  E(vib)   ...       0.38 
freq.     172.85  E(vib)   ...       0.38 
freq.     173.75  E(vib)   ...       0.38 
freq.     188.13  E(vib)   ...       0.36 
freq.     188.95  E(vib)   ...       0.36 
freq.     192.23  E(vib)   ...       0.36 
freq.     192.85  E(vib)   ...       0.36 
freq.     193.64  E(vib)   ...       0.36 
freq.     194.37  E(vib)   ...       0.36 
freq.     209.82  E(vib)   ...       0.34 
freq.     210.15  E(vib)   ...       0.34 
freq.     214.93  E(vib)   ...       0.34 
freq.     215.93  E(vib)   ...       0.34 
freq.     226.17  E(vib)   ...       0.33 
freq.     227.64  E(vib)   ...       0.33 
freq.     236.40  E(vib)   ...       0.32 
freq.     237.99  E(vib)   ...       0.32 
freq.     250.88  E(vib)   ...       0.30 
freq.     261.81  E(vib)   ...       0.30 
freq.     267.11  E(vib)   ...       0.29 
freq.     267.43  E(vib)   ...       0.29 
freq.     268.02  E(vib)   ...       0.29 
freq.     269.26  E(vib)   ...       0.29 
freq.     274.29  E(vib)   ...       0.28 
freq.     275.68  E(vib)   ...       0.28 
freq.     275.99  E(vib)   ...       0.28 
freq.     276.55  E(vib)   ...       0.28 
freq.     278.89  E(vib)   ...       0.28 
freq.     279.23  E(vib)   ...       0.28 
freq.     280.42  E(vib)   ...       0.28 
freq.     294.90  E(vib)   ...       0.27 
freq.     296.25  E(vib)   ...       0.27 
freq.     298.55  E(vib)   ...       0.26 
freq.     299.21  E(vib)   ...       0.26 
freq.     302.76  E(vib)   ...       0.26 
freq.     306.00  E(vib)   ...       0.26 
freq.     314.00  E(vib)   ...       0.25 
freq.     314.87  E(vib)   ...       0.25 
freq.     316.40  E(vib)   ...       0.25 
freq.     322.28  E(vib)   ...       0.25 
freq.     323.39  E(vib)   ...       0.25 
freq.     326.69  E(vib)   ...       0.24 
freq.     328.12  E(vib)   ...       0.24 
freq.     328.87  E(vib)   ...       0.24 
freq.     335.63  E(vib)   ...       0.24 
freq.     337.17  E(vib)   ...       0.24 
freq.     339.00  E(vib)   ...       0.23 
freq.     349.10  E(vib)   ...       0.23 
freq.     350.59  E(vib)   ...       0.23 
freq.     363.96  E(vib)   ...       0.22 
freq.     364.40  E(vib)   ...       0.22 
freq.     373.68  E(vib)   ...       0.21 
freq.     376.14  E(vib)   ...       0.21 
freq.     398.85  E(vib)   ...       0.19 
freq.     404.30  E(vib)   ...       0.19 
freq.     412.07  E(vib)   ...       0.19 
freq.     413.42  E(vib)   ...       0.19 
freq.     415.13  E(vib)   ...       0.19 
freq.     428.87  E(vib)   ...       0.18 
freq.     430.18  E(vib)   ...       0.18 
freq.     437.77  E(vib)   ...       0.17 
freq.     439.64  E(vib)   ...       0.17 
freq.     487.37  E(vib)   ...       0.15 
freq.     490.45  E(vib)   ...       0.15 
freq.     491.10  E(vib)   ...       0.14 
freq.     548.21  E(vib)   ...       0.12 
freq.     550.41  E(vib)   ...       0.12 
freq.     635.81  E(vib)   ...       0.09 
freq.     683.86  E(vib)   ...       0.07 
freq.     686.62  E(vib)   ...       0.07 
freq.     693.09  E(vib)   ...       0.07 
freq.     696.62  E(vib)   ...       0.07 
freq.     738.89  E(vib)   ...       0.06 
freq.     739.45  E(vib)   ...       0.06 
freq.     739.56  E(vib)   ...       0.06 
freq.     740.14  E(vib)   ...       0.06 
freq.     740.14  E(vib)   ...       0.06 
freq.     741.16  E(vib)   ...       0.06 
freq.     742.20  E(vib)   ...       0.06 
freq.     742.81  E(vib)   ...       0.06 
freq.     742.98  E(vib)   ...       0.06 
freq.     743.42  E(vib)   ...       0.06 
freq.     744.80  E(vib)   ...       0.06 
freq.     745.00  E(vib)   ...       0.06 
freq.    1000.58  E(vib)   ...       0.02 
freq.    1000.61  E(vib)   ...       0.02 
freq.    1000.95  E(vib)   ...       0.02 
freq.    1000.98  E(vib)   ...       0.02 
freq.    1002.51  E(vib)   ...       0.02 
freq.    1002.59  E(vib)   ...       0.02 
freq.    1005.16  E(vib)   ...       0.02 
freq.    1005.33  E(vib)   ...       0.02 
freq.    1005.56  E(vib)   ...       0.02 
freq.    1006.04  E(vib)   ...       0.02 
freq.    1006.21  E(vib)   ...       0.02 
freq.    1006.49  E(vib)   ...       0.02 
freq.    1354.94  E(vib)   ...       0.01 
freq.    1355.37  E(vib)   ...       0.01 
freq.    1356.12  E(vib)   ...       0.01 
freq.    1356.50  E(vib)   ...       0.01 
freq.    1356.52  E(vib)   ...       0.01 
freq.    1357.13  E(vib)   ...       0.01 
freq.    1357.69  E(vib)   ...       0.01 
freq.    1358.40  E(vib)   ...       0.01 
freq.    1358.68  E(vib)   ...       0.01 
freq.    1358.96  E(vib)   ...       0.01 
freq.    1359.27  E(vib)   ...       0.01 
freq.    1359.56  E(vib)   ...       0.01 
freq.    1370.48  E(vib)   ...       0.01 
freq.    1370.52  E(vib)   ...       0.01 
freq.    1371.04  E(vib)   ...       0.01 
freq.    1371.09  E(vib)   ...       0.01 
freq.    1375.57  E(vib)   ...       0.01 
freq.    1375.73  E(vib)   ...       0.01 
freq.    1380.18  E(vib)   ...       0.01 
freq.    1381.87  E(vib)   ...       0.01 
freq.    1382.10  E(vib)   ...       0.01 
freq.    1386.02  E(vib)   ...       0.00 
freq.    1386.40  E(vib)   ...       0.00 
freq.    1394.30  E(vib)   ...       0.00 
freq.    1564.51  E(vib)   ...       0.00 
freq.    1575.10  E(vib)   ...       0.00 
freq.    1584.00  E(vib)   ...       0.00 
freq.    1584.21  E(vib)   ...       0.00 
freq.    1590.81  E(vib)   ...       0.00 
freq.    1596.73  E(vib)   ...       0.00 
freq.    1597.37  E(vib)   ...       0.00 
freq.    1651.15  E(vib)   ...       0.00 
freq.    1651.64  E(vib)   ...       0.00 
freq.    1655.94  E(vib)   ...       0.00 
freq.    1656.97  E(vib)   ...       0.00 
freq.    1657.35  E(vib)   ...       0.00 
freq.    2951.77  E(vib)   ...       0.00 
freq.    2951.81  E(vib)   ...       0.00 
freq.    2953.05  E(vib)   ...       0.00 
freq.    2953.07  E(vib)   ...       0.00 
freq.    2954.01  E(vib)   ...       0.00 
freq.    2954.65  E(vib)   ...       0.00 
freq.    2968.07  E(vib)   ...       0.00 
freq.    2968.28  E(vib)   ...       0.00 
freq.    2968.38  E(vib)   ...       0.00 
freq.    2968.92  E(vib)   ...       0.00 
freq.    2969.02  E(vib)   ...       0.00 
freq.    2970.31  E(vib)   ...       0.00 

------------
INNER ENERGY
------------

The inner energy is: U= E(el) + E(ZPE) + E(vib) + E(rot) + E(trans)
    E(el)   - is the total energy from the electronic structure calculation
              = E(kin-el) + E(nuc-el) + E(el-el) + E(nuc-nuc)
    E(ZPE)  - the the zero temperature vibrational energy from the frequency calculation
    E(vib)  - the the finite temperature correction to E(ZPE) due to population
              of excited vibrational states
    E(rot)  - is the rotational thermal energy
    E(trans)- is the translational thermal energy

Summary of contributions to the inner energy U:
Electronic energy                ...  -3000.89296202 Eh
Zero point energy                ...      0.31063535 Eh     194.93 kcal/mol
Thermal vibrational correction   ...      0.05181046 Eh      32.51 kcal/mol
Thermal rotational correction    ...      0.00141627 Eh       0.89 kcal/mol
Thermal translational correction ...      0.00141627 Eh       0.89 kcal/mol
-----------------------------------------------------------------------
Total thermal energy                  -3000.52768367 Eh


Summary of corrections to the electronic energy:
(perhaps to be used in another calculation)
Total thermal correction                  0.05464300 Eh      34.29 kcal/mol
Non-thermal (ZPE) correction              0.31063535 Eh     194.93 kcal/mol
-----------------------------------------------------------------------
Total correction                          0.36527835 Eh     229.22 kcal/mol


--------
ENTHALPY
--------

The enthalpy is H = U + kB*T
                kB is Boltzmann's constant
Total thermal energy              ...  -3000.52768367 Eh 
Thermal Enthalpy correction       ...      0.00094421 Eh       0.59 kcal/mol
-----------------------------------------------------------------------
Total Enthalpy                    ...  -3000.52673946 Eh


Note: Rotational entropy computed according to Herzberg 
Infrared and Raman Spectra, Chapter V,1, Van Nostrand Reinhold, 1945 
Point Group:  Ci, Symmetry Number:   1  
Rotational constants in cm-1:     0.001908     0.001905     0.001808 

Vibrational entropy computed according to the QRRHO of S. Grimme
Chem.Eur.J. 2012 18 9955 using a reference frequency of 100.0 cm-1


-------
ENTROPY
-------

The entropy contributions are T*S = T*(S(el)+S(vib)+S(rot)+S(trans))
     S(el)   - electronic entropy
     S(vib)  - vibrational entropy
     S(rot)  - rotational entropy
     S(trans)- translational entropy
The entropies will be listed as multiplied by the temperature to get
units of energy

Electronic entropy                ...      0.00000000 Eh      0.00 kcal/mol
Vibrational entropy               ...      0.09214075 Eh     57.82 kcal/mol
Rotational entropy                ...      0.01840501 Eh     11.55 kcal/mol
Translational entropy             ...      0.02237096 Eh     14.04 kcal/mol
-----------------------------------------------------------------------
Final entropy term                ...      0.13291671 Eh     83.41 kcal/mol

In case the symmetry of your molecule has not been determined correctly
or in case you have a reason to use a different symmetry number we print 
out the resulting rotational entropy values for sn=1,12:

 non-linear molecules -----------------------------------
|  sn= 1 | S(rot)=       0.01840501 Eh     11.55 kcal/mol|
|  sn= 2 | S(rot)=       0.01775055 Eh     11.14 kcal/mol|
|  sn= 3 | S(rot)=       0.01736772 Eh     10.90 kcal/mol|
|  sn= 4 | S(rot)=       0.01709609 Eh     10.73 kcal/mol|
|  sn= 5 | S(rot)=       0.01688541 Eh     10.60 kcal/mol|
|  sn= 6 | S(rot)=       0.01671326 Eh     10.49 kcal/mol|
|  sn= 7 | S(rot)=       0.01656772 Eh     10.40 kcal/mol|
|  sn= 8 | S(rot)=       0.01644164 Eh     10.32 kcal/mol|
|  sn= 9 | S(rot)=       0.01633043 Eh     10.25 kcal/mol|
|  sn=10 | S(rot)=       0.01623095 Eh     10.19 kcal/mol|
|  sn=11 | S(rot)=       0.01614096 Eh     10.13 kcal/mol|
|  sn=12 | S(rot)=       0.01605881 Eh     10.08 kcal/mol|
 linear molecules ---------------------------------------
|  Dinfh | S(rot)=       0.01128868 Eh      7.08 kcal/mol|
|  Cinfv | S(rot)=       0.01194314 Eh      7.49 kcal/mol|
 --------------------------------------------------------


-------------------
GIBBS FREE ENERGY
-------------------

The Gibbs free energy is G = H - T*S

Total enthalpy                    ...  -3000.52673946 Eh 
Total entropy correction          ...     -0.13291671 Eh    -83.41 kcal/mol
-----------------------------------------------------------------------
Final Gibbs free energy         ...  -3000.65965617 Eh

For completeness - the Gibbs free energy minus the electronic energy
G-E(el)                           ...      0.23330585 Eh    146.40 kcal/mol


Maximum memory used throughout the entire PROP-calculation: 117.9 MB

--------------------------------
SUGGESTED CITATIONS FOR THIS RUN
--------------------------------

Below you find a list of papers that are relevant to this ORCA run
We neither can nor want to force you to cite these papers, but we appreciate if you do
You receive ORCA, which is the product of decades of hard work by many enthusiastic individuals, for free
The only thing we kindly ask in return is that you cite our papers,
We deeply appreciate it, if you show your appreciation for ORCA by not just citing the generic ORCA reference.

Please note that relegating all ORCA citations to the supporting information does *not* help us.
SI sections are not indexed - citations you put there will not count into any citation statistics
But we need these citations in order to attract the funding resources that allow us to do what we are doing

Therefore, if you are a happy ORCA user, please consider citing a few of the papers listed below in the main body of your paper

In addition to the list printed below, the program has created the file run.bibtex that contains the list in bibtex format
You can import this file easily into all common literature databanks and citation aid programs


List of essential papers. We consider these as the minimum necessary citations

  1. Neese, F.
     Software update: the ORCA program system, version 6.0
     WIRES Comput. Molec. Sci. 2025 15(1), e70019
     doi.org/10.1002/wcms.7019

List of papers to cite with high priority. The work reported in these papers was absolutely
necessary for this run to complete.
Our perspective: the developers of density functionals and basis sets usually get cited in chemistry papers
Good! But without the algorithms to do something with them, the functionals or basis sets would not do anything.
Hence, in our opinion, the algorithm design and method developments papers are equally worthy of getting cited

  1. Neese, F.
     An improvement of the resolution of the identity approximation for the formation of the Coulomb matrix
     J. Comp. Chem. 2003 24(14), 1740-1747
     doi.org/10.1002/jcc.10318
  2. Grimme, S.; Antony, J.; Ehrlich, S.; Krieg, H.
     A consistent and accurate ab initio parametrization of density functional dispersion correction (DFT-D) for the 94 elements H-Pu
     J. Chem. Phys. 2010 132 , 154104
     doi.org/10.1063/1.3382344
  3. Grimme, S.; Ehrlich, S.; Goerigk, L.
     Effect of the damping function in dispersion corrected density functional theory
     J. Comput. Chem. 2011 32(7), 1456-1465
     doi.org/10.1002/jcc.21759
  4. Bykov, D.; Petrenko, T.; Izsak, R.; Kossmann, S.; Becker, U.; Valeev, E.; Neese, F.
     Efficient implementation of the analytic second derivatives of Hartree-Fock and hybrid DFT energies: a detailed analysis of different approximations
     Molec. Phys. 2015 113 , 1961-1977
     doi.org/10.1080/00268976.2015.1025114
  5. Neese, F.
     The SHARK Integral Generation and Digestion System
     J. Comp. Chem. 2022 44(3), 381
     doi.org/10.1002/jcc.26942

List of suggested additional citations. These are papers that are important in the 'surrounding' of 
of this run, or papers that preceded the highly important papers. If you like your results we are grateful for a citation.

  1. Neese, F.
     The ORCA program system
     WIRES Comput. Molec. Sci. 2012 2(1), 73-78
     doi.org/10.1002/wcms.81
  2. Neese, F.
     Software update: the ORCA program system, version 4.0
     WIRES Comput. Molec. Sci. 2018 8(1), 1-6
     doi.org/10.1002/wcms.1327
  3. Neese, F.; Wennmohs, F.; Becker, U.; Riplinger, C.
     The ORCA quantum chemistry program package
     J. Chem. Phys. 2020 152(22), 224108
     doi.org/10.1063/5.0004608
  4. Neese, F.
     Software update: The ORCA program system—Version 5.0
     WIRES Comput. Molec. Sci. 2022 12(1), e1606
     doi.org/10.1002/wcms.1606

List of optional additional citations

  1. Neese, F.
     Approximate second-order SCF convergence for spin unrestricted wavefunctions
     Chem. Phys. Lett. 2000 325(1-3), 93-98
     doi.org/10.1016/s0009-2614(00)00662-x

Timings for individual modules:

Sum of individual times          ...     2053.005 sec (=  34.217 min)
Startup calculation              ...      149.437 sec (=   2.491 min)   7.3 %
SCF iterations                   ...      534.795 sec (=   8.913 min)  26.0 %
Property integrals               ...      514.143 sec (=   8.569 min)  25.0 %
SCF Response                     ...      390.524 sec (=   6.509 min)  19.0 %
Property calculations            ...      240.202 sec (=   4.003 min)  11.7 %
SCF Gradient evaluation          ...      214.782 sec (=   3.580 min)  10.5 %
Geometry relaxation              ...        9.121 sec (=   0.152 min)   0.4 %
                             ****ORCA TERMINATED NORMALLY****
TOTAL RUN TIME: 0 days 0 hours 34 minutes 51 seconds 100 msec
