
                                 *****************
                                 * O   R   C   A *
                                 *****************

                                            #,                                       
                                            ###                                      
                                            ####                                     
                                            #####                                    
                                            ######                                   
                                           ########,                                 
                                     ,,################,,,,,                         
                               ,,#################################,,                 
                          ,,##########################################,,             
                       ,#########################################, ''#####,          
                    ,#############################################,,   '####,        
                  ,##################################################,,,,####,       
                ,###########''''           ''''###############################       
              ,#####''   ,,,,##########,,,,          '''####'''          '####       
            ,##' ,,,,###########################,,,                        '##       
           ' ,,###''''                  '''############,,,                           
         ,,##''                                '''############,,,,        ,,,,,,###''
      ,#''                                            '''#######################'''  
     '                                                          ''''####''''         
             ,#######,   #######,   ,#######,      ##                                
            ,#'     '#,  ##    ##  ,#'     '#,    #''#        ,####,    ,#,          
            ##       ##  ##   ,#'  ##            #'  '#       #'       ,# #          
            ##       ##  #######   ##           ,######,      #####,      #          
            '#,     ,#'  ##    ##  '#,     ,#' ,#      #,     #,   #      #          
             '#######'   ##     ##  '#######'  #'      '#     '####' #    #          



                #########################################################
                #                        -***-                          #
                #          Department of theory and spectroscopy        #
                #                                                       #
                #                      Frank Neese                      #
                #                                                       #
                #     Directorship, Architecture, Infrastructure        #
                #                    SHARK, DRIVERS                     #
                #        Core code/Algorithms in most modules           #
                #                                                       #
                #        Max Planck Institute fuer Kohlenforschung      #
                #                Kaiser Wilhelm Platz 1                 #
                #                 D-45470 Muelheim/Ruhr                 #
                #                      Germany                          #
                #                                                       #
                #                  All rights reserved                  #
                #                        -***-                          #
                #########################################################


                         Program Version 6.1.0  -  RELEASE   -
                                (GIT: $679e74b$)
                          ($2025-06-10 18:02:51 +0200$)


 With contributions from (in alphabetic order):
[Max-Planck-Institut fuer Kohlenforschung]                               
  Daniel Aravena         : Magnetic Suceptibility                        
  Michael Atanasov       : Ab Initio Ligand Field Theory (pilot matlab implementation)
  Alexander A. Auer      : GIAO ZORA, VPT2 properties, NMR spectrum      
  Ute Becker             : All parallelization in ORCA, NUMFREQ, NUMCALC 
  Giovanni Bistoni       : ED, misc. LED, open-shell LED, HFLD           
  Dmytro Bykov           : pre 5.0 version of the SCF Hessian            
  Marcos Casanova-Páez   : Triplet and SCS-CIS(D). UHF-(DLPNO)-IP/EA/STEOM-CCSD. UHF-CVS-IP/STEOM-CCSD   
  Vijay G. Chilkuri      : MRCI spin determinant printing, contributions to CSF-ICE 
  Pauline Colinet        : FMM embedding                                 
  Dipayan Datta          : RHF DLPNO-CCSD density                        
  Achintya Kumar Dutta   : EOM-CC, STEOM-CC                              
  Nicolas Foglia         : Exact transition moments, OPA infrastructure, MCD improvements    
  Dmitry Ganyushin       : Spin-Orbit,Spin-Spin,Magnetic field MRCI      
  Miquel Garcia-Rates    : C-PCM and meta-GGA Hessian, CCSD/C-PCM, Gaussian charge scheme 
  Tiago L. C. Gouveia    : GS-ROHF, GS-ROCIS                             
  Yang Guo               : DLPNO-NEVPT2, F12-NEVPT2, CIM, IAO-localization        
  Andreas Hansen         : Spin unrestricted coupled pair/coupled cluster methods 
  Ingolf Harden          : AUTO-CI MPn and infrastructure                
  Benjamin Helmich-Paris : MC-RPA, TRAH-(SCF,CASSCF), AVAS, COSX integrals, SCF dyn. polar., MC-PDFT, srDFT 
  Lee Huntington         : MR-EOM, pCC                                   
  Robert Izsak           : Overlap fitted RIJCOSX, COSX-SCS-MP3, EOM     
  Riya Kayal             : Wick's Theorem for AUTO-CI, AUTO-CI UHF-CCSDT 
  Emily Kempfer          : AUTO-CI RHF CISDT and CCSDT, approximate NEVPT4
  Christian Kollmar      : KDIIS, OOCD, Brueckner-CCSD(T), CCSD density, CASPT2, CASPT2-K, improved NEVPT2 
  Axel Koslowski         : Symmetry handling                             
  Simone Kossmann        : meta-GGA functionals, TD-DFT gradient, OOMP2, (MP2 Hessian; deprecated post 5.0) 
  Lucas Lang             : DCDCAS, Hyperfine gauge corrections, ICE-SOC+SSC
  Marvin Lechner         : AUTO-CI (C++ implementation), FIC-MRCC        
  Spencer Leger          : CASSCF response                               
  Dagmar Lenk            : GEPOL surface, SMD, ORCA-2-JSON               
  Dimitrios Liakos       : Extrapolation schemes; Compound Job, Property file
  Dimitrios Manganas     : Further ROCIS development; embedding schemes. LFT, Crystal Embedding 
  Dimitrios Pantazis     : SARC Basis sets                               
  Anastasios Papadopoulos: AUTO-CI, single reference methods and gradients 
  Taras Petrenko         : pre 6.0 DFT Hessian and TD-DFT gradient,  ECA, NRVS 
  Petra Pikulova         : Analytic Raman intensities                    
  Peter Pinski           : DLPNO-MP2, DLPNO-MP2 Gradient                 
  Shashank Vittal Rao    : ES-AILFT, MagRelax                            
  Christoph Reimann      : Effective Core Potentials                     
  Marius Retegan         : Local ZFS, SOC                                
  Christoph Riplinger    : Optimizer, TS searches, QM/MM, DLPNO-CCSD(T), (RO)-DLPNO pert. Triples 
  Michael Roemelt        : Original ROCIS implementation, recursive CI coupling coefficients
  Masaaki Saitow         : Open-shell DLPNO-CCSD energy and density      
  Barbara Sandhoefer     : DKH picture change effects                    
  Yorick L. A. Schmerwitz: GMF and freeze-and-release deltaSCF, NEB S-IDPP initial path                    
  Kantharuban Sivalingam : CASSCF convergence/infrastructure, NEVPT2, NEVPT3, NEVPT4(SD), FIC-MRCI and CEPA variants
  Bernardo de Souza      : ESD, SOC TD-DFT                               
  Georgi L. Stoychev     : AutoAux, RI-MP2 NMR, DLPNO-MP2 response, X2C  
  Van Anh Tran           : RI-MP2 g-tensors                              
  Willem Van den Heuvel  : Paramagnetic NMR                              
  Zikuan Wang            : NOTCH, Electric field optimization            
  Frank Wennmohs         : Technical directorship and infrastructure     
  Hang Xu                : AUTO-CI-Response properties                   
                                                                         
[FACCTs GmbH]                                                            
  Markus Bursch, Nicolas Foglia, Miquel Garcia-Rates, Ingolf Harden, Hagen Neugebauer, Anastasios Papadopoulos, 
  Christoph Riplinger, Bernardo de Souza, Georgi L. Stoychev                                                    
                                                                 
  APM, various basis sets, CI-OPT, improved COSX, DLPNO-Multilevel,           
  DOCKER, DRACO, updates on ESD, Fragmentator, GOAT, IRC, LR-CPCM, L-BFGS, MBIS, meta-GGA TD-DFT gradient, ML-optimized integration grids, 
  MM, NACMEs, nearIR, NEB, NEB-TS, NL-DFT gradient (VV10), 2- and 3-layer-ONIOM, interface openCOSMO-RS, QMMM,   
  Crystal-QMMM, RESP, rigid body optimization, SF, symmetry and pop. for TD-DFT, various functionals, SOLVATOR                                   
                                                                         
[Other institutions]                                                     
  V. Asgeirsson          : NEB                                           
  Christoph Bannwarth    : sTDA-DFT, sTD-DFT, PBEh-3c, B97-3c, D3        
  Giovanni Bistoni       : ETS/NOCV, ADLD/ADEX, COVALED                  
  Martin Brehm           : Molecular dynamics                            
  Ronald Cardenas        : ETS/NOCV                                      
  Martina Colucci        : COVALED                                       
  Sebastian Ehlert       : rSCAN, r2SCAN, r2SCAN-3c, D4, dhf basis sets  
  Marvin Friede          : D4 for Fr, Ra, Ac-Lr                          
  Lars Goerigk           : TD-DFT with DH, B97 family of functionals     
  Stefan Grimme          : VdW corrections, initial TS optimization, DFT functionals, gCP, sTDA/sTD-DF 
  Waldemar Hujo          : DFT-NL                                        
  H. Jonsson             : NEB                                           
  Holger Kruse           : gCP                                           
  Marcel Mueller         : wB97X-3c, vDZP basis set                      
  Hagen Neugebauer       : wr2SCAN, Native XTB                           
  Gianluca Regni         : ADLD/ADEX                                     
  Tobias Risthaus        : pre 6.0 range-separated hybrid DFT and stability analysis
  Lukas Wittmann         : regularized MP2, r2SCAN double-hybrids, wr2SCAN        
                                                                         
We gratefully acknowledge several colleagues who have allowed us to      
interface, adapt or use parts of their codes:                            
  Ed Valeev, F. Pavosevic, A. Kumar             : LibInt (2-el integral package), F12 methods 
  Garnet Chan, S. Sharma, J. Yang, R. Olivares  : DMRG                   
  Ulf Ekstrom                                   : XCFun DFT Library      
  Mihaly Kallay                                 : mrcc  (arbitrary order and MRCC methods)
  Frank Weinhold                                : gennbo (NPA and NBO analysis)           
  Simon Mueller                                 : openCOSMO-RS                            
  Christopher J. Cramer and Donald G. Truhlar   : smd solvation model                     
  S Lehtola, MJT Oliveira, MAL Marques          : LibXC Library                           
  Liviu Ungur et al                             : ANISO software                          


 Your calculation uses the libint2 library for the computation of 2-el integrals
 For citations please refer to: http://libint.valeyev.net

 Your ORCA version has been built with support for libXC version: 7.0.0
 For citations please refer to: https://libxc.gitlab.io

 This ORCA versions uses:
   CBLAS   interface :  Fast vector & matrix operations
   LAPACKE interface :  Fast linear algebra routines
   SCALAPACK package :  Parallel linear algebra routines
   Shared memory     :  Shared parallel matrices
   BLAS/LAPACK       :  OpenBLAS 0.3.29  USE64BITINT DYNAMIC_ARCH NO_AFFINITY Bulldozer SINGLE_THREADED
        Core in use  :  Bulldozer
   Copyright (c) 2011-2014, The OpenBLAS Project


  ***********************************
  * Starting time: Tue Aug 12 23:05:36 2025
  * Host name:     chromium05
  * Process ID:    208663
  * Working dir.:  /local/scratch/mehlhorn/61821
  ***********************************



***************************************
The coordinates will be read from file: start.xyz
***************************************


Your calculation utilizes the geometrical counterpoise correction gCP
Please cite in your paper:
H.Kruse, S. Grimme J.Chem.Phys., 136, (2012), 154101 
   

Your calculation utilizes the atom-pairwise dispersion correction
with the Becke-Johnson damping scheme (D3BJ)


Warning: RI is on but no J-basis has been assigned. Assigning Def2/J (nothing to worry about!)
================================================================================

cite the ECPs for Zr [Def2-ECP] as follows:
Ce-Yb(ecp-28): M. Dolg, H. Stoll, H.Preuss, J. Chem. Phys., 1989, 90, 1730-1734.
Y-Cd(ecp-28), Hf-Hg(ecp-46): D. Andrae,U. Haeussermann, M. Dolg, H. Stoll, H. Preuss, Theor. Chim. Acta, 1990, 77, 123-141.
In-Sb(ecp-28), Tl-Bi(ecp-46): B. Metz, H. Stoll, M. Dolg, J. Chem. Phys., 2000, 113, 2563-2569.
Te-Xe(ecp-28), Po-Rn(ecp-46): K. A. Peterson, D. Figgen, E. Goll, H. Stoll, M. Dolg, J. Chem. Phys., 2003, 119, 11113-11123.
Rb(ecp-28), Cs(ecp-46): T. Leininger, A. Nicklass, W. Kuechle, H. Stoll, M. Dolg, A. Bergner, Chem. Phys. Lett., 1996, 255, 274-280.
Sr(ecp-28), Ba(ecp-46): M. Kaupp, P. V. Schleyer, H. Stoll and H. Preuss, J. Chem. Phys., 1991, 94, 1360-1366.
La(ecp-46): M. Dolg, H. Stoll, A. Savin, H. Preuss, Theor. Chim. Acta, 1989, 75, 173-194.
Lu(ecp-28): X. Cao, M. Dolg, J. Chem. Phys., 2001, 115, 7348-7355.

ECP parameters for Zr [Def2-ECP] have been obtained from:
TURBOMOLE (7.0.2)

----- Orbital basis set information -----
Your calculation utilizes the basis: def2-SV(P)
   F. Weigend and R. Ahlrichs, Phys. Chem. Chem. Phys. 7, 3297 (2005).

----- AuxJ basis set information -----
Your calculation utilizes the auxiliary basis: def2/J
   H-Rn: F. Weigend, Phys. Chem. Chem. Phys. 8, 1057 (2006).
   Fr-Lr: K. Eichkorn, F. Weigend, O. Treutler, R. Ahlrichs; Theor. Chem. Acc. 97, 119 (1997).

================================================================================
                                        WARNINGS
                       Please study these warnings very carefully!
================================================================================


WARNING: Gradients are needed
  ===> : At least TightSCF should be used for SCF convergence

WARNING: Geometry Optimization
  ===> : Switching off AutoStart
         For restart on a previous wavefunction, please use MOREAD

================================================================================
                                       INPUT FILE
================================================================================
NAME = run.inp
|  1> # Geometry optimization for (AlH3)n cluster
|  2> 
|  3> %pal nprocs 24  end
|  4> 
|  5> %geom MaxIter 500 end
|  6> 
|  7> 
|  8> ! PBE def2-SV(P)
|  9> ! RKS	# closed shell for AlH3
| 10> ! D3    #  dispersion correction
| 11> ! gCP(DFT/SV(P))
| 12> ! Freq 	# Frequency analysis to check the stabiltity of the structures
| 13> 
| 14> ! NoPop # population analysis not necessary	
| 15> 
| 16> ! DEFGRID2
| 17> ! NormalSCF
| 18> ! SloppyOpt
| 19> 
| 20> ! SmallPrint
| 21> 
| 22> 
| 23> * xyzFile 0 1 start.xyz # only maingroup elements H and Al so there should be no net spin
| 24> 
| 25>                          ****END OF INPUT****
================================================================================

                       *****************************
                       * Geometry Optimization Run *
                       *****************************

Geometry optimization settings:
Update method            Update   .... BFGS
Choice of coordinates    CoordSys .... (2022) Redundant Internals
Initial Hessian          InHess   .... Almloef's Model
Max. no of cycles        MaxIter  .... 500

Convergence Tolerances:
Energy Change            TolE     ....  8.0000e-05 Eh
Max. Gradient            TolMAXG  ....  5.0000e-03 Eh/bohr
RMS Gradient             TolRMSG  ....  1.0000e-03 Eh/bohr
Max. Displacement        TolMAXD  ....  3.0000e-02 bohr
RMS Displacement         TolRMSD  ....  2.0000e-02 bohr
Strict Convergence                .... False

------------------------------------------------------------------------------
                        ORCA OPTIMIZATION COORDINATE SETUP
------------------------------------------------------------------------------

The optimization will be done in redundant internal coordinates (2022)
Making redundant internal coordinates   ...  (2022 redundants) done
Evaluating the initial hessian          ...  (Almloef) done
Evaluating the coordinates              ...  done
Calculating the B-matrix                .... done
Calculating the G-matrix                .... done
The number of degrees of freedom        ....  790

    -----------------------------------------------------------------
                    Redundant Internal Coordinates


    -----------------------------------------------------------------
         Definition                    Initial Value    Approx d2E/dq
    -----------------------------------------------------------------
      1. B(Zr  2,Zr  1)                  3.4265         0.036044   
      2. B(Zr  3,Zr  0)                  3.4306         0.035504   
      3. B(Zr  4,Zr  3)                  3.4053         0.038965   
      4. B(Zr  4,Zr  1)                  3.3753         0.043507   
      5. B(Zr  5,Zr  2)                  3.4079         0.038603   
      6. B(Zr  5,Zr  0)                  3.3814         0.042540   
      7. B(O   6,Zr  3)                  2.1063         0.407576   
      8. B(O   6,Zr  5)                  2.1606         0.333837   
      9. B(O   6,Zr  0)                  2.0839         0.442545   
     10. B(O   7,Zr  1)                  2.0809         0.447364   
     11. B(O   7,Zr  4)                  2.1568         0.338609   
     12. B(O   7,Zr  2)                  2.1011         0.415457   
     13. B(O   8,Zr  5)                  2.1732         0.318744   
     14. B(O   8,Zr  2)                  2.1433         0.355774   
     15. B(O   8,Zr  1)                  2.1603         0.334267   
     16. B(O   9,Zr  3)                  2.1451         0.353383   
     17. B(O   9,Zr  0)                  2.1601         0.334450   
     18. B(O   9,Zr  4)                  2.1752         0.316450   
     19. B(O  10,Zr  4)                  2.1137         0.396568   
     20. B(O  10,Zr  3)                  2.0693         0.466903   
     21. B(O  10,Zr  1)                  2.1143         0.395748   
     22. B(O  11,Zr  0)                  2.1229         0.383436   
     23. B(O  11,Zr  5)                  2.1127         0.398108   
     24. B(O  11,Zr  2)                  2.0750         0.457270   
     25. B(O  12,Zr  0)                  1.9913         0.621708   
     26. B(O  13,Zr  0)                  1.9927         0.618560   
     27. B(O  14,Zr  0)                  2.0698         0.466036   
     28. B(O  15,Zr  0)                  1.9876         0.630379   
     29. B(O  16,Zr  1)                  1.9835         0.639976   
     30. B(O  17,Zr  1)                  2.0723         0.461772   
     31. B(O  18,Zr  1)                  1.9887         0.627676   
     32. B(O  19,Zr  1)                  1.9901         0.624572   
     33. B(O  20,Zr  2)                  1.9727         0.665742   
     34. B(O  21,Zr  2)                  2.0611         0.481147   
     35. B(O  22,Zr  2)                  1.9855         0.635227   
     36. B(O  23,Zr  2)                  2.0545         0.493039   
     37. B(O  24,Zr  3)                  2.0515         0.498412   
     38. B(O  25,Zr  3)                  1.9855         0.635280   
     39. B(O  26,Zr  3)                  2.0588         0.485203   
     40. B(O  27,Zr  3)                  1.9741         0.662462   
     41. B(O  28,Zr  4)                  1.9767         0.656201   
     42. B(O  29,Zr  4)                  2.0279         0.543522   
     43. B(O  30,Zr  4)                  1.9887         0.627892   
     44. B(O  31,Zr  4)                  2.0702         0.465308   
     45. B(O  32,Zr  5)                  2.0718         0.462604   
     46. B(O  33,Zr  5)                  1.9864         0.633203   
     47. B(O  34,Zr  5)                  2.0256         0.548266   
     48. B(O  35,Zr  5)                  1.9785         0.651700   
     49. B(C  36,O  33)                  1.3019         0.773504   
     50. B(C  36,O  12)                  1.3012         0.775540   
     51. B(C  37,O  25)                  1.3018         0.773768   
     52. B(C  37,O  13)                  1.3018         0.773682   
     53. B(C  38,O  21)                  1.2971         0.787196   
     54. B(C  38,O  14)                  1.2967         0.788320   
     55. B(C  39,O  29)                  1.2954         0.792163   
     56. B(C  39,O  15)                  1.2950         0.793375   
     57. B(C  40,O  34)                  1.2951         0.793031   
     58. B(C  40,O  16)                  1.2950         0.793314   
     59. B(C  41,O  17)                  1.2967         0.788282   
     60. B(C  41,O  26)                  1.2967         0.788288   
     61. B(C  42,O  22)                  1.3013         0.775152   
     62. B(C  42,O  18)                  1.3012         0.775466   
     63. B(C  43,O  19)                  1.3009         0.776233   
     64. B(C  43,O  30)                  1.3021         0.772894   
     65. B(C  44,O  35)                  1.2984         0.783603   
     66. B(C  44,O  20)                  1.2983         0.783852   
     67. B(C  45,O  23)                  1.3002         0.778181   
     68. B(C  45,O  31)                  1.2984         0.783508   
     69. B(C  46,O  24)                  1.3005         0.777537   
     70. B(C  46,O  32)                  1.2985         0.783106   
     71. B(C  47,O  28)                  1.2984         0.783450   
     72. B(C  47,O  27)                  1.2983         0.783686   
     73. B(H  48,C  41)                  1.0848         0.367072   
     74. B(H  49,C  42)                  1.0914         0.358274   
     75. B(H  50,C  38)                  1.0848         0.366984   
     76. B(H  51,C  37)                  1.0917         0.357917   
     77. B(H  52,C  43)                  1.0922         0.357223   
     78. B(H  53,C  47)                  1.0899         0.360282   
     79. B(H  54,C  39)                  1.0860         0.365375   
     80. B(H  55,C  45)                  1.0868         0.364305   
     81. B(H  56,C  40)                  1.0861         0.365262   
     82. B(H  57,C  46)                  1.0871         0.364006   
     83. B(H  58,C  36)                  1.0921         0.357267   
     84. B(H  59,C  44)                  1.0899         0.360296   
     85. B(Al 60,O  17)                  3.2496         0.010000   
     86. B(Al 61,Al 60)                  3.3149         0.026050   
     87. B(Al 61,O  18)                  3.3587         0.010000   
     88. B(Al 61,O  19)                  3.2989         0.010000   
     89. B(H  62,O  18)                  2.7937         0.010000   
     90. B(H  62,Al 61)                  1.6696         0.300132   
     91. B(H  62,H  49)                  3.3356         0.010000   
     92. B(H  63,Al 61)                  1.5955         0.394024   
     93. B(H  64,O  19)                  2.9703         0.010000   
     94. B(H  64,Al 61)                  1.6691         0.300644   
     95. B(H  64,Al 60)                  1.6691         0.300696   
     96. B(H  64,H  52)                  3.3271         0.010000   
     97. B(H  65,Al 60)                  1.5956         0.393899   
     98. B(H  66,H  48)                  3.0093         0.010000   
     99. B(H  66,O  17)                  2.8569         0.010000   
    100. B(H  66,Al 60)                  1.6694         0.300363   
    101. B(H  66,C  41)                  3.3730         0.010000   
    102. B(H  67,C  42)                  3.0457         0.010000   
    103. B(H  67,O  18)                  2.9784         0.010000   
    104. B(H  67,H  49)                  2.8133         0.010000   
    105. B(H  67,O  19)                  2.7579         0.010000   
    106. B(H  67,Al 61)                  1.5966         0.392491   
    107. B(H  67,H  52)                  3.4841         0.010000   
    108. B(Al 68,H  62)                  1.6698         0.299928   
    109. B(Al 68,Al 61)                  3.3183         0.025727   
    110. B(Al 68,O  16)                  3.3546         0.010000   
    111. B(Al 68,O  18)                  3.2333         0.010000   
    112. B(H  69,H  56)                  3.0038         0.010000   
    113. B(H  69,O  16)                  2.8318         0.010000   
    114. B(H  69,Al 68)                  1.6699         0.299801   
    115. B(H  69,C  40)                  3.3613         0.010000   
    116. B(H  70,Al 68)                  1.5955         0.394044   
    117. B(H  71,C  43)                  2.9783         0.010000   
    118. B(H  71,H  48)                  2.9641         0.010000   
    119. B(H  71,O  17)                  2.8247         0.010000   
    120. B(H  71,H  52)                  2.8023         0.010000   
    121. B(H  71,Al 60)                  1.5962         0.393072   
    122. B(H  71,O  19)                  3.2647         0.010000   
    123. B(H  71,C  41)                  3.2275         0.010000   
    124. B(Al 72,H  69)                  1.6698         0.299850   
    125. B(Al 72,Al 68)                  3.3170         0.025852   
    126. B(Al 72,H  66)                  1.6692         0.300513   
    127. B(Al 72,Al 60)                  3.3160         0.025950   
    128. B(Al 72,H  56)                  3.5206         0.010000   
    129. B(Al 72,O  17)                  3.4228         0.010000   
    130. B(Al 72,O  16)                  3.2868         0.010000   
    131. B(H  73,Al 72)                  1.5955         0.393960   
    132. B(H  74,O  17)                  3.1050         0.010000   
    133. B(H  74,C  41)                  3.0517         0.010000   
    134. B(H  74,H  48)                  2.9059         0.010000   
    135. B(H  74,H  56)                  2.8866         0.010000   
    136. B(H  74,O  16)                  2.8820         0.010000   
    137. B(H  74,Al 72)                  1.5966         0.392474   
    138. B(H  74,C  40)                  3.1805         0.010000   
    139. B(H  75,C  40)                  3.0582         0.010000   
    140. B(H  75,H  56)                  3.0259         0.010000   
    141. B(H  75,O  16)                  2.9313         0.010000   
    142. B(H  75,O  18)                  2.7137         0.010000   
    143. B(H  75,Al 68)                  1.5966         0.392484   
    144. B(H  75,H  49)                  3.4966         0.010000   
    145. B(H  75,C  42)                  3.4114         0.010000   
    146. A(O   6,Zr  0,O  11)           66.0437         0.467053   
    147. A(Zr  3,Zr  0,O  13)           71.9244         0.355441   
    148. A(Zr  5,Zr  0,O  15)          143.1137         0.367761   
    149. A(O   9,Zr  0,O  13)           76.6397         0.484395   
    150. A(Zr  3,Zr  0,O  15)          110.9222         0.356585   
    151. A(Zr  5,Zr  0,O   6)           37.9807         0.346310   
    152. A(O  13,Zr  0,O  14)          131.8498         0.515230   
    153. A(Zr  5,Zr  0,O  13)          126.7799         0.366569   
    154. A(O   6,Zr  0,O  12)           81.1810         0.510754   
    155. A(O  11,Zr  0,O  13)          157.6808         0.496819   
    156. A(O  11,Zr  0,O  12)          101.0914         0.497288   
    157. A(O   6,Zr  0,O  14)          127.5359         0.484120   
    158. A(Zr  5,Zr  0,O  11)           36.9244         0.338094   
    159. A(O  11,Zr  0,O  15)          106.5863         0.498570   
    160. A(Zr  3,Zr  0,Zr  5)           70.6594         0.251741   
    161. A(O   6,Zr  0,O  15)          142.5661         0.512078   
    162. A(O  12,Zr  0,O  14)           80.4569         0.515720   
    163. A(O   9,Zr  0,O  11)           88.4363         0.443833   
    164. A(O  11,Zr  0,O  14)           70.0530         0.471504   
    165. A(Zr  3,Zr  0,O  11)           86.1421         0.328107   
    166. A(Zr  3,Zr  0,O   6)           35.2571         0.335994   
    167. A(Zr  3,Zr  0,O  12)          105.5381         0.355747   
    168. A(O  12,Zr  0,O  13)           81.4672         0.543961   
    169. A(O   9,Zr  0,O  15)           74.8651         0.486093   
    170. A(Zr  5,Zr  0,O   9)           94.3893         0.330506   
    171. A(O  14,Zr  0,O  15)           76.7484         0.517060   
    172. A(O   9,Zr  0,O  14)          137.3590         0.459852   
    173. A(Zr  3,Zr  0,O  14)          156.1886         0.338902   
    174. A(O  12,Zr  0,O  15)          135.0740         0.545914   
    175. A(Zr  3,Zr  0,O   9)           37.0185         0.320823   
    176. A(Zr  5,Zr  0,O  12)           73.7546         0.366888   
    177. A(Zr  5,Zr  0,O  14)           89.6292         0.349340   
    178. A(O  13,Zr  0,O  15)           85.6784         0.545389   
    179. A(O   9,Zr  0,O  12)          141.1829         0.484850   
    180. A(O   6,Zr  0,O  13)           92.7794         0.510270   
    181. A(O   6,Zr  0,O   9)           68.4430         0.455536   
    182. A(O   8,Zr  1,O  16)           74.9096         0.487404   
    183. A(O  10,Zr  1,O  18)          158.2992         0.501109   
    184. A(Zr  4,Zr  1,O  18)          127.0304         0.368910   
    185. A(Zr  2,Zr  1,O  10)           86.3346         0.330647   
    186. A(O  16,Zr  1,O  17)           76.7091         0.517634   
    187. A(Zr  2,Zr  1,O  19)          105.7064         0.356938   
    188. A(O   8,Zr  1,O  19)          141.2283         0.485213   
    189. A(Zr  4,Zr  1,O  16)          143.0986         0.370143   
    190. A(O  16,Zr  1,O  18)           85.6354         0.548472   
    191. A(O  10,Zr  1,O  19)          100.9551         0.500647   
    192. A(O   8,Zr  1,O  18)           76.5326         0.485658   
    193. A(O   7,Zr  1,O  17)          127.5329         0.484267   
    194. A(O   8,Zr  1,O  10)           89.0886         0.446336   
    195. A(Zr  4,Zr  1,O  19)           73.7700         0.368597   
    196. A(O   7,Zr  1,O  19)           81.3923         0.512229   
    197. A(O   8,Zr  1,O  17)          137.8403         0.459035   
    198. A(O  10,Zr  1,O  17)           69.9337         0.473450   
    199. A(O  18,Zr  1,O  19)           81.4294         0.545945   
    200. A(Zr  4,Zr  1,O  17)           89.6226         0.350124   
    201. A(Zr  2,Zr  1,O   7)           35.1737         0.337446   
    202. A(O   7,Zr  1,O  18)           93.1462         0.512704   
    203. A(O   7,Zr  1,O  16)          142.6431         0.514569   
    204. A(Zr  2,Zr  1,O   8)           37.0590         0.321587   
    205. A(Zr  2,Zr  1,O  17)          156.2659         0.339235   
    206. A(O  17,Zr  1,O  18)          131.3130         0.515755   
    207. A(Zr  2,Zr  1,O  18)           72.3690         0.357239   
    208. A(O  10,Zr  1,O  16)          106.4754         0.502923   
    209. A(Zr  4,Zr  1,O   7)           37.9883         0.348257   
    210. A(Zr  2,Zr  1,O  16)          111.1239         0.358419   
    211. A(Zr  2,Zr  1,Zr  4)           70.6171         0.253130   
    212. A(O   7,Zr  1,O  10)           66.2041         0.470701   
    213. A(Zr  4,Zr  1,O  10)           37.0249         0.341162   
    214. A(O   7,Zr  1,O   8)           68.5579         0.456390   
    215. A(O  17,Zr  1,O  19)           80.0497         0.515277   
    216. A(O  16,Zr  1,O  19)          134.8520         0.547957   
    217. A(Zr  4,Zr  1,O   8)           94.7510         0.331708   
    218. A(O   7,Zr  2,O   8)           68.5206         0.455424   
    219. A(O  20,Zr  2,O  22)           82.8307         0.553852   
    220. A(Zr  5,Zr  2,O   8)           38.1714         0.328584   
    221. A(O  20,Zr  2,O  21)           81.4949         0.525522   
    222. A(O  20,Zr  2,O  23)          135.8626         0.527941   
    223. A(O  11,Zr  2,O  23)          110.8990         0.492166   
    224. A(Zr  5,Zr  2,O  21)           93.8429         0.345526   
    225. A(Zr  1,Zr  2,Zr  5)           70.4974         0.248747   
    226. A(Zr  5,Zr  2,O   7)           90.2425         0.337143   
    227. A(Zr  1,Zr  2,O   8)           37.4024         0.324893   
    228. A(O   7,Zr  2,O  22)           80.8611         0.506797   
    229. A(O  11,Zr  2,O  20)           98.3076         0.520522   
    230. A(Zr  1,Zr  2,O  22)           71.8438         0.357966   
    231. A(O  22,Zr  2,O  23)           82.9186         0.523305   
    232. A(Zr  1,Zr  2,O   7)           34.7875         0.333320   
    233. A(Zr  5,Zr  2,O  22)          124.5323         0.362174   
    234. A(O   7,Zr  2,O  23)           71.5474         0.483509   
    235. A(Zr  1,Zr  2,O  23)          103.7313         0.342974   
    236. A(O  21,Zr  2,O  22)          132.2002         0.520911   
    237. A(O  21,Zr  2,O  23)           77.8545         0.496837   
    238. A(O   8,Zr  2,O  22)           89.2648         0.492386   
    239. A(O   8,Zr  2,O  23)          140.0356         0.469902   
    240. A(O  11,Zr  2,O  22)          156.2110         0.515964   
    241. A(Zr  5,Zr  2,O  11)           35.9027         0.342588   
    242. A(O   8,Zr  2,O  11)           67.6053         0.463464   
    243. A(O  11,Zr  2,O  21)           71.0491         0.489944   
    244. A(O   7,Zr  2,O  11)           85.2941         0.476841   
    245. A(O   7,Zr  2,O  21)          131.1053         0.481335   
    246. A(Zr  5,Zr  2,O  23)          144.9321         0.346948   
    247. A(Zr  1,Zr  2,O  21)          155.3274         0.341574   
    248. A(Zr  1,Zr  2,O  11)           85.7681         0.338681   
    249. A(O   8,Zr  2,O  20)           81.1465         0.496693   
    250. A(O   7,Zr  2,O  20)          145.5312         0.511257   
    251. A(Zr  5,Zr  2,O  20)           74.5044         0.365091   
    252. A(Zr  1,Zr  2,O  20)          110.9600         0.360837   
    253. A(O   8,Zr  2,O  21)          131.8664         0.467803   
    254. A(O  24,Zr  3,O  25)           83.2679         0.524380   
    255. A(O   6,Zr  3,O  10)           85.3130         0.476990   
    256. A(O   6,Zr  3,O  27)          144.2498         0.508961   
    257. A(O   9,Zr  3,O  10)           67.5768         0.464661   
    258. A(Zr  4,Zr  3,O  10)           35.9403         0.344326   
    259. A(Zr  4,Zr  3,O  26)           93.1946         0.346557   
    260. A(O   6,Zr  3,O  24)           71.6546         0.482768   
    261. A(O   6,Zr  3,O  26)          132.6441         0.480381   
    262. A(O   6,Zr  3,O   9)           68.3271         0.453282   
    263. A(Zr  0,Zr  3,O   6)           34.8274         0.331434   
    264. A(O  10,Zr  3,O  26)           71.2516         0.492606   
    265. A(Zr  4,Zr  3,O  24)          143.3811         0.348128   
    266. A(Zr  4,Zr  3,O   9)           38.2933         0.328724   
    267. A(Zr  0,Zr  3,Zr  4)           70.7589         0.248539   
    268. A(O   9,Zr  3,O  26)          131.2644         0.467944   
    269. A(Zr  4,Zr  3,O  25)          125.8204         0.362756   
    270. A(O  25,Zr  3,O  26)          131.5156         0.521741   
    271. A(O  24,Zr  3,O  26)           77.9479         0.498616   
    272. A(O   9,Zr  3,O  27)           80.5734         0.495616   
    273. A(Zr  0,Zr  3,O  26)          156.2580         0.341192   
    274. A(Zr  0,Zr  3,O  27)          109.6942         0.359608   
    275. A(Zr  4,Zr  3,O   6)           90.3773         0.336592   
    276. A(O   6,Zr  3,O  25)           80.1026         0.504997   
    277. A(Zr  0,Zr  3,O  25)           71.7980         0.357054   
    278. A(O  10,Zr  3,O  24)          109.0805         0.495067   
    279. A(O   9,Zr  3,O  24)          139.9797         0.470255   
    280. A(Zr  0,Zr  3,O   9)           37.3210         0.323731   
    281. A(Zr  4,Zr  3,O  27)           74.5604         0.365365   
    282. A(Zr  0,Zr  3,O  24)          104.2211         0.342730   
    283. A(O  10,Zr  3,O  27)           99.1138         0.522079   
    284. A(O  10,Zr  3,O  25)          156.8752         0.517991   
    285. A(O   9,Zr  3,O  25)           90.2720         0.491778   
    286. A(Zr  0,Zr  3,O  10)           85.9885         0.339007   
    287. A(O  25,Zr  3,O  27)           82.9460         0.553341   
    288. A(O  26,Zr  3,O  27)           81.3243         0.525864   
    289. A(O  24,Zr  3,O  27)          136.9594         0.528528   
    290. A(O   9,Zr  4,O  10)           66.2592         0.442099   
    291. A(O   7,Zr  4,O  10)           64.8888         0.447549   
    292. A(Zr  3,Zr  4,O  10)           35.0717         0.335062   
    293. A(O   9,Zr  4,O  29)           72.1767         0.468211   
    294. A(O   9,Zr  4,O  31)          134.4130         0.455108   
    295. A(O   9,Zr  4,O  30)          143.2273         0.480801   
    296. A(O  28,Zr  4,O  30)           82.0257         0.551119   
    297. A(O  30,Zr  4,O  31)           81.9744         0.516526   
    298. A(O  10,Zr  4,O  30)           86.0635         0.501334   
    299. A(O  29,Zr  4,O  31)           73.9605         0.502788   
    300. A(Zr  1,Zr  4,Zr  3)           71.8180         0.256051   
    301. A(O   7,Zr  4,O   9)           96.8921         0.429694   
    302. A(O   7,Zr  4,O  28)          162.8895         0.490840   
    303. A(O   7,Zr  4,O  30)           92.2195         0.486849   
    304. A(Zr  3,Zr  4,O  28)           73.8202         0.364772   
    305. A(Zr  3,Zr  4,O  31)          160.0154         0.344128   
    306. A(Zr  1,Zr  4,O  29)          146.1289         0.359937   
    307. A(O  10,Zr  4,O  28)           98.5156         0.505471   
    308. A(O   9,Zr  4,O  28)           78.9003         0.484731   
    309. A(Zr  1,Zr  4,O  28)          127.0033         0.371740   
    310. A(Zr  3,Zr  4,O   9)           37.6710         0.322809   
    311. A(O   7,Zr  4,O  29)          111.6661         0.474065   
    312. A(O   7,Zr  4,O  31)           68.6645         0.460759   
    313. A(Zr  1,Zr  4,O  31)           94.9536         0.350575   
    314. A(O  10,Zr  4,O  31)          131.3506         0.474295   
    315. A(Zr  1,Zr  4,O   9)           96.4545         0.328717   
    316. A(O  28,Zr  4,O  31)          125.8499         0.520815   
    317. A(Zr  1,Zr  4,O   7)           36.4317         0.332418   
    318. A(Zr  1,Zr  4,O  30)           70.8571         0.368932   
    319. A(O  28,Zr  4,O  29)           83.0609         0.536270   
    320. A(O  10,Zr  4,O  29)          137.1326         0.488085   
    321. A(O  29,Zr  4,O  30)          135.9934         0.531828   
    322. A(Zr  3,Zr  4,O   7)           92.6297         0.326418   
    323. A(Zr  3,Zr  4,O  30)          106.5955         0.362033   
    324. A(Zr  1,Zr  4,O  10)           37.0364         0.341280   
    325. A(Zr  3,Zr  4,O  29)          108.4885         0.353259   
    326. A(O  11,Zr  5,O  35)           98.2611         0.505187   
    327. A(O  34,Zr  5,O  35)           82.8081         0.536453   
    328. A(O  33,Zr  5,O  35)           81.9660         0.551280   
    329. A(O  32,Zr  5,O  35)          126.1996         0.519574   
    330. A(O   8,Zr  5,O  35)           78.8822         0.484762   
    331. A(O   6,Zr  5,O  35)          162.5207         0.488928   
    332. A(Zr  2,Zr  5,O  35)           73.7750         0.363762   
    333. A(Zr  0,Zr  5,O  35)          126.5927         0.369867   
    334. A(O  33,Zr  5,O  34)          135.1966         0.533546   
    335. A(O  32,Zr  5,O  34)           73.7029         0.503057   
    336. A(O  11,Zr  5,O  34)          137.5533         0.489222   
    337. A(O  32,Zr  5,O  33)           82.1022         0.516777   
    338. A(O   6,Zr  5,O  34)          112.4825         0.473586   
    339. A(Zr  2,Zr  5,O  34)          108.4568         0.353222   
    340. A(Zr  0,Zr  5,O  34)          147.0039         0.359093   
    341. A(O  11,Zr  5,O  33)           86.3580         0.502484   
    342. A(O   8,Zr  5,O  33)          143.6555         0.482191   
    343. A(O   6,Zr  5,O  33)           91.8984         0.486330   
    344. A(Zr  0,Zr  5,O  33)           70.7394         0.368043   
    345. A(O  11,Zr  5,O  32)          131.4011         0.474124   
    346. A(O   8,Zr  5,O  32)          133.8852         0.455223   
    347. A(O   6,Zr  5,O  32)           68.5061         0.459078   
    348. A(Zr  2,Zr  5,O  32)          159.6058         0.343254   
    349. A(Zr  2,Zr  5,O   6)           92.6667         0.325158   
    350. A(Zr  0,Zr  5,O   6)           36.4086         0.330405   
    351. A(O   8,Zr  5,O  34)           72.3191         0.469580   
    352. A(Zr  0,Zr  5,O  32)           95.0135         0.348904   
    353. A(Zr  0,Zr  5,Zr  2)           72.0064         0.254852   
    354. A(O   8,Zr  5,O  11)           66.4034         0.442987   
    355. A(O   6,Zr  5,O  11)           64.8843         0.446713   
    356. A(Zr  2,Zr  5,O  11)           35.1656         0.334759   
    357. A(Zr  0,Zr  5,O  11)           37.1330         0.340220   
    358. A(O   6,Zr  5,O   8)           97.2303         0.429157   
    359. A(Zr  2,Zr  5,O  33)          107.1914         0.361977   
    360. A(Zr  2,Zr  5,O   8)           37.5539         0.322698   
    361. A(Zr  0,Zr  5,O   8)           96.8119         0.327891   
    362. A(Zr  3,O   6,Zr  5)          134.8128         0.448621   
    363. A(Zr  0,O   6,Zr  5)          105.6107         0.455384   
    364. A(Zr  0,O   6,Zr  3)          109.9155         0.472313   
    365. A(Zr  2,O   7,Zr  4)          134.8433         0.451345   
    366. A(Zr  1,O   7,Zr  4)          105.5800         0.457465   
    367. A(Zr  1,O   7,Zr  2)          110.0388         0.474923   
    368. A(Zr  1,O   8,Zr  2)          105.5387         0.437827   
    369. A(Zr  2,O   8,Zr  5)          104.2747         0.434093   
    370. A(Zr  1,O   8,Zr  5)          131.0666         0.429256   
    371. A(Zr  0,O   9,Zr  4)          131.8382         0.428743   
    372. A(Zr  0,O   9,Zr  3)          105.6604         0.437338   
    373. A(Zr  3,O   9,Zr  4)          104.0356         0.433003   
    374. A(Zr  3,O  10,Zr  4)          108.9880         0.474593   
    375. A(Zr  1,O  10,Zr  4)          105.9387         0.460430   
    376. A(Zr  1,O  10,Zr  3)          143.8269         0.474412   
    377. A(Zr  2,O  11,Zr  5)          108.9317         0.473115   
    378. A(Zr  0,O  11,Zr  5)          105.9427         0.458106   
    379. A(Zr  0,O  11,Zr  2)          143.8726         0.469864   
    380. A(Zr  0,O  12,C  36)          125.3343         0.502621   
    381. A(Zr  0,O  13,C  37)          127.3250         0.501921   
    382. A(Zr  0,O  14,C  38)          135.8125         0.477937   
    383. A(Zr  0,O  15,C  39)          138.5012         0.506060   
    384. A(Zr  1,O  16,C  40)          138.9370         0.507481   
    385. A(Al 68,O  16,Al 72)           59.9158         0.129617   
    386. A(C  40,O  16,Al 68)          101.2990         0.209698   
    387. A(C  40,O  16,Al 72)          107.1074         0.216702   
    388. A(Zr  1,O  16,Al 72)          113.5707         0.229828   
    389. A(Zr  1,O  16,Al 68)          103.4985         0.222104   
    390. A(Zr  1,O  17,C  41)          136.6732         0.477124   
    391. A(Al 60,O  17,Al 72)           59.5316         0.128584   
    392. A(C  41,O  17,Al 72)           96.8838         0.202878   
    393. A(Zr  1,O  17,Al 72)          106.1274         0.205809   
    394. A(C  41,O  17,Al 60)          110.7287         0.220526   
    395. A(Zr  1,O  17,Al 60)          112.5641         0.223911   
    396. A(Zr  1,O  18,C  42)          127.7562         0.503507   
    397. A(Al 61,O  18,Al 68)           60.4126         0.131320   
    398. A(C  42,O  18,Al 61)          103.9502         0.208670   
    399. A(Zr  1,O  18,Al 61)          104.1076         0.221071   
    400. A(C  42,O  18,Al 68)          124.5612         0.221822   
    401. A(Zr  1,O  18,Al 68)          107.5806         0.235585   
    402. A(C  43,O  19,Al 61)          124.2631         0.214804   
    403. A(Zr  1,O  19,Al 61)          106.1368         0.227653   
    404. A(Zr  1,O  19,C  43)          125.4928         0.503135   
    405. A(Zr  2,O  20,C  44)          131.5941         0.510092   
    406. A(Zr  2,O  21,C  38)          139.4814         0.480629   
    407. A(Zr  2,O  22,C  42)          128.6912         0.504592   
    408. A(Zr  2,O  23,C  45)          137.2112         0.481774   
    409. A(Zr  3,O  24,C  46)          136.7564         0.482665   
    410. A(Zr  3,O  25,C  37)          128.2165         0.504432   
    411. A(Zr  3,O  26,C  41)          138.8132         0.481497   
    412. A(Zr  3,O  27,C  47)          131.5236         0.509601   
    413. A(Zr  4,O  28,C  47)          132.4692         0.508670   
    414. A(Zr  4,O  29,C  39)          139.6558         0.492158   
    415. A(Zr  4,O  30,C  43)          128.1724         0.503228   
    416. A(Zr  4,O  31,C  45)          129.0208         0.477260   
    417. A(Zr  5,O  32,C  46)          128.6685         0.476704   
    418. A(Zr  5,O  33,C  36)          128.5502         0.504092   
    419. A(Zr  5,O  34,C  40)          138.9089         0.493052   
    420. A(Zr  5,O  35,C  44)          132.3958         0.508035   
    421. A(O  12,C  36,O  33)          126.7330         0.464381   
    422. A(O  33,C  36,H  58)          116.6522         0.363684   
    423. A(O  12,C  36,H  58)          116.6126         0.363848   
    424. A(O  13,C  37,O  25)          127.3195         0.464207   
    425. A(O  25,C  37,H  51)          116.3387         0.363819   
    426. A(O  13,C  37,H  51)          116.3418         0.363812   
    427. A(O  14,C  38,O  21)          130.0706         0.467272   
    428. A(O  21,C  38,H  50)          114.9291         0.366457   
    429. A(O  14,C  38,H  50)          114.9926         0.366547   
    430. A(O  15,C  39,O  29)          128.9708         0.468359   
    431. A(O  29,C  39,H  54)          115.5110         0.366576   
    432. A(O  15,C  39,H  54)          115.5121         0.366672   
    433. A(O  16,C  40,O  34)          128.9449         0.468447   
    434. A(O  34,C  40,H  56)          115.5000         0.366626   
    435. A(O  16,C  40,H  56)          115.5513         0.366648   
    436. A(O  17,C  41,O  26)          130.0235         0.467387   
    437. A(O  26,C  41,H  48)          114.9223         0.366560   
    438. A(O  17,C  41,H  48)          115.0495         0.366559   
    439. A(O  18,C  42,O  22)          127.2930         0.464554   
    440. A(O  22,C  42,H  49)          116.3464         0.363992   
    441. A(O  18,C  42,H  49)          116.3604         0.364017   
    442. A(O  30,C  43,H  52)          116.6596         0.363627   
    443. A(O  19,C  43,H  52)          116.6717         0.363896   
    444. A(O  19,C  43,O  30)          126.6676         0.464390   
    445. A(O  35,C  44,H  59)          116.1901         0.365019   
    446. A(O  20,C  44,H  59)          116.2343         0.365039   
    447. A(O  20,C  44,O  35)          127.5756         0.466395   
    448. A(O  31,C  45,H  55)          115.0889         0.365703   
    449. A(O  23,C  45,H  55)          115.1694         0.365277   
    450. A(O  23,C  45,O  31)          129.7395         0.465765   
    451. A(O  32,C  46,H  57)          115.1085         0.365620   
    452. A(O  24,C  46,H  57)          115.2141         0.365173   
    453. A(O  24,C  46,O  32)          129.6741         0.465650   
    454. A(O  28,C  47,H  53)          116.1975         0.365004   
    455. A(O  27,C  47,H  53)          116.2370         0.365023   
    456. A(O  27,C  47,O  28)          127.5655         0.466360   
    457. A(O  17,Al 60,Al 72)           62.8341         0.165309   
    458. A(O  17,Al 60,H  71)           60.3703         0.204728   
    459. A(O  17,Al 60,H  66)           61.4550         0.197892   
    460. A(O  17,Al 60,H  65)          158.3977         0.204783   
    461. A(O  17,Al 60,H  64)           91.4754         0.197919   
    462. A(O  17,Al 60,Al 61)           90.1747         0.165375   
    463. A(H  71,Al 60,Al 72)          116.0360         0.282162   
    464. A(H  65,Al 60,Al 72)          111.2145         0.282254   
    465. A(H  64,Al 60,Al 72)           95.9477         0.270798   
    466. A(Al 61,Al 60,Al 72)           89.4430         0.216479   
    467. A(H  66,Al 60,H  71)          111.3677         0.364640   
    468. A(H  65,Al 60,H  71)          110.5904         0.382083   
    469. A(H  64,Al 60,H  71)          112.1750         0.364709   
    470. A(Al 61,Al 60,H  71)          117.0759         0.282331   
    471. A(H  65,Al 60,H  66)          110.0061         0.364771   
    472. A(H  64,Al 60,H  66)          102.3922         0.348423   
    473. A(Al 61,Al 60,H  66)           95.9440         0.270911   
    474. A(H  64,Al 60,H  65)          110.0382         0.364840   
    475. A(H  66,Al 60,Al 72)            6.6766         0.270752   
    476. A(Al 61,Al 60,H  65)          110.9543         0.282423   
    477. A(Al 61,Al 60,H  64)            6.7696         0.270957   
    478. A(O  18,Al 61,O  19)           45.8778         0.129075   
    479. A(O  18,Al 61,Al 68)           57.9221         0.158553   
    480. A(O  18,Al 61,H  64)           98.0061         0.188466   
    481. A(O  18,Al 61,H  63)          151.3549         0.194745   
    482. A(O  18,Al 61,H  62)           56.0480         0.188427   
    483. A(O  18,Al 61,Al 60)           96.2606         0.158749   
    484. A(O  19,Al 61,Al 68)           93.1511         0.162101   
    485. A(O  19,Al 61,H  67)           56.4249         0.200042   
    486. A(O  19,Al 61,H  64)           63.8937         0.193540   
    487. A(O  19,Al 61,H  63)          155.7055         0.200140   
    488. A(O  19,Al 61,H  62)           94.4748         0.193500   
    489. A(O  19,Al 61,Al 60)           66.0526         0.162308   
    490. A(O  18,Al 61,H  67)           62.4573         0.194652   
    491. A(H  67,Al 61,Al 68)          116.4892         0.281721   
    492. A(H  64,Al 61,Al 68)           97.0624         0.270436   
    493. A(H  63,Al 61,Al 68)          111.1134         0.281891   
    494. A(H  62,Al 61,Al 68)            6.4350         0.270367   
    495. A(Al 60,Al 61,Al 68)           90.5864         0.216230   
    496. A(H  64,Al 61,H  67)          111.0770         0.364606   
    497. A(H  63,Al 61,H  67)          110.3332         0.382006   
    498. A(H  62,Al 61,H  67)          112.1185         0.364500   
    499. A(Al 60,Al 61,H  67)          116.1103         0.282266   
    500. A(H  63,Al 61,H  64)          110.0302         0.364849   
    501. A(H  62,Al 61,H  64)          103.3066         0.348368   
    502. A(Al 60,Al 61,H  64)            6.7694         0.270949   
    503. A(H  62,Al 61,H  63)          109.7727         0.364743   
    504. A(Al 60,Al 61,H  63)          110.8908         0.282437   
    505. A(Al 60,Al 61,H  62)           96.8828         0.270879   
    506. A(Al 61,H  62,Al 68)          167.1308         0.348228   
    507. A(Al 60,H  64,Al 61)          166.4611         0.348478   
    508. A(Al 60,H  66,Al 72)          166.6463         0.348388   
    509. A(O  16,Al 68,O  18)           48.3422         0.131464   
    510. A(O  16,Al 68,H  75)           60.8963         0.195011   
    511. A(O  16,Al 68,Al 72)           59.0268         0.158866   
    512. A(O  16,Al 68,H  70)          154.1601         0.195106   
    513. A(O  16,Al 68,H  69)           57.4807         0.188741   
    514. A(O  16,Al 68,H  62)           94.5774         0.188750   
    515. A(O  16,Al 68,Al 61)           92.3964         0.158789   
    516. A(O  18,Al 68,H  75)           56.8939         0.206262   
    517. A(O  18,Al 68,Al 72)           96.6027         0.166281   
    518. A(O  18,Al 68,H  70)          150.8464         0.206368   
    519. A(O  18,Al 68,H  69)           98.4502         0.199327   
    520. A(O  18,Al 68,H  62)           59.7619         0.199337   
    521. A(O  18,Al 68,Al 61)           61.6653         0.166196   
    522. A(Al 72,Al 68,H  75)          115.1858         0.281932   
    523. A(H  70,Al 68,H  75)          110.8590         0.382008   
    524. A(H  69,Al 68,H  75)          110.7907         0.364430   
    525. A(H  62,Al 68,H  75)          111.1238         0.364456   
    526. A(Al 61,Al 68,H  75)          115.2498         0.281720   
    527. A(H  70,Al 68,Al 72)          112.2132         0.282105   
    528. A(H  69,Al 68,Al 72)            6.6879         0.270520   
    529. A(H  62,Al 68,Al 72)           95.6819         0.270538   
    530. A(Al 61,Al 68,Al 72)           89.3674         0.216011   
    531. A(H  69,Al 68,H  70)          110.6832         0.364677   
    532. A(H  62,Al 68,H  70)          110.9132         0.364704   
    533. A(Al 61,Al 68,H  70)          112.4774         0.281893   
    534. A(H  62,Al 68,H  69)          102.1842         0.348163   
    535. A(Al 61,Al 68,H  69)           95.9042         0.270321   
    536. A(Al 61,Al 68,H  62)            6.4343         0.270339   
    537. A(Al 68,H  69,Al 72)          166.6241         0.348148   
    538. A(O  16,Al 72,O  17)           44.0192         0.127378   
    539. A(O  17,Al 72,H  74)           64.9725         0.189165   
    540. A(O  17,Al 72,H  73)          156.9076         0.189251   
    541. A(O  17,Al 72,H  69)           92.2373         0.183244   
    542. A(O  17,Al 72,Al 68)           90.0250         0.155013   
    543. A(O  17,Al 72,H  66)           56.3007         0.183291   
    544. A(O  17,Al 72,Al 60)           57.6343         0.155070   
    545. A(O  16,Al 72,H  74)           61.2611         0.201162   
    546. A(O  16,Al 72,H  73)          155.7199         0.201258   
    547. A(O  16,Al 72,H  69)           59.4937         0.194533   
    548. A(O  16,Al 72,Al 68)           61.0575         0.162920   
    549. A(O  16,Al 72,H  66)           94.0479         0.194585   
    550. A(O  16,Al 72,Al 60)           92.3418         0.162983   
    551. A(H  73,Al 72,H  74)          110.1763         0.381992   
    552. A(H  69,Al 72,H  74)          111.9335         0.364438   
    553. A(Al 68,Al 72,H  74)          116.5431         0.281931   
    554. A(H  66,Al 72,H  74)          111.0448         0.364576   
    555. A(Al 60,Al 72,H  74)          115.7763         0.282096   
    556. A(H  69,Al 72,H  73)          109.9189         0.364674   
    557. A(Al 68,Al 72,H  73)          111.2390         0.282096   
    558. A(H  66,Al 72,H  73)          110.0554         0.364812   
    559. A(Al 60,Al 72,H  73)          111.2612         0.282261   
    560. A(Al 68,Al 72,H  69)            6.6881         0.270527   
    561. A(H  66,Al 72,H  69)          103.5366         0.348287   
    562. A(Al 60,Al 72,H  69)           97.1066         0.270682   
    563. A(H  66,Al 72,Al 68)           97.0695         0.270618   
    564. A(Al 60,Al 72,Al 68)           90.5912         0.216259   
    565. A(Al 60,Al 72,H  66)            6.6771         0.270773   
    566. D(Zr  5,Zr  2,Zr  1,Zr  4)    103.1922         0.010000   
    567. D(Zr  5,Zr  2,Zr  1,O   7)    121.1773         0.010000   
    568. D(O   7,Zr  2,Zr  1,Zr  4)    -17.9851         0.010000   
    569. D(Zr  4,Zr  3,Zr  0,Zr  5)   -102.8468         0.010000   
    570. D(O   6,Zr  3,Zr  0,Zr  5)     18.0776         0.010000   
    571. D(Zr  4,Zr  3,Zr  0,O   6)   -120.9244         0.010000   
    572. D(Zr  3,Zr  4,Zr  1,O   7)   -121.7545         0.010000   
    573. D(Zr  3,Zr  4,Zr  1,Zr  2)   -104.9575         0.010000   
    574. D(Zr  1,Zr  4,Zr  3,O   6)     75.4227         0.010000   
    575. D(O   7,Zr  4,Zr  3,Zr  0)     74.3941         0.010000   
    576. D(Zr  1,Zr  4,Zr  3,Zr  0)    104.7588         0.010000   
    577. D(O   7,Zr  4,Zr  1,Zr  2)     16.7970         0.010000   
    578. D(O   6,Zr  5,Zr  0,Zr  3)    -16.9219         0.010000   
    579. D(Zr  2,Zr  5,Zr  0,O   6)    121.5219         0.010000   
    580. D(Zr  0,Zr  5,Zr  2,Zr  1)   -104.7703         0.010000   
    581. D(Zr  2,Zr  5,Zr  0,Zr  3)    104.6000         0.010000   
    582. D(O   6,Zr  5,Zr  2,Zr  1)    -74.3389         0.010000   
    583. D(Zr  0,Zr  5,Zr  2,O   7)    -75.5521         0.010000   
    584. D(Zr  5,O   6,Zr  3,Zr  0)   -139.7647         0.010000   
    585. D(Zr  0,O   6,Zr  5,Zr  2)    -54.2552         0.010000   
    586. D(Zr  0,O   6,Zr  5,O   8)    -91.6856         0.010000   
    587. D(Zr  3,O   6,Zr  0,Zr  5)   -151.5898         0.010000   
    588. D(Zr  5,O   6,Zr  0,Zr  3)    151.5898         0.010000   
    589. D(Zr  3,O   6,Zr  0,O   9)    -21.8187         0.010000   
    590. D(Zr  3,O   6,Zr  5,Zr  0)    140.9086         0.010000   
    591. D(Zr  0,O   6,Zr  3,Zr  4)     54.0905         0.010000   
    592. D(Zr  0,O   6,Zr  3,O   9)     21.9976         0.010000   
    593. D(Zr  1,O   7,Zr  2,Zr  5)    -53.7544         0.010000   
    594. D(Zr  2,O   7,Zr  1,O   8)     21.4051         0.010000   
    595. D(Zr  4,O   7,Zr  1,Zr  2)   -151.7564         0.010000   
    596. D(Zr  2,O   7,Zr  1,Zr  4)    151.7564         0.010000   
    597. D(Zr  1,O   7,Zr  4,Zr  3)     53.9697         0.010000   
    598. D(Zr  1,O   7,Zr  4,O   9)     91.5422         0.010000   
    599. D(Zr  4,O   7,Zr  2,Zr  1)    139.9923         0.010000   
    600. D(Zr  1,O   7,Zr  2,O   8)    -21.5888         0.010000   
    601. D(Zr  2,O   7,Zr  4,Zr  1)   -141.1701         0.010000   
    602. D(Zr  1,O   8,Zr  5,Zr  2)   -126.0382         0.010000   
    603. D(Zr  2,O   8,Zr  5,Zr  0)     48.2565         0.010000   
    604. D(Zr  5,O   8,Zr  2,Zr  1)   -140.7439         0.010000   
    605. D(Zr  1,O   8,Zr  5,Zr  0)    -77.7818         0.010000   
    606. D(Zr  1,O   8,Zr  2,O   7)     20.2188         0.010000   
    607. D(Zr  5,O   8,Zr  1,Zr  2)    125.5718         0.010000   
    608. D(Zr  2,O   8,Zr  1,Zr  4)    -48.4964         0.010000   
    609. D(Zr  1,O   8,Zr  2,Zr  5)    140.7439         0.010000   
    610. D(Zr  2,O   8,Zr  1,O   7)    -20.4178         0.010000   
    611. D(Zr  3,O   9,Zr  4,Zr  1)    -48.6713         0.010000   
    612. D(Zr  0,O   9,Zr  4,Zr  3)    126.6753         0.010000   
    613. D(Zr  0,O   9,Zr  4,Zr  1)     78.0040         0.010000   
    614. D(Zr  4,O   9,Zr  3,Zr  0)    141.6417         0.010000   
    615. D(Zr  0,O   9,Zr  3,O   6)    -20.6609         0.010000   
    616. D(Zr  0,O   9,Zr  3,Zr  4)   -141.6417         0.010000   
    617. D(Zr  4,O   9,Zr  0,Zr  3)   -126.0907         0.010000   
    618. D(Zr  3,O   9,Zr  0,Zr  5)     49.1954         0.010000   
    619. D(Zr  3,O   9,Zr  0,O   6)     20.8759         0.010000   
    620. D(Zr  1,O  10,Zr  4,O   7)    -31.3427         0.010000   
    621. D(Zr  1,O  10,Zr  4,Zr  3)   -170.4325         0.010000   
    622. D(Zr  4,O  10,Zr  3,Zr  0)    -62.2184         0.010000   
    623. D(Zr  1,O  10,Zr  3,Zr  4)    164.2894         0.010000   
    624. D(Zr  1,O  10,Zr  3,Zr  0)    102.0711         0.010000   
    625. D(Zr  4,O  10,Zr  1,Zr  2)     62.1382         0.010000   
    626. D(Zr  3,O  10,Zr  1,Zr  2)   -102.4188         0.010000   
    627. D(Zr  3,O  10,Zr  4,Zr  1)    170.4325         0.010000   
    628. D(Zr  3,O  10,Zr  1,Zr  4)   -164.5569         0.010000   
    629. D(Zr  2,O  11,Zr  5,Zr  0)   -170.4142         0.010000   
    630. D(Zr  0,O  11,Zr  5,Zr  2)    170.4142         0.010000   
    631. D(Zr  5,O  11,Zr  2,Zr  1)     62.0530         0.010000   
    632. D(Zr  0,O  11,Zr  2,Zr  5)   -164.2417         0.010000   
    633. D(Zr  0,O  11,Zr  2,Zr  1)   -102.1888         0.010000   
    634. D(Zr  5,O  11,Zr  0,Zr  3)    -62.4327         0.010000   
    635. D(Zr  0,O  11,Zr  5,O   6)     31.4249         0.010000   
    636. D(Zr  2,O  11,Zr  0,Zr  5)    164.5044         0.010000   
    637. D(Zr  2,O  11,Zr  0,Zr  3)    102.0716         0.010000   
    638. D(C  36,O  12,Zr  0,Zr  5)     28.8829         0.010000   
    639. D(C  36,O  12,Zr  0,Zr  3)     92.8390         0.010000   
    640. D(C  37,O  13,Zr  0,Zr  5)    -16.8310         0.010000   
    641. D(C  37,O  13,Zr  0,Zr  3)     30.4078         0.010000   
    642. D(C  38,O  14,Zr  0,Zr  5)     64.5322         0.010000   
    643. D(C  38,O  14,Zr  0,Zr  3)     31.1477         0.010000   
    644. D(C  39,O  15,Zr  0,Zr  5)     60.2637         0.010000   
    645. D(C  39,O  15,Zr  0,Zr  3)    -25.0747         0.010000   
    646. D(Al 72,O  16,Zr  1,Zr  2)   -164.0734         0.010000   
    647. D(C  40,O  16,Zr  1,Zr  4)    -61.2282         0.010000   
    648. D(C  40,O  16,Zr  1,Zr  2)     24.2980         0.010000   
    649. D(Al 60,O  17,Zr  1,Zr  2)    148.7559         0.010000   
    650. D(C  41,O  17,Zr  1,Zr  4)    -61.7519         0.010000   
    651. D(C  41,O  17,Zr  1,Zr  2)    -28.8455         0.010000   
    652. D(Al 68,O  18,Zr  1,Zr  2)    148.0335         0.010000   
    653. D(C  42,O  18,Zr  1,Zr  4)     19.0767         0.010000   
    654. D(C  42,O  18,Zr  1,Zr  2)    -28.3939         0.010000   
    655. D(Al 61,O  19,Zr  1,Zr  2)    109.6048         0.010000   
    656. D(C  43,O  19,Zr  1,Zr  4)    -28.7133         0.010000   
    657. D(C  43,O  19,Zr  1,Zr  2)    -92.5507         0.010000   
    658. D(C  44,O  20,Zr  2,Zr  5)      3.4970         0.010000   
    659. D(C  44,O  20,Zr  2,Zr  1)    -58.0009         0.010000   
    660. D(C  38,O  21,Zr  2,Zr  5)    -38.0686         0.010000   
    661. D(C  38,O  21,Zr  2,Zr  1)     10.9858         0.010000   
    662. D(C  42,O  22,Zr  2,Zr  5)     20.7984         0.010000   
    663. D(C  42,O  22,Zr  2,Zr  1)    -28.4983         0.010000   
    664. D(C  45,O  23,Zr  2,Zr  5)    -73.3752         0.010000   
    665. D(C  45,O  23,Zr  2,Zr  1)      2.1433         0.010000   
    666. D(C  46,O  24,Zr  3,Zr  4)     77.9893         0.010000   
    667. D(C  46,O  24,Zr  3,Zr  0)      1.2233         0.010000   
    668. D(C  37,O  25,Zr  3,Zr  4)    -18.9593         0.010000   
    669. D(C  37,O  25,Zr  3,Zr  0)     29.3464         0.010000   
    670. D(C  41,O  26,Zr  3,Zr  4)     40.9582         0.010000   
    671. D(C  41,O  26,Zr  3,Zr  0)     -5.1834         0.010000   
    672. D(C  47,O  27,Zr  3,Zr  4)     -1.7308         0.010000   
    673. D(C  47,O  27,Zr  3,Zr  0)     60.7541         0.010000   
    674. D(C  47,O  28,Zr  4,Zr  1)     48.9110         0.010000   
    675. D(C  47,O  28,Zr  4,Zr  3)     -2.3694         0.010000   
    676. D(C  39,O  29,Zr  4,Zr  3)     35.9355         0.010000   
    677. D(C  39,O  29,Zr  4,Zr  1)    -48.7737         0.010000   
    678. D(C  43,O  30,Zr  4,Zr  3)    -97.5564         0.010000   
    679. D(C  43,O  30,Zr  4,Zr  1)    -34.1789         0.010000   
    680. D(C  45,O  31,Zr  4,Zr  3)    -26.9532         0.010000   
    681. D(C  45,O  31,Zr  4,Zr  1)    -74.2578         0.010000   
    682. D(C  46,O  32,Zr  5,Zr  2)     25.6267         0.010000   
    683. D(C  46,O  32,Zr  5,Zr  0)     74.7901         0.010000   
    684. D(C  36,O  33,Zr  5,Zr  2)     97.0245         0.010000   
    685. D(C  36,O  33,Zr  5,Zr  0)     33.8091         0.010000   
    686. D(C  40,O  34,Zr  5,Zr  2)    -39.5192         0.010000   
    687. D(C  40,O  34,Zr  5,Zr  0)     45.6630         0.010000   
    688. D(C  44,O  35,Zr  5,Zr  2)      3.1645         0.010000   
    689. D(C  44,O  35,Zr  5,Zr  0)    -48.7552         0.010000   
    690. D(O  12,C  36,O  33,Zr  5)    -27.3508         0.045753   
    691. D(H  58,C  36,O  12,Zr  0)    161.3136         0.046022   
    692. D(O  33,C  36,O  12,Zr  0)    -18.1214         0.046022   
    693. D(H  58,C  36,O  33,Zr  5)    153.2144         0.045753   
    694. D(H  51,C  37,O  25,Zr  3)    159.4375         0.045788   
    695. D(O  13,C  37,O  25,Zr  3)    -20.5194         0.045788   
    696. D(H  51,C  37,O  13,Zr  0)    156.6891         0.045776   
    697. D(O  25,C  37,O  13,Zr  0)    -23.3541         0.045776   
    698. D(H  50,C  38,O  21,Zr  2)    175.2640         0.047579   
    699. D(O  14,C  38,O  21,Zr  2)     -3.6614         0.047579   
    700. D(H  50,C  38,O  14,Zr  0)    166.2155         0.047730   
    701. D(O  21,C  38,O  14,Zr  0)    -14.8597         0.047730   
    702. D(H  54,C  39,O  29,Zr  4)   -177.4438         0.048252   
    703. D(O  15,C  39,O  29,Zr  4)      3.5062         0.048252   
    704. D(H  54,C  39,O  15,Zr  0)    170.2002         0.048417   
    705. D(O  29,C  39,O  15,Zr  0)    -10.7498         0.048417   
    706. D(H  56,C  40,O  34,Zr  5)   -178.7489         0.062769   
    707. D(O  16,C  40,O  34,Zr  5)      0.5013         0.062769   
    708. D(H  56,C  40,O  16,Zr  1)   -171.0511         0.082370   
    709. D(O  34,C  40,O  16,Al 72)   -162.2751         0.082370   
    710. D(O  34,C  40,O  16,Zr  1)      9.6991         0.082370   
    711. D(H  48,C  41,O  26,Zr  3)   -176.3501         0.061928   
    712. D(O  17,C  41,O  26,Zr  3)      2.8131         0.061928   
    713. D(H  48,C  41,O  17,Zr  1)   -169.1927         0.081192   
    714. D(O  26,C  41,O  17,Al 60)   -165.9866         0.081192   
    715. D(O  26,C  41,O  17,Zr  1)     11.6451         0.081192   
    716. D(H  49,C  42,O  22,Zr  2)   -159.0510         0.055372   
    717. D(O  18,C  42,O  22,Zr  2)     20.7840         0.055372   
    718. D(H  49,C  42,O  18,Zr  1)   -159.1642         0.074816   
    719. D(O  22,C  42,O  18,Al 68)   -154.8627         0.074816   
    720. D(O  22,C  42,O  18,Zr  1)     21.0007         0.074816   
    721. D(H  52,C  43,O  30,Zr  4)   -152.2838         0.050510   
    722. D(O  19,C  43,O  30,Zr  4)     28.1177         0.050510   
    723. D(H  52,C  43,O  19,Zr  1)   -162.1868         0.067729   
    724. D(O  30,C  43,O  19,Al 61)    171.4142         0.067729   
    725. D(O  30,C  43,O  19,Zr  1)     17.4116         0.067729   
    726. D(H  59,C  44,O  35,Zr  5)    177.8310         0.047095   
    727. D(O  20,C  44,O  35,Zr  5)     -2.0806         0.047095   
    728. D(H  59,C  44,O  20,Zr  2)    177.2515         0.047129   
    729. D(O  35,C  44,O  20,Zr  2)     -2.8370         0.047129   
    730. D(H  55,C  45,O  31,Zr  4)   -163.2437         0.047082   
    731. D(O  23,C  45,O  31,Zr  4)     16.1817         0.047082   
    732. D(H  55,C  45,O  23,Zr  2)   -148.4892         0.046372   
    733. D(O  31,C  45,O  23,Zr  2)     32.0858         0.046372   
    734. D(H  57,C  46,O  32,Zr  5)    163.3643         0.047029   
    735. D(O  24,C  46,O  32,Zr  5)    -15.9439         0.047029   
    736. D(H  57,C  46,O  24,Zr  3)    145.7284         0.046286   
    737. D(O  32,C  46,O  24,Zr  3)    -34.9640         0.046286   
    738. D(H  53,C  47,O  28,Zr  4)   -177.7967         0.047075   
    739. D(O  27,C  47,O  28,Zr  4)      2.1965         0.047075   
    740. D(H  53,C  47,O  27,Zr  3)   -179.1736         0.047106   
    741. D(O  28,C  47,O  27,Zr  3)      0.8331         0.047106   
    742. D(H  64,Al 60,O  17,Zr  1)      0.0720         0.010000   
    743. D(Al 61,Al 60,O  17,C  41)   -175.0432         0.010000   
    744. D(Al 61,Al 60,O  17,Zr  1)      6.7163         0.010000   
    745. D(H  63,Al 61,Al 60,H  64)    -83.9607         0.010000   
    746. D(H  62,Al 61,Al 60,H  65)   -114.7271         0.010000   
    747. D(H  62,Al 61,Al 60,H  64)    161.7846         0.010000   
    748. D(H  62,Al 61,O  19,Zr  1)     -1.0629         0.010000   
    749. D(Al 60,Al 61,O  19,C  43)    -63.7001         0.010000   
    750. D(Al 60,Al 61,O  19,Zr  1)     94.4904         0.010000   
    751. D(H  62,Al 61,O  18,Zr  1)   -109.7851         0.010000   
    752. D(Al 60,Al 61,O  18,C  42)   -151.1629         0.010000   
    753. D(Al 60,Al 61,O  18,Zr  1)    -15.6865         0.010000   
    754. D(Al 68,H  62,Al 61,H  63)   -103.1849         0.010000   
    755. D(Al 68,H  62,Al 61,Al 60)     11.9703         0.010000   
    756. D(Al 60,H  64,Al 61,H  63)     98.5476         0.010000   
    757. D(Al 60,H  64,Al 61,H  62)    -18.5964         0.010000   
    758. D(Al 61,H  64,Al 60,H  66)     17.9136         0.010000   
    759. D(Al 61,H  64,Al 60,H  65)    -99.0221         0.010000   
    760. D(Al 72,H  66,Al 60,H  64)    -15.3089         0.010000   
    761. D(Al 72,H  66,Al 60,Al 61)    -13.2198         0.010000   
    762. D(H  69,Al 68,H  62,Al 61)    -12.6959         0.010000   
    763. D(H  69,Al 68,Al 61,Al 60)     -0.5892         0.010000   
    764. D(H  62,Al 68,Al 61,H  63)     79.1639         0.010000   
    765. D(H  62,Al 68,Al 61,Al 60)   -168.1166         0.010000   
    766. D(H  62,Al 68,O  18,Zr  1)    103.6018         0.010000   
    767. D(Al 61,Al 68,O  18,C  42)    -86.8766         0.010000   
    768. D(Al 61,Al 68,O  18,Zr  1)     96.5532         0.010000   
    769. D(H  62,Al 68,O  16,Zr  1)    -15.7587         0.010000   
    770. D(Al 61,Al 68,O  16,C  40)   -168.8262         0.010000   
    771. D(H  70,Al 68,H  62,Al 61)    105.2950         0.010000   
    772. D(Al 61,Al 68,O  16,Zr  1)    -21.8236         0.010000   
    773. D(Al 72,H  69,Al 68,H  62)     13.6672         0.010000   
    774. D(Al 72,H  69,Al 68,Al 61)     12.2484         0.010000   
    775. D(H  66,Al 72,H  69,Al 68)    -14.9417         0.010000   
    776. D(Al 60,Al 72,H  69,Al 68)    -13.1114         0.010000   
    777. D(Al 60,Al 72,Al 68,H  62)      0.4112         0.010000   
    778. D(Al 60,Al 72,Al 68,Al 61)     -0.8264         0.010000   
    779. D(H  69,Al 72,H  66,Al 60)     15.8178         0.010000   
    780. D(Al 68,Al 72,H  66,Al 60)     14.0839         0.010000   
    781. D(Al 68,Al 72,Al 60,Al 61)      0.8272         0.010000   
    782. D(H  66,Al 72,Al 60,H  64)    164.9734         0.010000   
    783. D(H  66,Al 72,Al 60,Al 61)    166.8519         0.010000   
    784. D(H  66,Al 72,O  17,Zr  1)   -114.8631         0.010000   
    785. D(Al 60,Al 72,O  17,C  41)    110.0359         0.010000   
    786. D(Al 60,Al 72,O  17,Zr  1)   -107.0569         0.010000   
    787. D(H  66,Al 72,Al 68,Al 61)     -2.4478         0.010000   
    788. D(H  66,Al 72,O  16,Zr  1)     -3.4635         0.010000   
    789. D(Al 60,Al 72,O  16,C  40)    177.2595         0.010000   
    790. D(Al 60,Al 72,O  16,Zr  1)      3.0023         0.010000   
    -----------------------------------------------------------------

Number of atoms                         .... 76
Number of degrees of freedom            .... 790


         *************************************************************
         *                GEOMETRY OPTIMIZATION CYCLE   1            *
         *************************************************************
---------------------------------
CARTESIAN COORDINATES (ANGSTROEM)
---------------------------------
  Zr    -0.267042    2.073913    1.474188
  Zr     0.055697   -2.067865   -1.735220
  Zr     1.787518   -1.330052    1.127915
  Zr    -1.984288    1.329561   -1.400924
  Zr     1.358182    1.036190   -1.982327
  Zr    -1.557009   -1.042482    1.715227
  O     -1.691907    0.815445    0.620621
  O      1.486760   -0.817477   -0.887358
  O     -0.113382   -2.020073    0.417887
  O     -0.083343    2.010855   -0.677177
  O     -0.463052   -0.018858   -1.787697
  O      0.259920    0.017987    1.521280
  O     -1.642259    2.149936    2.912405
  O     -1.223619    3.718664    0.881961
  O      0.932526    1.689879    3.116636
  O      1.399279    3.077521    1.066002
  O     -1.612289   -3.060117   -1.326080
  O     -1.144722   -1.680204   -3.379348
  O      1.000142   -3.720705   -1.159664
  O      1.418543   -2.150162   -3.183103
  O      1.388013   -2.636719    2.550816
  O      2.312957   -0.179097    2.755003
  O      2.648870   -2.900474    0.271158
  O      3.464781   -0.358671    0.446700
  O     -3.638353    0.305757   -0.749292
  O     -2.880498    2.869119   -0.524190
  O     -2.487351    0.223183   -3.062743
  O     -1.572364    2.672079   -2.788331
  O      0.723613    2.503548   -3.144794
  O      2.313323    2.543075   -1.018212
  O      1.551311    0.106916   -3.729868
  O      3.323804    0.422856   -1.767867
  O     -3.525770   -0.442351    1.478087
  O     -1.769332   -0.109023    3.455689
  O     -2.506308   -2.565520    0.776016
  O     -0.912562   -2.498111    2.890127
  C     -1.987310    1.155258    3.676989
  C     -2.349564    3.786134    0.232015
  C      1.907675    0.878895    3.386573
  C      2.227112    3.223203    0.080895
  C     -2.438735   -3.216657   -0.341448
  C     -2.088191   -0.843768   -3.682251
  C      2.110311   -3.810741   -0.486969
  C      1.767754   -1.158235   -3.948957
  C      0.270144   -2.986112    3.110980
  C      3.944776    0.027712   -0.698262
  C     -4.133740   -0.063901    0.394893
  C     -0.454019    3.008014   -3.355861
  H     -2.618395   -1.063150   -4.602851
  H      2.649049   -4.756649   -0.565322
  H      2.461425    1.112483    4.289727
  H     -2.911482    4.716722    0.331841
  H      2.290674   -1.413057   -4.873341
  H     -0.509924    3.806321   -4.095713
  H      2.959378    4.016549    0.198683
  H      5.029352    0.028099   -0.768365
  H     -3.185363   -3.993976   -0.475576
  H     -5.219381   -0.066288    0.450426
  H     -2.505846    1.408006    4.604367
  H      0.331489   -3.780783    3.854291
  Al    -0.443457   -3.589933   -5.913287
  Al     1.662071   -5.328237   -4.033454
  H      0.543001   -5.849909   -2.909597
  H      2.243147   -6.578210   -4.836895
  H      0.760683   -4.362054   -5.053237
  H     -0.576959   -4.235036   -7.366523
  H     -1.804741   -3.931699   -5.009451
  H      2.849838   -4.500970   -3.359789
  Al    -0.823935   -6.242840   -2.034826
  H     -2.017664   -5.410057   -2.853363
  H     -1.098706   -7.813750   -2.082721
  H     -0.194861   -2.016751   -6.018147
  Al    -2.936176   -4.541544   -3.944414
  H     -3.938076   -5.518646   -4.710709
  H     -3.749277   -3.364464   -3.235631
  H     -0.708628   -5.731612   -0.526731

----------------------------
CARTESIAN COORDINATES (A.U.)
----------------------------
  NO LB      ZA    FRAG     MASS         X           Y           Z
   0 Zr   12.0000*   0    91.220   -0.504636    3.919128    2.785812
   1 Zr   12.0000*   0    91.220    0.105252   -3.907699   -3.279090
   2 Zr   12.0000*   0    91.220    3.377920   -2.513435    2.131451
   3 Zr   12.0000*   0    91.220   -3.749762    2.512506   -2.647363
   4 Zr   12.0000*   0    91.220    2.566592    1.958115   -3.746056
   5 Zr   12.0000*   0    91.220   -2.942321   -1.970006    3.241309
   6 O     8.0000    0    15.999   -3.197241    1.540969    1.172804
   7 O     8.0000    0    15.999    2.809570   -1.544808   -1.676864
   8 O     8.0000    0    15.999   -0.214261   -3.817385    0.789691
   9 O     8.0000    0    15.999   -0.157496    3.799966   -1.279680
  10 O     8.0000    0    15.999   -0.875041   -0.035637   -3.378257
  11 O     8.0000    0    15.999    0.491177    0.033991    2.874802
  12 O     8.0000    0    15.999   -3.103420    4.062791    5.503648
  13 O     8.0000    0    15.999   -2.312305    7.027256    1.666665
  14 O     8.0000    0    15.999    1.762219    3.193408    5.889588
  15 O     8.0000    0    15.999    2.644254    5.815671    2.014452
  16 O     8.0000    0    15.999   -3.046784   -5.782784   -2.505929
  17 O     8.0000    0    15.999   -2.163211   -3.175125   -6.386042
  18 O     8.0000    0    15.999    1.889995   -7.031113   -2.191448
  19 O     8.0000    0    15.999    2.680658   -4.063218   -6.015193
  20 O     8.0000    0    15.999    2.622965   -4.982677    4.820343
  21 O     8.0000    0    15.999    4.370855   -0.338444    5.206201
  22 O     8.0000    0    15.999    5.005638   -5.481101    0.512415
  23 O     8.0000    0    15.999    6.547487   -0.677790    0.844141
  24 O     8.0000    0    15.999   -6.875491    0.577797   -1.415956
  25 O     8.0000    0    15.999   -5.443352    5.421849   -0.990576
  26 O     8.0000    0    15.999   -4.700412    0.421754   -5.787745
  27 O     8.0000    0    15.999   -2.971337    5.049497   -5.269182
  28 O     8.0000    0    15.999    1.367431    4.731020   -5.942800
  29 O     8.0000    0    15.999    4.371548    4.805716   -1.924142
  30 O     8.0000    0    15.999    2.931553    0.202043   -7.048430
  31 O     8.0000    0    15.999    6.281079    0.799081   -3.340784
  32 O     8.0000    0    15.999   -6.662740   -0.835922    2.793180
  33 O     8.0000    0    15.999   -3.343552   -0.206024    6.530305
  34 O     8.0000    0    15.999   -4.736236   -4.848130    1.466458
  35 O     8.0000    0    15.999   -1.724492   -4.720746    5.461549
  36 C     6.0000    0    12.011   -3.755471    2.183121    6.948503
  37 C     6.0000    0    12.011   -4.440032    7.154757    0.438445
  38 C     6.0000    0    12.011    3.604982    1.660871    6.399695
  39 C     6.0000    0    12.011    4.208632    6.090971    0.152870
  40 C     6.0000    0    12.011   -4.608542   -6.078601   -0.645243
  41 C     6.0000    0    12.011   -3.946110   -1.594491   -6.958447
  42 C     6.0000    0    12.011    3.987910   -7.201257   -0.920237
  43 C     6.0000    0    12.011    3.340571   -2.188747   -7.462447
  44 C     6.0000    0    12.011    0.510499   -5.642934    5.878900
  45 C     6.0000    0    12.011    7.454547    0.052368   -1.319523
  46 C     6.0000    0    12.011   -7.811637   -0.120755    0.746239
  47 C     6.0000    0    12.011   -0.857971    5.684323   -6.341659
  48 H     1.0000    0     1.008   -4.948050   -2.009063   -8.698127
  49 H     1.0000    0     1.008    5.005976   -8.988763   -1.068304
  50 H     1.0000    0     1.008    4.651420    2.102288    8.106408
  51 H     1.0000    0     1.008   -5.501904    8.913312    0.627088
  52 H     1.0000    0     1.008    4.328747   -2.670291   -9.209279
  53 H     1.0000    0     1.008   -0.963616    7.192904   -7.739776
  54 H     1.0000    0     1.008    5.592414    7.590178    0.375456
  55 H     1.0000    0     1.008    9.504099    0.053099   -1.452000
  56 H     1.0000    0     1.008   -6.019464   -7.547521   -0.898708
  57 H     1.0000    0     1.008   -9.863201   -0.125267    0.851181
  58 H     1.0000    0     1.008   -4.735363    2.660746    8.700993
  59 H     1.0000    0     1.008    0.626424   -7.144644    7.283555
  60 Al   13.0000    0    26.982   -0.838012   -6.783991  -11.174493
  61 Al   13.0000    0    26.982    3.140860  -10.068909   -7.622124
  62 H     1.0000    0     1.008    1.026123  -11.054726   -5.498342
  63 H     1.0000    0     1.008    4.238933  -12.431015   -9.140408
  64 H     1.0000    0     1.008    1.437483   -8.243087   -9.549233
  65 H     1.0000    0     1.008   -1.090295   -8.003058  -13.920711
  66 H     1.0000    0     1.008   -3.410466   -7.429834   -9.466490
  67 H     1.0000    0     1.008    5.385413   -8.505601   -6.349081
[...]
Total Mass          ...  1303.54 AMU
Quasi RRHO          ...     True
Cut-Off Frequency   ...     1.00 cm^-1

Throughout the following assumptions are being made:
  (1) The electronic state is orbitally nondegenerate
  (2) There are no thermally accessible electronically excited states
  (3) Hindered rotations indicated by low frequency modes are not
      treated as such but are treated as vibrations and this may
      cause some error
  (4) All equations used are the standard statistical mechanics
      equations for an ideal gas
  (5) All vibrations are strictly harmonic

freq.      14.37  E(vib)   ...       0.57 
freq.      20.33  E(vib)   ...       0.56 
freq.      28.85  E(vib)   ...       0.55 
freq.      31.55  E(vib)   ...       0.55 
freq.      36.94  E(vib)   ...       0.54 
freq.      40.66  E(vib)   ...       0.54 
freq.      43.74  E(vib)   ...       0.53 
freq.      54.63  E(vib)   ...       0.52 
freq.      59.34  E(vib)   ...       0.51 
freq.      66.46  E(vib)   ...       0.50 
freq.      69.82  E(vib)   ...       0.50 
freq.      78.72  E(vib)   ...       0.49 
freq.      80.62  E(vib)   ...       0.48 
freq.      90.40  E(vib)   ...       0.47 
freq.      93.85  E(vib)   ...       0.47 
freq.      97.50  E(vib)   ...       0.46 
freq.      99.94  E(vib)   ...       0.46 
freq.     100.42  E(vib)   ...       0.46 
freq.     103.22  E(vib)   ...       0.46 
freq.     105.34  E(vib)   ...       0.45 
freq.     108.15  E(vib)   ...       0.45 
freq.     109.15  E(vib)   ...       0.45 
freq.     115.69  E(vib)   ...       0.44 
freq.     116.34  E(vib)   ...       0.44 
freq.     122.31  E(vib)   ...       0.43 
freq.     127.06  E(vib)   ...       0.43 
freq.     130.86  E(vib)   ...       0.42 
freq.     144.33  E(vib)   ...       0.41 
freq.     145.06  E(vib)   ...       0.41 
freq.     145.67  E(vib)   ...       0.41 
freq.     149.98  E(vib)   ...       0.40 
freq.     151.62  E(vib)   ...       0.40 
freq.     152.68  E(vib)   ...       0.40 
freq.     154.68  E(vib)   ...       0.40 
freq.     156.29  E(vib)   ...       0.40 
freq.     158.85  E(vib)   ...       0.39 
freq.     163.38  E(vib)   ...       0.39 
freq.     164.71  E(vib)   ...       0.39 
freq.     166.45  E(vib)   ...       0.39 
freq.     168.62  E(vib)   ...       0.38 
freq.     170.85  E(vib)   ...       0.38 
freq.     172.03  E(vib)   ...       0.38 
freq.     185.34  E(vib)   ...       0.37 
freq.     188.57  E(vib)   ...       0.36 
freq.     189.29  E(vib)   ...       0.36 
freq.     192.52  E(vib)   ...       0.36 
freq.     195.80  E(vib)   ...       0.36 
freq.     197.89  E(vib)   ...       0.35 
freq.     203.41  E(vib)   ...       0.35 
freq.     209.70  E(vib)   ...       0.34 
freq.     211.46  E(vib)   ...       0.34 
freq.     211.89  E(vib)   ...       0.34 
freq.     228.56  E(vib)   ...       0.32 
freq.     231.07  E(vib)   ...       0.32 
freq.     231.85  E(vib)   ...       0.32 
freq.     235.83  E(vib)   ...       0.32 
freq.     242.05  E(vib)   ...       0.31 
freq.     259.22  E(vib)   ...       0.30 
freq.     259.83  E(vib)   ...       0.30 
freq.     261.64  E(vib)   ...       0.30 
freq.     262.99  E(vib)   ...       0.29 
freq.     264.08  E(vib)   ...       0.29 
freq.     264.84  E(vib)   ...       0.29 
freq.     266.19  E(vib)   ...       0.29 
freq.     268.43  E(vib)   ...       0.29 
freq.     271.58  E(vib)   ...       0.29 
freq.     271.73  E(vib)   ...       0.29 
freq.     273.78  E(vib)   ...       0.28 
freq.     273.95  E(vib)   ...       0.28 
freq.     276.40  E(vib)   ...       0.28 
freq.     277.66  E(vib)   ...       0.28 
freq.     278.43  E(vib)   ...       0.28 
freq.     281.13  E(vib)   ...       0.28 
freq.     283.14  E(vib)   ...       0.28 
freq.     286.75  E(vib)   ...       0.27 
freq.     287.39  E(vib)   ...       0.27 
freq.     290.58  E(vib)   ...       0.27 
freq.     292.11  E(vib)   ...       0.27 
freq.     293.37  E(vib)   ...       0.27 
freq.     301.13  E(vib)   ...       0.26 
freq.     305.24  E(vib)   ...       0.26 
freq.     306.54  E(vib)   ...       0.26 
freq.     307.48  E(vib)   ...       0.26 
freq.     308.83  E(vib)   ...       0.26 
freq.     312.79  E(vib)   ...       0.25 
freq.     314.28  E(vib)   ...       0.25 
freq.     316.56  E(vib)   ...       0.25 
freq.     320.24  E(vib)   ...       0.25 
freq.     324.18  E(vib)   ...       0.25 
freq.     329.43  E(vib)   ...       0.24 
freq.     337.06  E(vib)   ...       0.24 
freq.     340.80  E(vib)   ...       0.23 
freq.     349.82  E(vib)   ...       0.23 
freq.     351.59  E(vib)   ...       0.23 
freq.     360.04  E(vib)   ...       0.22 
freq.     369.69  E(vib)   ...       0.21 
freq.     384.44  E(vib)   ...       0.20 
freq.     394.64  E(vib)   ...       0.20 
freq.     399.14  E(vib)   ...       0.19 
freq.     400.86  E(vib)   ...       0.19 
freq.     403.45  E(vib)   ...       0.19 
freq.     407.43  E(vib)   ...       0.19 
freq.     416.40  E(vib)   ...       0.18 
freq.     417.53  E(vib)   ...       0.18 
freq.     418.65  E(vib)   ...       0.18 
freq.     420.80  E(vib)   ...       0.18 
freq.     430.68  E(vib)   ...       0.18 
freq.     431.39  E(vib)   ...       0.18 
freq.     437.75  E(vib)   ...       0.17 
freq.     471.15  E(vib)   ...       0.15 
freq.     475.27  E(vib)   ...       0.15 
freq.     476.85  E(vib)   ...       0.15 
freq.     478.63  E(vib)   ...       0.15 
freq.     482.39  E(vib)   ...       0.15 
freq.     499.21  E(vib)   ...       0.14 
freq.     521.85  E(vib)   ...       0.13 
freq.     538.56  E(vib)   ...       0.12 
freq.     625.11  E(vib)   ...       0.09 
freq.     671.95  E(vib)   ...       0.08 
freq.     675.92  E(vib)   ...       0.08 
freq.     682.08  E(vib)   ...       0.08 
freq.     684.33  E(vib)   ...       0.07 
freq.     685.70  E(vib)   ...       0.07 
freq.     686.96  E(vib)   ...       0.07 
freq.     690.16  E(vib)   ...       0.07 
freq.     691.86  E(vib)   ...       0.07 
freq.     699.98  E(vib)   ...       0.07 
freq.     702.06  E(vib)   ...       0.07 
freq.     706.23  E(vib)   ...       0.07 
freq.     722.66  E(vib)   ...       0.07 
freq.     725.10  E(vib)   ...       0.06 
freq.     731.09  E(vib)   ...       0.06 
freq.     732.88  E(vib)   ...       0.06 
freq.     734.43  E(vib)   ...       0.06 
freq.     734.68  E(vib)   ...       0.06 
freq.     736.03  E(vib)   ...       0.06 
freq.     737.66  E(vib)   ...       0.06 
freq.     738.37  E(vib)   ...       0.06 
freq.     738.63  E(vib)   ...       0.06 
freq.     739.25  E(vib)   ...       0.06 
freq.     739.93  E(vib)   ...       0.06 
freq.     740.73  E(vib)   ...       0.06 
freq.     741.31  E(vib)   ...       0.06 
freq.     742.61  E(vib)   ...       0.06 
freq.     747.58  E(vib)   ...       0.06 
freq.     774.52  E(vib)   ...       0.05 
freq.     994.87  E(vib)   ...       0.02 
freq.     996.07  E(vib)   ...       0.02 
freq.     999.29  E(vib)   ...       0.02 
freq.     999.85  E(vib)   ...       0.02 
freq.    1000.91  E(vib)   ...       0.02 
freq.    1001.54  E(vib)   ...       0.02 
freq.    1001.74  E(vib)   ...       0.02 
freq.    1003.18  E(vib)   ...       0.02 
freq.    1006.01  E(vib)   ...       0.02 
freq.    1006.11  E(vib)   ...       0.02 
freq.    1006.62  E(vib)   ...       0.02 
freq.    1007.40  E(vib)   ...       0.02 
freq.    1349.28  E(vib)   ...       0.01 
freq.    1350.28  E(vib)   ...       0.01 
freq.    1352.19  E(vib)   ...       0.01 
freq.    1354.56  E(vib)   ...       0.01 
freq.    1355.33  E(vib)   ...       0.01 
freq.    1355.41  E(vib)   ...       0.01 
freq.    1355.96  E(vib)   ...       0.01 
freq.    1356.65  E(vib)   ...       0.01 
freq.    1357.65  E(vib)   ...       0.01 
freq.    1358.12  E(vib)   ...       0.01 
freq.    1358.45  E(vib)   ...       0.01 
freq.    1359.19  E(vib)   ...       0.01 
freq.    1361.81  E(vib)   ...       0.01 
freq.    1361.86  E(vib)   ...       0.01 
freq.    1363.26  E(vib)   ...       0.01 
freq.    1364.96  E(vib)   ...       0.01 
freq.    1365.21  E(vib)   ...       0.01 
freq.    1365.72  E(vib)   ...       0.01 
freq.    1367.03  E(vib)   ...       0.01 
freq.    1367.33  E(vib)   ...       0.01 
freq.    1367.82  E(vib)   ...       0.01 
freq.    1371.33  E(vib)   ...       0.01 
freq.    1371.95  E(vib)   ...       0.01 
freq.    1380.33  E(vib)   ...       0.01 
freq.    1538.51  E(vib)   ...       0.00 
freq.    1547.00  E(vib)   ...       0.00 
freq.    1563.01  E(vib)   ...       0.00 
freq.    1564.63  E(vib)   ...       0.00 
freq.    1568.42  E(vib)   ...       0.00 
freq.    1576.47  E(vib)   ...       0.00 
freq.    1577.54  E(vib)   ...       0.00 
freq.    1631.55  E(vib)   ...       0.00 
freq.    1632.82  E(vib)   ...       0.00 
freq.    1636.41  E(vib)   ...       0.00 
freq.    1637.61  E(vib)   ...       0.00 
freq.    1639.15  E(vib)   ...       0.00 
freq.    1831.96  E(vib)   ...       0.00 
freq.    1862.47  E(vib)   ...       0.00 
freq.    1866.31  E(vib)   ...       0.00 
freq.    1867.01  E(vib)   ...       0.00 
freq.    1882.71  E(vib)   ...       0.00 
freq.    1898.06  E(vib)   ...       0.00 
freq.    1898.38  E(vib)   ...       0.00 
freq.    1904.06  E(vib)   ...       0.00 
freq.    1908.75  E(vib)   ...       0.00 
freq.    1960.73  E(vib)   ...       0.00 
freq.    1962.44  E(vib)   ...       0.00 
freq.    1991.92  E(vib)   ...       0.00 
freq.    2880.53  E(vib)   ...       0.00 
freq.    2886.62  E(vib)   ...       0.00 
freq.    2891.30  E(vib)   ...       0.00 
freq.    2891.74  E(vib)   ...       0.00 
freq.    2895.62  E(vib)   ...       0.00 
freq.    2897.48  E(vib)   ...       0.00 
freq.    2905.06  E(vib)   ...       0.00 
freq.    2906.75  E(vib)   ...       0.00 
freq.    2906.99  E(vib)   ...       0.00 
freq.    2907.87  E(vib)   ...       0.00 
freq.    2909.06  E(vib)   ...       0.00 
freq.    2910.32  E(vib)   ...       0.00 

------------
INNER ENERGY
------------

The inner energy is: U= E(el) + E(ZPE) + E(vib) + E(rot) + E(trans)
    E(el)   - is the total energy from the electronic structure calculation
              = E(kin-el) + E(nuc-el) + E(el-el) + E(nuc-nuc)
    E(ZPE)  - the the zero temperature vibrational energy from the frequency calculation
    E(vib)  - the the finite temperature correction to E(ZPE) due to population
              of excited vibrational states
    E(rot)  - is the rotational thermal energy
    E(trans)- is the translational thermal energy

Summary of contributions to the inner energy U:
Electronic energy                ...  -3976.49824626 Eh
Zero point energy                ...      0.38903586 Eh     244.12 kcal/mol
Thermal vibrational correction   ...      0.06468479 Eh      40.59 kcal/mol
Thermal rotational correction    ...      0.00141627 Eh       0.89 kcal/mol
Thermal translational correction ...      0.00141627 Eh       0.89 kcal/mol
-----------------------------------------------------------------------
Total thermal energy                  -3976.04169308 Eh


Summary of corrections to the electronic energy:
(perhaps to be used in another calculation)
Total thermal correction                  0.06751733 Eh      42.37 kcal/mol
Non-thermal (ZPE) correction              0.38903586 Eh     244.12 kcal/mol
-----------------------------------------------------------------------
Total correction                          0.45655319 Eh     286.49 kcal/mol


--------
ENTHALPY
--------

The enthalpy is H = U + kB*T
                kB is Boltzmann's constant
Total thermal energy              ...  -3976.04169308 Eh 
Thermal Enthalpy correction       ...      0.00094421 Eh       0.59 kcal/mol
-----------------------------------------------------------------------
Total Enthalpy                    ...  -3976.04074887 Eh


Note: Only C1 symmetry has been detected, increase convergence thresholds 
      if your molecule has a higher symmetry. Symmetry factor of 1.0 is   
      used for the rotational entropy correction. 
 

Note: Rotational entropy computed according to Herzberg 
Infrared and Raman Spectra, Chapter V,1, Van Nostrand Reinhold, 1945 
Point Group:  C1, Symmetry Number:   1  
Rotational constants in cm-1:     0.001705     0.001161     0.001135 

Vibrational entropy computed according to the QRRHO of S. Grimme
Chem.Eur.J. 2012 18 9955 using a reference frequency of 100.0 cm-1


-------
ENTROPY
-------

The entropy contributions are T*S = T*(S(el)+S(vib)+S(rot)+S(trans))
     S(el)   - electronic entropy
     S(vib)  - vibrational entropy
     S(rot)  - rotational entropy
     S(trans)- translational entropy
The entropies will be listed as multiplied by the temperature to get
units of energy

Electronic entropy                ...      0.00000000 Eh      0.00 kcal/mol
Vibrational entropy               ...      0.11654576 Eh     73.13 kcal/mol
Rotational entropy                ...      0.01891209 Eh     11.87 kcal/mol
Translational entropy             ...      0.02250776 Eh     14.12 kcal/mol
-----------------------------------------------------------------------
Final entropy term                ...      0.15796561 Eh     99.12 kcal/mol

In case the symmetry of your molecule has not been determined correctly
or in case you have a reason to use a different symmetry number we print 
out the resulting rotational entropy values for sn=1,12:

 non-linear molecules -----------------------------------
|  sn= 1 | S(rot)=       0.01891209 Eh     11.87 kcal/mol|
|  sn= 2 | S(rot)=       0.01825763 Eh     11.46 kcal/mol|
|  sn= 3 | S(rot)=       0.01787480 Eh     11.22 kcal/mol|
|  sn= 4 | S(rot)=       0.01760318 Eh     11.05 kcal/mol|
|  sn= 5 | S(rot)=       0.01739249 Eh     10.91 kcal/mol|
|  sn= 6 | S(rot)=       0.01722034 Eh     10.81 kcal/mol|
|  sn= 7 | S(rot)=       0.01707480 Eh     10.71 kcal/mol|
|  sn= 8 | S(rot)=       0.01694872 Eh     10.64 kcal/mol|
|  sn= 9 | S(rot)=       0.01683751 Eh     10.57 kcal/mol|
|  sn=10 | S(rot)=       0.01673803 Eh     10.50 kcal/mol|
|  sn=11 | S(rot)=       0.01664804 Eh     10.45 kcal/mol|
|  sn=12 | S(rot)=       0.01656589 Eh     10.40 kcal/mol|
 linear molecules ---------------------------------------
|  Dinfh | S(rot)=       0.01172862 Eh      7.36 kcal/mol|
|  Cinfv | S(rot)=       0.01238307 Eh      7.77 kcal/mol|
 --------------------------------------------------------


-------------------
GIBBS FREE ENERGY
-------------------

The Gibbs free energy is G = H - T*S

Total enthalpy                    ...  -3976.04074887 Eh 
Total entropy correction          ...     -0.15796561 Eh    -99.12 kcal/mol
-----------------------------------------------------------------------
Final Gibbs free energy         ...  -3976.19871448 Eh

For completeness - the Gibbs free energy minus the electronic energy
G-E(el)                           ...      0.29953178 Eh    187.96 kcal/mol


Maximum memory used throughout the entire PROP-calculation: 152.9 MB

--------------------------------
SUGGESTED CITATIONS FOR THIS RUN
--------------------------------

Below you find a list of papers that are relevant to this ORCA run
We neither can nor want to force you to cite these papers, but we appreciate if you do
You receive ORCA, which is the product of decades of hard work by many enthusiastic individuals, for free
The only thing we kindly ask in return is that you cite our papers,
We deeply appreciate it, if you show your appreciation for ORCA by not just citing the generic ORCA reference.

Please note that relegating all ORCA citations to the supporting information does *not* help us.
SI sections are not indexed - citations you put there will not count into any citation statistics
But we need these citations in order to attract the funding resources that allow us to do what we are doing

Therefore, if you are a happy ORCA user, please consider citing a few of the papers listed below in the main body of your paper

In addition to the list printed below, the program has created the file run.bibtex that contains the list in bibtex format
You can import this file easily into all common literature databanks and citation aid programs


List of essential papers. We consider these as the minimum necessary citations

  1. Neese, F.
     Software update: the ORCA program system, version 6.0
     WIRES Comput. Molec. Sci. 2025 15(1), e70019
     doi.org/10.1002/wcms.7019

List of papers to cite with high priority. The work reported in these papers was absolutely
necessary for this run to complete.
Our perspective: the developers of density functionals and basis sets usually get cited in chemistry papers
Good! But without the algorithms to do something with them, the functionals or basis sets would not do anything.
Hence, in our opinion, the algorithm design and method developments papers are equally worthy of getting cited

  1. Neese, F.
     An improvement of the resolution of the identity approximation for the formation of the Coulomb matrix
     J. Comp. Chem. 2003 24(14), 1740-1747
     doi.org/10.1002/jcc.10318
  2. Grimme, S.; Antony, J.; Ehrlich, S.; Krieg, H.
     A consistent and accurate ab initio parametrization of density functional dispersion correction (DFT-D) for the 94 elements H-Pu
     J. Chem. Phys. 2010 132 , 154104
     doi.org/10.1063/1.3382344
  3. Grimme, S.; Ehrlich, S.; Goerigk, L.
     Effect of the damping function in dispersion corrected density functional theory
     J. Comput. Chem. 2011 32(7), 1456-1465
     doi.org/10.1002/jcc.21759
  4. Bykov, D.; Petrenko, T.; Izsak, R.; Kossmann, S.; Becker, U.; Valeev, E.; Neese, F.
     Efficient implementation of the analytic second derivatives of Hartree-Fock and hybrid DFT energies: a detailed analysis of different approximations
     Molec. Phys. 2015 113 , 1961-1977
     doi.org/10.1080/00268976.2015.1025114
  5. Helmich-Paris, B.
     A trust-region augmented Hessian implementation for restricted and unrestricted Hartree–Fock and Kohn–Sham methods
     J. Chem. Phys. 2021 154 , 164104
     doi.org/10.1063/5.0040798
  6. Neese, F.
     The SHARK Integral Generation and Digestion System
     J. Comp. Chem. 2022 44(3), 381
     doi.org/10.1002/jcc.26942

List of suggested additional citations. These are papers that are important in the 'surrounding' of 
of this run, or papers that preceded the highly important papers. If you like your results we are grateful for a citation.

  1. Neese, F.
     The ORCA program system
     WIRES Comput. Molec. Sci. 2012 2(1), 73-78
     doi.org/10.1002/wcms.81
  2. Neese, F.
     Software update: the ORCA program system, version 4.0
     WIRES Comput. Molec. Sci. 2018 8(1), 1-6
     doi.org/10.1002/wcms.1327
  3. Neese, F.; Wennmohs, F.; Becker, U.; Riplinger, C.
     The ORCA quantum chemistry program package
     J. Chem. Phys. 2020 152(22), 224108
     doi.org/10.1063/5.0004608
  4. Neese, F.
     Software update: The ORCA program system—Version 5.0
     WIRES Comput. Molec. Sci. 2022 12(1), e1606
     doi.org/10.1002/wcms.1606

List of optional additional citations

  1. Neese, F.
     Approximate second-order SCF convergence for spin unrestricted wavefunctions
     Chem. Phys. Lett. 2000 325(1-3), 93-98
     doi.org/10.1016/s0009-2614(00)00662-x

Timings for individual modules:

Sum of individual times          ...     9446.895 sec (= 157.448 min)
Startup calculation              ...      342.048 sec (=   5.701 min)   3.6 %
SCF iterations                   ...     2469.704 sec (=  41.162 min)  26.1 %
Property integrals               ...     2262.476 sec (=  37.708 min)  23.9 %
SCF Response                     ...     1516.817 sec (=  25.280 min)  16.1 %
Property calculations            ...     2010.787 sec (=  33.513 min)  21.3 %
SCF Gradient evaluation          ...      831.546 sec (=  13.859 min)   8.8 %
Geometry relaxation              ...       13.517 sec (=   0.225 min)   0.1 %
                             ****ORCA TERMINATED NORMALLY****
TOTAL RUN TIME: 0 days 2 hours 37 minutes 49 seconds 335 msec
