
                                 *****************
                                 * O   R   C   A *
                                 *****************

                                            #,                                       
                                            ###                                      
                                            ####                                     
                                            #####                                    
                                            ######                                   
                                           ########,                                 
                                     ,,################,,,,,                         
                               ,,#################################,,                 
                          ,,##########################################,,             
                       ,#########################################, ''#####,          
                    ,#############################################,,   '####,        
                  ,##################################################,,,,####,       
                ,###########''''           ''''###############################       
              ,#####''   ,,,,##########,,,,          '''####'''          '####       
            ,##' ,,,,###########################,,,                        '##       
           ' ,,###''''                  '''############,,,                           
         ,,##''                                '''############,,,,        ,,,,,,###''
      ,#''                                            '''#######################'''  
     '                                                          ''''####''''         
             ,#######,   #######,   ,#######,      ##                                
            ,#'     '#,  ##    ##  ,#'     '#,    #''#        ,####,    ,#,          
            ##       ##  ##   ,#'  ##            #'  '#       #'       ,# #          
            ##       ##  #######   ##           ,######,      #####,      #          
            '#,     ,#'  ##    ##  '#,     ,#' ,#      #,     #,   #      #          
             '#######'   ##     ##  '#######'  #'      '#     '####' #    #          



                #########################################################
                #                        -***-                          #
                #          Department of theory and spectroscopy        #
                #                                                       #
                #                      Frank Neese                      #
                #                                                       #
                #     Directorship, Architecture, Infrastructure        #
                #                    SHARK, DRIVERS                     #
                #        Core code/Algorithms in most modules           #
                #                                                       #
                #        Max Planck Institute fuer Kohlenforschung      #
                #                Kaiser Wilhelm Platz 1                 #
                #                 D-45470 Muelheim/Ruhr                 #
                #                      Germany                          #
                #                                                       #
                #                  All rights reserved                  #
                #                        -***-                          #
                #########################################################


                         Program Version 6.1.0  -  RELEASE   -
                                (GIT: $679e74b$)
                          ($2025-06-10 18:02:51 +0200$)


 With contributions from (in alphabetic order):
[Max-Planck-Institut fuer Kohlenforschung]                               
  Daniel Aravena         : Magnetic Suceptibility                        
  Michael Atanasov       : Ab Initio Ligand Field Theory (pilot matlab implementation)
  Alexander A. Auer      : GIAO ZORA, VPT2 properties, NMR spectrum      
  Ute Becker             : All parallelization in ORCA, NUMFREQ, NUMCALC 
  Giovanni Bistoni       : ED, misc. LED, open-shell LED, HFLD           
  Dmytro Bykov           : pre 5.0 version of the SCF Hessian            
  Marcos Casanova-Páez   : Triplet and SCS-CIS(D). UHF-(DLPNO)-IP/EA/STEOM-CCSD. UHF-CVS-IP/STEOM-CCSD   
  Vijay G. Chilkuri      : MRCI spin determinant printing, contributions to CSF-ICE 
  Pauline Colinet        : FMM embedding                                 
  Dipayan Datta          : RHF DLPNO-CCSD density                        
  Achintya Kumar Dutta   : EOM-CC, STEOM-CC                              
  Nicolas Foglia         : Exact transition moments, OPA infrastructure, MCD improvements    
  Dmitry Ganyushin       : Spin-Orbit,Spin-Spin,Magnetic field MRCI      
  Miquel Garcia-Rates    : C-PCM and meta-GGA Hessian, CCSD/C-PCM, Gaussian charge scheme 
  Tiago L. C. Gouveia    : GS-ROHF, GS-ROCIS                             
  Yang Guo               : DLPNO-NEVPT2, F12-NEVPT2, CIM, IAO-localization        
  Andreas Hansen         : Spin unrestricted coupled pair/coupled cluster methods 
  Ingolf Harden          : AUTO-CI MPn and infrastructure                
  Benjamin Helmich-Paris : MC-RPA, TRAH-(SCF,CASSCF), AVAS, COSX integrals, SCF dyn. polar., MC-PDFT, srDFT 
  Lee Huntington         : MR-EOM, pCC                                   
  Robert Izsak           : Overlap fitted RIJCOSX, COSX-SCS-MP3, EOM     
  Riya Kayal             : Wick's Theorem for AUTO-CI, AUTO-CI UHF-CCSDT 
  Emily Kempfer          : AUTO-CI RHF CISDT and CCSDT, approximate NEVPT4
  Christian Kollmar      : KDIIS, OOCD, Brueckner-CCSD(T), CCSD density, CASPT2, CASPT2-K, improved NEVPT2 
  Axel Koslowski         : Symmetry handling                             
  Simone Kossmann        : meta-GGA functionals, TD-DFT gradient, OOMP2, (MP2 Hessian; deprecated post 5.0) 
  Lucas Lang             : DCDCAS, Hyperfine gauge corrections, ICE-SOC+SSC
  Marvin Lechner         : AUTO-CI (C++ implementation), FIC-MRCC        
  Spencer Leger          : CASSCF response                               
  Dagmar Lenk            : GEPOL surface, SMD, ORCA-2-JSON               
  Dimitrios Liakos       : Extrapolation schemes; Compound Job, Property file
  Dimitrios Manganas     : Further ROCIS development; embedding schemes. LFT, Crystal Embedding 
  Dimitrios Pantazis     : SARC Basis sets                               
  Anastasios Papadopoulos: AUTO-CI, single reference methods and gradients 
  Taras Petrenko         : pre 6.0 DFT Hessian and TD-DFT gradient,  ECA, NRVS 
  Petra Pikulova         : Analytic Raman intensities                    
  Peter Pinski           : DLPNO-MP2, DLPNO-MP2 Gradient                 
  Shashank Vittal Rao    : ES-AILFT, MagRelax                            
  Christoph Reimann      : Effective Core Potentials                     
  Marius Retegan         : Local ZFS, SOC                                
  Christoph Riplinger    : Optimizer, TS searches, QM/MM, DLPNO-CCSD(T), (RO)-DLPNO pert. Triples 
  Michael Roemelt        : Original ROCIS implementation, recursive CI coupling coefficients
  Masaaki Saitow         : Open-shell DLPNO-CCSD energy and density      
  Barbara Sandhoefer     : DKH picture change effects                    
  Yorick L. A. Schmerwitz: GMF and freeze-and-release deltaSCF, NEB S-IDPP initial path                    
  Kantharuban Sivalingam : CASSCF convergence/infrastructure, NEVPT2, NEVPT3, NEVPT4(SD), FIC-MRCI and CEPA variants
  Bernardo de Souza      : ESD, SOC TD-DFT                               
  Georgi L. Stoychev     : AutoAux, RI-MP2 NMR, DLPNO-MP2 response, X2C  
  Van Anh Tran           : RI-MP2 g-tensors                              
  Willem Van den Heuvel  : Paramagnetic NMR                              
  Zikuan Wang            : NOTCH, Electric field optimization            
  Frank Wennmohs         : Technical directorship and infrastructure     
  Hang Xu                : AUTO-CI-Response properties                   
                                                                         
[FACCTs GmbH]                                                            
  Markus Bursch, Nicolas Foglia, Miquel Garcia-Rates, Ingolf Harden, Hagen Neugebauer, Anastasios Papadopoulos, 
  Christoph Riplinger, Bernardo de Souza, Georgi L. Stoychev                                                    
                                                                 
  APM, various basis sets, CI-OPT, improved COSX, DLPNO-Multilevel,           
  DOCKER, DRACO, updates on ESD, Fragmentator, GOAT, IRC, LR-CPCM, L-BFGS, MBIS, meta-GGA TD-DFT gradient, ML-optimized integration grids, 
  MM, NACMEs, nearIR, NEB, NEB-TS, NL-DFT gradient (VV10), 2- and 3-layer-ONIOM, interface openCOSMO-RS, QMMM,   
  Crystal-QMMM, RESP, rigid body optimization, SF, symmetry and pop. for TD-DFT, various functionals, SOLVATOR                                   
                                                                         
[Other institutions]                                                     
  V. Asgeirsson          : NEB                                           
  Christoph Bannwarth    : sTDA-DFT, sTD-DFT, PBEh-3c, B97-3c, D3        
  Giovanni Bistoni       : ETS/NOCV, ADLD/ADEX, COVALED                  
  Martin Brehm           : Molecular dynamics                            
  Ronald Cardenas        : ETS/NOCV                                      
  Martina Colucci        : COVALED                                       
  Sebastian Ehlert       : rSCAN, r2SCAN, r2SCAN-3c, D4, dhf basis sets  
  Marvin Friede          : D4 for Fr, Ra, Ac-Lr                          
  Lars Goerigk           : TD-DFT with DH, B97 family of functionals     
  Stefan Grimme          : VdW corrections, initial TS optimization, DFT functionals, gCP, sTDA/sTD-DF 
  Waldemar Hujo          : DFT-NL                                        
  H. Jonsson             : NEB                                           
  Holger Kruse           : gCP                                           
  Marcel Mueller         : wB97X-3c, vDZP basis set                      
  Hagen Neugebauer       : wr2SCAN, Native XTB                           
  Gianluca Regni         : ADLD/ADEX                                     
  Tobias Risthaus        : pre 6.0 range-separated hybrid DFT and stability analysis
  Lukas Wittmann         : regularized MP2, r2SCAN double-hybrids, wr2SCAN        
                                                                         
We gratefully acknowledge several colleagues who have allowed us to      
interface, adapt or use parts of their codes:                            
  Ed Valeev, F. Pavosevic, A. Kumar             : LibInt (2-el integral package), F12 methods 
  Garnet Chan, S. Sharma, J. Yang, R. Olivares  : DMRG                   
  Ulf Ekstrom                                   : XCFun DFT Library      
  Mihaly Kallay                                 : mrcc  (arbitrary order and MRCC methods)
  Frank Weinhold                                : gennbo (NPA and NBO analysis)           
  Simon Mueller                                 : openCOSMO-RS                            
  Christopher J. Cramer and Donald G. Truhlar   : smd solvation model                     
  S Lehtola, MJT Oliveira, MAL Marques          : LibXC Library                           
  Liviu Ungur et al                             : ANISO software                          


 Your calculation uses the libint2 library for the computation of 2-el integrals
 For citations please refer to: http://libint.valeyev.net

 Your ORCA version has been built with support for libXC version: 7.0.0
 For citations please refer to: https://libxc.gitlab.io

 This ORCA versions uses:
   CBLAS   interface :  Fast vector & matrix operations
   LAPACKE interface :  Fast linear algebra routines
   SCALAPACK package :  Parallel linear algebra routines
   Shared memory     :  Shared parallel matrices
   BLAS/LAPACK       :  OpenBLAS 0.3.29  USE64BITINT DYNAMIC_ARCH NO_AFFINITY Prescott SINGLE_THREADED
        Core in use  :  Prescott
   Copyright (c) 2011-2014, The OpenBLAS Project


  ***********************************
  * Starting time: Wed Aug 13 01:17:52 2025
  * Host name:     cuda5
  * Process ID:    157285
  * Working dir.:  /local/scratch/mehlhorn/61836
  ***********************************



***************************************
The coordinates will be read from file: start.xyz
***************************************


Your calculation utilizes the geometrical counterpoise correction gCP
Please cite in your paper:
H.Kruse, S. Grimme J.Chem.Phys., 136, (2012), 154101 
   

Your calculation utilizes the atom-pairwise dispersion correction
with the Becke-Johnson damping scheme (D3BJ)


Warning: RI is on but no J-basis has been assigned. Assigning Def2/J (nothing to worry about!)
================================================================================

cite the ECPs for Zr [Def2-ECP] as follows:
Ce-Yb(ecp-28): M. Dolg, H. Stoll, H.Preuss, J. Chem. Phys., 1989, 90, 1730-1734.
Y-Cd(ecp-28), Hf-Hg(ecp-46): D. Andrae,U. Haeussermann, M. Dolg, H. Stoll, H. Preuss, Theor. Chim. Acta, 1990, 77, 123-141.
In-Sb(ecp-28), Tl-Bi(ecp-46): B. Metz, H. Stoll, M. Dolg, J. Chem. Phys., 2000, 113, 2563-2569.
Te-Xe(ecp-28), Po-Rn(ecp-46): K. A. Peterson, D. Figgen, E. Goll, H. Stoll, M. Dolg, J. Chem. Phys., 2003, 119, 11113-11123.
Rb(ecp-28), Cs(ecp-46): T. Leininger, A. Nicklass, W. Kuechle, H. Stoll, M. Dolg, A. Bergner, Chem. Phys. Lett., 1996, 255, 274-280.
Sr(ecp-28), Ba(ecp-46): M. Kaupp, P. V. Schleyer, H. Stoll and H. Preuss, J. Chem. Phys., 1991, 94, 1360-1366.
La(ecp-46): M. Dolg, H. Stoll, A. Savin, H. Preuss, Theor. Chim. Acta, 1989, 75, 173-194.
Lu(ecp-28): X. Cao, M. Dolg, J. Chem. Phys., 2001, 115, 7348-7355.

ECP parameters for Zr [Def2-ECP] have been obtained from:
TURBOMOLE (7.0.2)

----- Orbital basis set information -----
Your calculation utilizes the basis: def2-SV(P)
   F. Weigend and R. Ahlrichs, Phys. Chem. Chem. Phys. 7, 3297 (2005).

----- AuxJ basis set information -----
Your calculation utilizes the auxiliary basis: def2/J
   H-Rn: F. Weigend, Phys. Chem. Chem. Phys. 8, 1057 (2006).
   Fr-Lr: K. Eichkorn, F. Weigend, O. Treutler, R. Ahlrichs; Theor. Chem. Acc. 97, 119 (1997).

================================================================================
                                        WARNINGS
                       Please study these warnings very carefully!
================================================================================


WARNING: Gradients are needed
  ===> : At least TightSCF should be used for SCF convergence

WARNING: Geometry Optimization
  ===> : Switching off AutoStart
         For restart on a previous wavefunction, please use MOREAD

================================================================================
                                       INPUT FILE
================================================================================
NAME = run.inp
|  1> # Geometry optimization for (AlH3)n cluster
|  2> 
|  3> %pal nprocs 24  end
|  4> 
|  5> %geom MaxIter 500 end
|  6> 
|  7> 
|  8> ! PBE def2-SV(P)
|  9> ! RKS	# closed shell for AlH3
| 10> ! D3    #  dispersion correction
| 11> ! gCP(DFT/SV(P))
| 12> ! Freq 	# Frequency analysis to check the stabiltity of the structures
| 13> 
| 14> ! NoPop # population analysis not necessary	
| 15> 
| 16> ! DEFGRID2
| 17> ! NormalSCF
| 18> ! SloppyOpt
| 19> 
| 20> ! SmallPrint
| 21> 
| 22> 
| 23> * xyzFile 0 1 start.xyz # only maingroup elements H and Al so there should be no net spin
| 24> 
| 25>                          ****END OF INPUT****
================================================================================

                       *****************************
                       * Geometry Optimization Run *
                       *****************************

Geometry optimization settings:
Update method            Update   .... BFGS
Choice of coordinates    CoordSys .... (2022) Redundant Internals
Initial Hessian          InHess   .... Almloef's Model
Max. no of cycles        MaxIter  .... 500

Convergence Tolerances:
Energy Change            TolE     ....  8.0000e-05 Eh
Max. Gradient            TolMAXG  ....  5.0000e-03 Eh/bohr
RMS Gradient             TolRMSG  ....  1.0000e-03 Eh/bohr
Max. Displacement        TolMAXD  ....  3.0000e-02 bohr
RMS Displacement         TolRMSD  ....  2.0000e-02 bohr
Strict Convergence                .... False

------------------------------------------------------------------------------
                        ORCA OPTIMIZATION COORDINATE SETUP
------------------------------------------------------------------------------

The optimization will be done in redundant internal coordinates (2022)
Making redundant internal coordinates   ...  (2022 redundants) done
Evaluating the initial hessian          ...  (Almloef) done
Evaluating the coordinates              ...  done
Calculating the B-matrix                .... done
Calculating the G-matrix                .... done
The number of degrees of freedom        ....  736

    -----------------------------------------------------------------
                    Redundant Internal Coordinates


    -----------------------------------------------------------------
         Definition                    Initial Value    Approx d2E/dq
    -----------------------------------------------------------------
      1. B(Zr  2,Zr  1)                  3.4236         0.036438   
      2. B(Zr  3,Zr  0)                  3.3542         0.047018   
      3. B(Zr  4,Zr  1)                  3.4265         0.036047   
      4. B(Zr  4,Zr  3)                  3.4156         0.037518   
      5. B(Zr  5,Zr  2)                  3.3565         0.046627   
      6. B(Zr  5,Zr  0)                  3.4243         0.036339   
      7. B(O   6,Zr  0)                  2.1107         0.401093   
      8. B(O   6,Zr  5)                  2.1569         0.338410   
      9. B(O   6,Zr  3)                  2.1909         0.298733   
     10. B(O   7,Zr  1)                  2.1005         0.416300   
     11. B(O   7,Zr  4)                  2.1174         0.391299   
     12. B(O   7,Zr  2)                  2.1503         0.346781   
     13. B(O   8,Zr  1)                  2.1188         0.389334   
     14. B(O   8,Zr  2)                  2.1265         0.378379   
     15. B(O   8,Zr  5)                  2.0860         0.439116   
     16. B(O   9,Zr  0)                  2.0840         0.442297   
     17. B(O   9,Zr  4)                  2.1161         0.393149   
     18. B(O   9,Zr  3)                  2.1361         0.365255   
     19. B(O  10,Zr  3)                  2.1478         0.349879   
     20. B(O  10,Zr  4)                  2.0970         0.421649   
     21. B(O  10,Zr  1)                  2.1148         0.395100   
     22. B(O  11,Zr  5)                  2.1103         0.401632   
     23. B(O  11,Zr  2)                  2.1911         0.298449   
     24. B(O  11,Zr  0)                  2.1583         0.336727   
     25. B(O  12,Zr  0)                  1.9907         0.623185   
     26. B(O  13,Zr  0)                  1.9801         0.647827   
     27. B(O  14,Zr  0)                  1.9910         0.622467   
     28. B(O  15,Zr  0)                  2.0697         0.466202   
     29. B(O  16,Zr  1)                  2.0447         0.511013   
     30. B(O  17,Zr  1)                  2.0457         0.509266   
     31. B(O  18,Zr  1)                  1.9847         0.637115   
     32. B(O  19,Zr  1)                  1.9924         0.619226   
     33. B(O  20,Zr  2)                  1.9719         0.667816   
     34. B(O  21,Zr  2)                  2.0472         0.506453   
     35. B(O  22,Zr  2)                  1.9807         0.646500   
     36. B(O  23,Zr  2)                  2.0671         0.470728   
     37. B(O  24,Zr  3)                  2.0423         0.515640   
     38. B(O  25,Zr  3)                  1.9752         0.659780   
     39. B(O  26,Zr  3)                  2.0659         0.472781   
     40. B(O  27,Zr  3)                  1.9853         0.635613   
     41. B(O  28,Zr  4)                  1.9900         0.624839   
     42. B(O  29,Zr  4)                  2.0515         0.498482   
     43. B(O  30,Zr  4)                  1.9917         0.620900   
     44. B(O  31,Zr  4)                  2.0360         0.527714   
     45. B(O  32,Zr  5)                  1.9980         0.606591   
     46. B(O  33,Zr  5)                  1.9924         0.619343   
     47. B(O  34,Zr  5)                  2.0641         0.475842   
     48. B(O  35,Zr  5)                  1.9793         0.649795   
     49. B(C  36,O  33)                  1.3018         0.773681   
     50. B(C  36,O  12)                  1.3019         0.773422   
     51. B(C  37,O  25)                  1.2988         0.782237   
     52. B(C  37,O  13)                  1.2987         0.782692   
     53. B(C  38,O  21)                  1.2953         0.792345   
     54. B(C  38,O  14)                  1.2944         0.795051   
     55. B(C  39,O  29)                  1.2968         0.787975   
     56. B(C  39,O  15)                  1.2967         0.788495   
     57. B(C  40,O  16)                  1.2972         0.786797   
     58. B(C  40,O  34)                  1.2970         0.787533   
     59. B(C  41,O  26)                  1.2997         0.779787   
     60. B(C  41,O  17)                  1.3018         0.773733   
     61. B(C  42,O  22)                  1.3016         0.774288   
     62. B(C  42,O  18)                  1.3003         0.778146   
     63. B(C  43,O  19)                  1.3015         0.774462   
     64. B(C  43,O  30)                  1.3014         0.774757   
     65. B(C  44,O  35)                  1.2988         0.782413   
     66. B(C  44,O  20)                  1.2989         0.782063   
     67. B(C  45,O  31)                  1.3019         0.773578   
     68. B(C  45,O  23)                  1.2998         0.779468   
     69. B(C  46,O  32)                  1.2944         0.795188   
     70. B(C  46,O  24)                  1.2955         0.791959   
     71. B(C  47,O  28)                  1.3006         0.777034   
     72. B(C  47,O  27)                  1.3018         0.773805   
     73. B(H  48,C  41)                  1.0879         0.362937   
     74. B(H  49,C  42)                  1.0919         0.357586   
     75. B(H  50,C  38)                  1.0855         0.366130   
     76. B(H  51,C  37)                  1.0901         0.359928   
     77. B(H  52,C  43)                  1.0914         0.358298   
     78. B(H  53,C  47)                  1.0918         0.357763   
     79. B(H  54,C  39)                  1.0848         0.367055   
     80. B(H  55,C  45)                  1.0881         0.362659   
     81. B(H  56,C  40)                  1.0853         0.366408   
     82. B(H  57,C  46)                  1.0854         0.366189   
     83. B(H  58,C  36)                  1.0918         0.357751   
     84. B(H  59,C  44)                  1.0901         0.359987   
     85. B(Al 61,Al 60)                  2.6930         0.255887   
     86. B(H  62,C  42)                  3.0189         0.010000   
     87. B(H  62,O  22)                  2.9918         0.010000   
     88. B(H  62,H  49)                  2.6050         0.010000   
     89. B(H  62,Al 61)                  1.6765         0.292573   
     90. B(H  63,Al 61)                  1.6117         0.371250   
     91. B(H  63,H  49)                  3.1400         0.010000   
     92. B(H  64,Al 61)                  1.6771         0.291966   
     93. B(H  64,Al 60)                  1.6685         0.301347   
     94. B(H  65,Al 60)                  1.6037         0.382263   
     95. B(H  66,Al 60)                  1.6735         0.295845   
     96. B(H  66,H  56)                  3.0316         0.010000   
     97. B(H  67,O  18)                  3.0280         0.010000   
     98. B(H  67,C  42)                  2.9592         0.010000   
     99. B(H  67,C  40)                  2.9521         0.010000   
    100. B(H  67,H  49)                  2.9420         0.010000   
    101. B(H  67,H  56)                  2.7937         0.010000   
    102. B(H  67,O  16)                  2.6700         0.010000   
    103. B(H  67,Al 61)                  1.6150         0.366812   
    104. B(Al 68,H  62)                  1.6668         0.303264   
    105. B(Al 68,Al 61)                  2.6867         0.261883   
    106. B(H  69,C  44)                  2.9836         0.010000   
    107. B(H  69,Al 68)                  1.6780         0.291023   
    108. B(H  69,H  59)                  3.0563         0.010000   
    109. B(H  70,Al 68)                  1.6031         0.383224   
    110. B(H  71,H  56)                  2.6023         0.010000   
    111. B(H  71,Al 60)                  1.6038         0.382124   
    112. B(Al 72,H  69)                  1.6940         0.274390   
    113. B(Al 72,Al 68)                  3.2902         0.028531   
    114. B(Al 72,H  66)                  1.6890         0.279442   
    115. B(Al 72,Al 60)                  3.3502         0.022881   
    116. B(Al 72,O  34)                  3.1572         0.010000   
    117. B(H  73,Al 72)                  1.6864         0.282107   
    118. B(H  74,O  35)                  2.7031         0.010000   
    119. B(H  74,O  34)                  2.4751         0.010000   
    120. B(H  74,Al 72)                  1.6171         0.363939   
    121. B(H  75,C  44)                  3.0073         0.010000   
    122. B(H  75,O  22)                  2.5628         0.010000   
    123. B(H  75,O  20)                  2.4296         0.010000   
    124. B(H  75,Al 68)                  1.6027         0.383676   
    125. B(H  75,H  59)                  3.0882         0.010000   
    126. B(Al 76,H  73)                  1.6710         0.298590   
    127. B(Al 76,Al 72)                  2.6473         0.302644   
    128. B(H  77,Al 76)                  1.6017         0.385111   
    129. B(H  78,H  59)                  2.5870         0.010000   
    130. B(H  78,Al 76)                  1.6695         0.300257   
    131. B(H  78,Al 72)                  1.6908         0.277670   
    132. B(H  78,C  44)                  3.1342         0.010000   
    133. B(H  79,Al 76)                  1.6016         0.385218   
    134. A(Zr  3,Zr  0,O  12)          129.0942         0.373408   
    135. A(O  13,Zr  0,O  14)          135.0672         0.548873   
    136. A(O  12,Zr  0,O  15)          133.0223         0.515984   
    137. A(Zr  5,Zr  0,O   9)           84.6879         0.337265   
    138. A(O   9,Zr  0,O  14)          102.9423         0.510817   
    139. A(O   9,Zr  0,O  11)           83.1451         0.456053   
    140. A(Zr  5,Zr  0,O  15)          155.2511         0.340240   
    141. A(Zr  3,Zr  0,O  14)          140.7668         0.373334   
    142. A(O  13,Zr  0,O  15)           80.8891         0.519748   
    143. A(Zr  5,Zr  0,O  13)          107.0082         0.359663   
    144. A(O   9,Zr  0,O  13)          105.6748         0.514647   
    145. A(Zr  3,Zr  0,O  15)           87.5640         0.355326   
    146. A(O  14,Zr  0,O  15)           76.8771         0.515873   
    147. A(Zr  3,Zr  0,O  11)           93.2844         0.336419   
    148. A(O  12,Zr  0,O  14)           85.4852         0.544855   
    149. A(O   6,Zr  0,O  11)           69.4674         0.448018   
    150. A(O   6,Zr  0,O  12)           92.1996         0.501691   
    151. A(Zr  5,Zr  0,O   6)           37.1041         0.331830   
    152. A(Zr  5,Zr  0,O  11)           36.1810         0.322404   
    153. A(Zr  3,Zr  0,O  13)           75.4171         0.375915   
    154. A(O   6,Zr  0,O  14)          143.6827         0.501583   
    155. A(O  12,Zr  0,O  13)           81.9038         0.548994   
    156. A(Zr  3,Zr  0,Zr  5)           72.4192         0.256347   
    157. A(O   6,Zr  0,O  13)           79.9756         0.505330   
    158. A(O  11,Zr  0,O  12)           77.8723         0.485671   
    159. A(O   9,Zr  0,O  15)           70.5654         0.484102   
    160. A(Zr  5,Zr  0,O  14)          109.4985         0.357228   
    161. A(O  11,Zr  0,O  14)           74.6387         0.485568   
    162. A(O  11,Zr  0,O  15)          135.3176         0.460452   
    163. A(O   9,Zr  0,O  12)          156.4120         0.510927   
    164. A(Zr  3,Zr  0,O   6)           39.6266         0.346411   
    165. A(O   6,Zr  0,O  15)          126.8556         0.475453   
    166. A(Zr  5,Zr  0,O  12)           71.7242         0.357298   
    167. A(Zr  3,Zr  0,O   9)           37.9072         0.352172   
    168. A(O   6,Zr  0,O   9)           67.8660         0.470876   
    169. A(O  11,Zr  0,O  13)          142.3049         0.489168   
    170. A(Zr  4,Zr  1,O  19)           72.1608         0.356421   
    171. A(O   7,Zr  1,O   8)           66.2071         0.463148   
    172. A(Zr  2,Zr  1,O   7)           36.8476         0.334035   
    173. A(Zr  4,Zr  1,O  18)          108.0285         0.358150   
    174. A(O  16,Zr  1,O  17)           78.8912         0.505475   
    175. A(O  18,Zr  1,O  19)           82.2598         0.546600   
    176. A(O  10,Zr  1,O  17)           72.1950         0.481918   
    177. A(O  10,Zr  1,O  16)          134.3535         0.482223   
    178. A(O   8,Zr  1,O  10)           86.5172         0.458748   
    179. A(Zr  2,Zr  1,O   8)           36.3272         0.330349   
    180. A(O   8,Zr  1,O  16)           71.2996         0.480916   
    181. A(O   7,Zr  1,O  17)          140.5520         0.486594   
    182. A(Zr  4,Zr  1,O  10)           35.3839         0.330562   
    183. A(O   7,Zr  1,O  16)          129.8286         0.486902   
    184. A(O  17,Zr  1,O  18)          136.4341         0.526793   
    185. A(Zr  2,Zr  1,O  10)           91.1108         0.331153   
    186. A(Zr  2,Zr  1,O  19)          123.8466         0.357076   
    187. A(O  16,Zr  1,O  18)           81.6558         0.527133   
    188. A(Zr  2,Zr  1,Zr  4)           68.3055         0.246677   
    189. A(O   8,Zr  1,O  18)           99.4051         0.500977   
    190. A(O   7,Zr  1,O  18)           80.2170         0.507269   
    191. A(O  16,Zr  1,O  19)          133.0762         0.524318   
    192. A(O  10,Zr  1,O  18)          142.5271         0.502350   
    193. A(O   8,Zr  1,O  17)          110.4360         0.480613   
    194. A(O  10,Zr  1,O  19)           77.8785         0.499694   
    195. A(Zr  2,Zr  1,O  18)           74.1223         0.358810   
    196. A(O   7,Zr  1,O  19)           89.8741         0.504582   
    197. A(Zr  4,Zr  1,O   7)           35.8363         0.333436   
    198. A(O  17,Zr  1,O  19)           83.2696         0.523980   
    199. A(Zr  4,Zr  1,O   8)           83.8667         0.329759   
    200. A(Zr  2,Zr  1,O  16)           93.1326         0.345672   
    201. A(Zr  4,Zr  1,O  17)          106.1241         0.344846   
    202. A(O   7,Zr  1,O  10)           68.3836         0.464395   
    203. A(Zr  2,Zr  1,O  17)          145.1174         0.345473   
    204. A(O   8,Zr  1,O  19)          155.1153         0.498330   
    205. A(Zr  4,Zr  1,O  16)          154.6588         0.345044   
    206. A(O   7,Zr  2,O   8)           65.2043         0.445679   
    207. A(Zr  1,Zr  2,O   7)           35.8608         0.324108   
    208. A(Zr  5,Zr  2,O   8)           36.7602         0.342557   
    209. A(Zr  1,Zr  2,Zr  5)           72.8631         0.256134   
    210. A(O  21,Zr  2,O  23)           73.2156         0.497294   
    211. A(Zr  1,Zr  2,O   8)           36.1734         0.328795   
    212. A(O  20,Zr  2,O  22)           83.4624         0.556035   
    213. A(O   7,Zr  2,O  23)           68.8519         0.463752   
    214. A(O   7,Zr  2,O  21)          110.5240         0.470009   
    215. A(O   7,Zr  2,O  11)          100.1676         0.427028   
    216. A(Zr  1,Zr  2,O  22)           70.0565         0.359704   
    217. A(O  22,Zr  2,O  23)           83.1262         0.520491   
    218. A(O  20,Zr  2,O  23)          120.5898         0.523671   
    219. A(O  11,Zr  2,O  23)          135.2284         0.451235   
    220. A(O   8,Zr  2,O  23)          132.5892         0.471222   
    221. A(Zr  5,Zr  2,O  22)          104.0519         0.375240   
    222. A(Zr  5,Zr  2,O  23)          164.1730         0.355405   
    223. A(Zr  1,Zr  2,O  23)           97.0533         0.340945   
    224. A(O  21,Zr  2,O  22)          140.4793         0.527694   
    225. A(O   8,Zr  2,O  22)           84.8505         0.499681   
    226. A(O   7,Zr  2,O  22)           88.8183         0.491655   
    227. A(Zr  5,Zr  2,O  11)           37.8555         0.329298   
    228. A(Zr  5,Zr  2,O   7)           96.8877         0.337602   
    229. A(O  11,Zr  2,O  21)           70.7694         0.457282   
    230. A(O   8,Zr  2,O  21)          134.2964         0.477603   
    231. A(O  11,Zr  2,O  20)           79.6105         0.481074   
    232. A(Zr  1,Zr  2,O  21)          142.7592         0.345152   
    233. A(Zr  1,Zr  2,O  11)           95.7869         0.316255   
    234. A(O   8,Zr  2,O  11)           65.8731         0.433766   
    235. A(Zr  5,Zr  2,O  21)          107.1889         0.359852   
    236. A(O   8,Zr  2,O  20)          103.2119         0.502708   
    237. A(O   7,Zr  2,O  20)          166.7188         0.494622   
    238. A(Zr  5,Zr  2,O  20)           74.6753         0.377350   
    239. A(O  11,Zr  2,O  22)          141.3422         0.478206   
    240. A(Zr  1,Zr  2,O  20)          130.8645         0.361699   
    241. A(O  20,Zr  2,O  21)           82.0775         0.530927   
    242. A(O  24,Zr  3,O  26)           73.5060         0.499363   
    243. A(O   6,Zr  3,O  10)          100.1421         0.427782   
    244. A(O  10,Zr  3,O  27)           89.4649         0.490919   
    245. A(O   9,Zr  3,O  10)           64.9116         0.443554   
    246. A(Zr  4,Zr  3,O  10)           35.9212         0.326144   
    247. A(Zr  0,Zr  3,O   6)           37.9107         0.329804   
    248. A(O   6,Zr  3,O  24)           70.7747         0.458864   
    249. A(O  26,Zr  3,O  27)           83.6622         0.519259   
    250. A(Zr  4,Zr  3,O  27)           69.8294         0.360454   
    251. A(Zr  0,Zr  3,O  27)          102.9732         0.374682   
    252. A(Zr  4,Zr  3,O  26)           96.6959         0.342866   
    253. A(O   9,Zr  3,O  27)           84.8074         0.494850   
    254. A(O   9,Zr  3,O  26)          132.3060         0.468554   
    255. A(O  24,Zr  3,O  27)          141.1367         0.527793   
    256. A(Zr  4,Zr  3,O   9)           36.3583         0.328464   
    257. A(O  24,Zr  3,O  25)           82.5567         0.531515   
    258. A(O  10,Zr  3,O  25)          166.6832         0.494328   
    259. A(O  25,Zr  3,O  26)          120.4601         0.522909   
    260. A(O  10,Zr  3,O  26)           68.8590         0.464878   
    261. A(Zr  0,Zr  3,Zr  4)           73.1665         0.257561   
    262. A(Zr  4,Zr  3,O   6)           96.0648         0.317811   
    263. A(Zr  0,Zr  3,O  26)          164.5952         0.356172   
    264. A(O  25,Zr  3,O  27)           82.5843         0.552970   
    265. A(O   6,Zr  3,O  27)          140.2826         0.476796   
    266. A(O   6,Zr  3,O  26)          135.7793         0.451670   
    267. A(O   6,Zr  3,O   9)           65.5136         0.431096   
    268. A(O   9,Zr  3,O  25)          103.5628         0.498292   
    269. A(Zr  0,Zr  3,O  25)           74.5354         0.377105   
    270. A(O  10,Zr  3,O  24)          110.0934         0.472333   
    271. A(Zr  0,Zr  3,O   9)           36.8270         0.341015   
    272. A(Zr  4,Zr  3,O  24)          142.5655         0.347901   
    273. A(O   9,Zr  3,O  24)          133.6575         0.476083   
    274. A(Zr  0,Zr  3,O  24)          107.2731         0.361471   
    275. A(Zr  4,Zr  3,O  25)          130.7668         0.362756   
    276. A(O   6,Zr  3,O  25)           79.6954         0.480086   
    277. A(Zr  0,Zr  3,O  10)           97.0412         0.338574   
    278. A(O   9,Zr  4,O  10)           66.1398         0.465060   
    279. A(O   7,Zr  4,O  10)           68.3982         0.464659   
    280. A(Zr  3,Zr  4,O  10)           36.9330         0.336373   
    281. A(O  28,Zr  4,O  30)           82.3806         0.544868   
    282. A(O   7,Zr  4,O  31)           72.6116         0.484229   
    283. A(O  29,Zr  4,O  31)           79.7994         0.506490   
    284. A(O  30,Zr  4,O  31)           83.8138         0.527766   
    285. A(O  28,Zr  4,O  31)          136.5505         0.528394   
    286. A(O  10,Zr  4,O  31)          140.9231         0.490969   
    287. A(O   9,Zr  4,O  31)          108.9812         0.484652   
    288. A(Zr  3,Zr  4,O  31)          144.4872         0.349261   
    289. A(Zr  1,Zr  4,O  31)          106.8540         0.346915   
    290. A(O  29,Zr  4,O  30)          133.2170         0.522143   
    291. A(O  10,Zr  4,O  30)           90.3205         0.506039   
    292. A(O   9,Zr  4,O  30)          155.1139         0.499485   
    293. A(O   7,Zr  4,O  30)           77.6158         0.499047   
    294. A(Zr  1,Zr  4,Zr  3)           68.3972         0.247722   
    295. A(O  10,Zr  4,O  28)           80.1509         0.506637   
    296. A(Zr  1,Zr  4,O  30)           72.3179         0.356585   
    297. A(Zr  1,Zr  4,O  29)          154.4635         0.343610   
    298. A(O   7,Zr  4,O   9)           85.8298         0.458755   
    299. A(Zr  1,Zr  4,O   9)           83.3915         0.330291   
    300. A(Zr  3,Zr  4,O  28)           74.0533         0.359405   
    301. A(Zr  1,Zr  4,O  28)          107.7029         0.356968   
    302. A(Zr  3,Zr  4,O   9)           36.7586         0.332486   
    303. A(O  10,Zr  4,O  29)          128.3655         0.485817   
    304. A(O  28,Zr  4,O  29)           80.2954         0.522763   
    305. A(Zr  3,Zr  4,O   7)           91.3794         0.332226   
    306. A(O   9,Zr  4,O  28)          100.4235         0.500073   
    307. A(Zr  3,Zr  4,O  29)           91.6545         0.345926   
    308. A(O   7,Zr  4,O  28)          142.2566         0.499635   
    309. A(O   9,Zr  4,O  29)           71.2169         0.479581   
    310. A(O   7,Zr  4,O  29)          135.8198         0.479164   
    311. A(Zr  1,Zr  4,O   7)           35.5075         0.330034   
    312. A(Zr  3,Zr  4,O  30)          124.3612         0.359019   
    313. A(Zr  1,Zr  4,O  10)           35.7282         0.334144   
    314. A(O  11,Zr  5,O  35)           79.7687         0.505742   
    315. A(O   6,Zr  5,O   8)           84.3607         0.455867   
    316. A(O  34,Zr  5,O  35)           82.0899         0.522045   
    317. A(O  33,Zr  5,O  35)           81.4720         0.548665   
    318. A(O  32,Zr  5,O  35)          135.1431         0.546506   
    319. A(O   8,Zr  5,O  35)          104.6569         0.514244   
    320. A(O   6,Zr  5,O  35)          142.0512         0.489895   
    321. A(Zr  2,Zr  5,O  35)           75.1659         0.375570   
    322. A(O  33,Zr  5,O  34)          132.2215         0.517366   
    323. A(O  32,Zr  5,O  34)           76.0671         0.515354   
    324. A(O  11,Zr  5,O  34)          128.2362         0.477365   
    325. A(Zr  0,Zr  5,O  35)          106.7662         0.359849   
    326. A(O  32,Zr  5,O  33)           84.9650         0.541563   
    327. A(O   6,Zr  5,O  34)          134.6258         0.462598   
    328. A(Zr  2,Zr  5,O  34)           88.9149         0.356057   
    329. A(Zr  0,Zr  5,O  34)          155.9631         0.341407   
    330. A(O  11,Zr  5,O  33)           92.1063         0.501239   
    331. A(O   8,Zr  5,O  33)          157.2584         0.509649   
    332. A(O   6,Zr  5,O  33)           78.0592         0.485564   
    333. A(Zr  0,Zr  5,O  33)           71.7559         0.356923   
    334. A(O  11,Zr  5,O  32)          143.5146         0.499302   
    335. A(O   8,Zr  5,O  32)          104.1668         0.507673   
    336. A(O   6,Zr  5,O  32)           74.3341         0.483701   
    337. A(Zr  2,Zr  5,O  32)          141.5875         0.371142   
    338. A(Zr  0,Zr  5,O  32)          109.0736         0.355664   
    339. A(Zr  2,Zr  5,O   6)           93.4551         0.336230   
    340. A(Zr  0,Zr  5,Zr  2)           72.4894         0.256031   
    341. A(Zr  0,Zr  5,O   6)           36.1803         0.322668   
    342. A(O   8,Zr  5,O  34)           70.5163         0.485288   
    343. A(O   8,Zr  5,O  11)           68.0511         0.470369   
    344. A(O   6,Zr  5,O  11)           69.4999         0.448533   
    345. A(Zr  2,Zr  5,O  11)           39.5817         0.346003   
    346. A(Zr  0,Zr  5,O  11)           37.1396         0.331904   
    347. A(Zr  2,Zr  5,O  33)          128.8025         0.372474   
    348. A(Zr  2,Zr  5,O   8)           37.5963         0.351246   
    349. A(Zr  0,Zr  5,O   8)           85.5351         0.336859   
    350. A(Zr  3,O   6,Zr  5)          134.1734         0.425236   
    351. A(Zr  0,O   6,Zr  5)          106.7156         0.448423   
    352. A(Zr  0,O   6,Zr  3)          102.4627         0.438420   
    353. A(Zr  2,O   7,Zr  4)          128.6088         0.448400   
    354. A(Zr  1,O   7,Zr  4)          108.6562         0.463575   
    355. A(Zr  1,O   7,Zr  2)          107.2915         0.453474   
    356. A(Zr  1,O   8,Zr  2)          107.4994         0.455147   
    357. A(Zr  2,O   8,Zr  5)          105.6435         0.465255   
    358. A(Zr  1,O   8,Zr  5)          146.5380         0.467694   
    359. A(Zr  3,O   9,Zr  4)          106.8831         0.453035   
    360. A(Zr  0,O   9,Zr  4)          147.7636         0.469151   
    361. A(Zr  0,O   9,Zr  3)          105.2658         0.462871   
    362. A(Zr  3,O  10,Zr  4)          107.1457         0.455265   
    363. A(Zr  1,O  10,Zr  4)          108.8880         0.465482   
    364. A(Zr  1,O  10,Zr  3)          128.8967         0.449913   
    365. A(Zr  2,O  11,Zr  5)          102.5628         0.438451   
    366. A(Zr  0,O  11,Zr  5)          106.6794         0.448127   
    367. A(Zr  0,O  11,Zr  2)          134.3893         0.424784   
    368. A(Zr  0,O  12,C  36)          127.4025         0.502587   
    369. A(Zr  0,O  13,C  37)          130.5053         0.507360   
    370. A(Zr  0,O  14,C  38)          137.8556         0.505068   
    371. A(Zr  0,O  15,C  39)          136.2693         0.477988   
    372. A(Zr  1,O  16,C  40)          140.1982         0.485958   
    373. A(Zr  1,O  17,C  41)          136.3826         0.484151   
    374. A(Zr  1,O  18,C  42)          126.5799         0.505235   
    375. A(Zr  1,O  19,C  43)          128.2167         0.502116   
    376. A(Zr  2,O  20,C  44)          131.8000         0.510170   
    377. A(Zr  2,O  21,C  38)          141.7915         0.485784   
    378. A(Zr  2,O  22,C  42)          129.7687         0.506145   
    379. A(Zr  2,O  23,C  45)          126.4547         0.477824   
    380. A(Zr  3,O  24,C  46)          141.9945         0.487358   
    381. A(Zr  3,O  25,C  37)          132.0264         0.509039   
    382. A(Zr  3,O  26,C  41)          126.5419         0.478244   
    383. A(Zr  3,O  27,C  47)          129.7434         0.504486   
    384. A(Zr  4,O  28,C  47)          125.5762         0.503272   
    385. A(Zr  4,O  29,C  39)          140.2927         0.483868   
    386. A(Zr  4,O  30,C  43)          128.0286         0.502404   
    387. A(Zr  4,O  31,C  45)          136.1974         0.487328   
    388. A(Zr  5,O  32,C  46)          137.4867         0.502658   
    389. A(Zr  5,O  33,C  36)          127.2981         0.502039   
    390. A(Zr  5,O  34,C  40)          134.8059         0.479686   
    391. A(C  40,O  34,Al 72)          110.2259         0.230992   
    392. A(Zr  5,O  34,Al 72)          113.6256         0.235671   
    393. A(Zr  5,O  35,C  44)          130.7924         0.507613   
    394. A(O  12,C  36,O  33)          127.1340         0.464168   
    395. A(O  33,C  36,H  58)          116.4544         0.363783   
    396. A(O  12,C  36,H  58)          116.4116         0.363762   
    397. A(O  13,C  37,O  25)          127.4714         0.466119   
    398. A(O  25,C  37,H  51)          116.2281         0.364846   
    399. A(O  13,C  37,H  51)          116.3004         0.364882   
    400. A(O  14,C  38,O  21)          129.0685         0.468560   
    401. A(O  21,C  38,H  50)          115.4648         0.366721   
    402. A(O  14,C  38,H  50)          115.4632         0.366935   
    403. A(O  15,C  39,O  29)          130.0805         0.467376   
    404. A(O  29,C  39,H  54)          114.9307         0.366532   
    405. A(O  15,C  39,H  54)          114.9823         0.366573   
    406. A(O  16,C  40,O  34)          130.0294         0.467143   
    407. A(O  34,C  40,H  56)          115.0254         0.366386   
    408. A(O  16,C  40,H  56)          114.9268         0.366327   
    409. A(O  17,C  41,O  26)          129.6502         0.464871   
    410. A(O  26,C  41,H  48)          115.1210         0.365170   
    411. A(O  17,C  41,H  48)          115.2245         0.364684   
    412. A(O  18,C  42,O  22)          126.9581         0.464753   
    413. A(O  22,C  42,H  49)          116.6201         0.363803   
    414. A(O  18,C  42,H  49)          116.4191         0.364112   
    415. A(O  30,C  43,H  52)          116.2393         0.363964   
    416. A(O  19,C  43,H  52)          116.2104         0.363940   
    417. A(O  19,C  43,O  30)          127.5503         0.464401   
    418. A(O  35,C  44,H  59)          116.2813         0.364870   
    419. A(O  20,C  44,H  59)          116.3150         0.364842   
    420. A(O  20,C  44,O  35)          127.4029         0.466070   
    421. A(O  31,C  45,H  55)          115.2251         0.364623   
    422. A(O  23,C  45,H  55)          115.1279         0.365097   
    423. A(O  23,C  45,O  31)          129.6426         0.464819   
    424. A(O  32,C  46,H  57)          115.4676         0.366956   
    425. A(O  24,C  46,H  57)          115.4955         0.366700   
    426. A(O  24,C  46,O  32)          129.0325         0.468533   
    427. A(O  28,C  47,H  53)          116.5074         0.364054   
    428. A(O  27,C  47,H  53)          116.6356         0.363795   
    429. A(O  27,C  47,O  28)          126.8517         0.464578   
    430. A(H  65,Al 60,Al 72)           85.9266         0.275556   
    431. A(H  64,Al 60,Al 72)          111.4669         0.265779   
    432. A(Al 61,Al 60,Al 72)           79.9237         0.296801   
    433. A(H  66,Al 60,H  71)           94.7077         0.361945   
    434. A(H  65,Al 60,H  71)          158.4910         0.378245   
    435. A(H  64,Al 60,H  71)          102.5185         0.363086   
    436. A(Al 61,Al 60,H  71)           90.5242         0.411185   
    437. A(H  71,Al 60,Al 72)           99.4580         0.275541   
    438. A(H  65,Al 60,H  66)           90.8277         0.361968   
    439. A(H  64,Al 60,H  66)          111.5709         0.347662   
    440. A(Al 61,Al 60,H  66)           78.5588         0.393054   
    441. A(H  64,Al 60,H  65)           94.6713         0.363109   
    442. A(Al 61,Al 60,H  65)          110.9549         0.411211   
    443. A(Al 61,Al 60,H  64)           36.5041         0.394324   
    444. A(H  67,Al 61,Al 68)          133.8344         0.409894   
    445. A(H  64,Al 61,Al 68)          109.6883         0.393740   
    446. A(H  63,Al 61,Al 68)          114.0950         0.410769   
    447. A(H  62,Al 61,Al 68)           36.4001         0.393883   
    448. A(Al 60,Al 61,Al 68)           99.3429         0.449792   
    449. A(H  64,Al 61,H  67)          116.3787         0.358624   
    450. A(H  63,Al 61,H  67)           75.9730         0.373691   
    451. A(H  62,Al 61,H  67)          113.0897         0.358751   
    452. A(Al 60,Al 61,H  67)          115.7044         0.408217   
    453. A(H  63,Al 61,H  64)           82.3943         0.359359   
    454. A(H  62,Al 61,H  64)          121.4066         0.345171   
    455. A(Al 60,Al 61,H  64)           36.2868         0.392147   
    456. A(H  62,Al 61,H  63)           80.9470         0.359486   
    457. A(Al 60,Al 61,H  63)          117.8974         0.409087   
    458. A(Al 60,Al 61,H  62)          130.5808         0.392289   
    459. A(Al 61,H  62,Al 68)          106.9518         0.347382   
    460. A(Al 60,H  64,Al 61)          107.2091         0.346890   
    461. A(Al 60,H  66,Al 72)          170.1963         0.343281   
    462. A(Al 72,Al 68,H  75)          111.9044         0.285275   
    463. A(H  70,Al 68,H  75)          141.8538         0.378675   
    464. A(H  69,Al 68,H  75)          102.2405         0.361181   
    465. A(H  62,Al 68,H  75)           99.0863         0.363732   
    466. A(Al 61,Al 68,H  75)          122.5134         0.413176   
    467. A(H  70,Al 68,Al 72)           86.1974         0.285223   
    468. A(H  69,Al 68,Al 72)           12.7082         0.273373   
    469. A(H  62,Al 68,Al 72)          116.8821         0.275100   
    470. A(Al 61,Al 68,Al 72)           81.1360         0.308593   
    471. A(H  69,Al 68,H  70)           98.8033         0.361109   
    472. A(H  62,Al 68,H  70)          101.8743         0.363658   
    473. A(Al 61,Al 68,H  70)           92.4318         0.413089   
    474. A(H  62,Al 68,H  69)          112.2284         0.347071   
    475. A(Al 61,Al 68,H  69)           79.0886         0.393517   
    476. A(Al 61,Al 68,H  62)           36.6481         0.396370   
    477. A(Al 68,H  69,Al 72)          154.7058         0.341293   
    478. A(O  34,Al 72,Al 76)          157.6973         0.232673   
    479. A(O  34,Al 72,H  74)           50.7768         0.211804   
    480. A(O  34,Al 72,H  73)          156.6875         0.204925   
    481. A(O  34,Al 72,H  69)           75.6445         0.204199   
    482. A(O  34,Al 72,Al 68)           87.6037         0.173186   
    483. A(O  34,Al 72,H  66)           88.0158         0.204676   
    484. A(O  34,Al 72,Al 60)           92.6509         0.169085   
    485. A(Al 76,Al 72,H  78)           37.7333         0.400325   
    486. A(H  74,Al 72,H  78)          110.1838         0.355104   
    487. A(H  69,Al 72,H  78)           77.9656         0.338625   
    488. A(Al 68,Al 72,H  78)           73.8809         0.271423   
    489. A(H  66,Al 72,H  78)          136.0621         0.339658   
    490. A(O  34,Al 72,H  78)          122.8903         0.204510   
    491. A(Al 60,Al 72,H  78)          131.5552         0.262535   
    492. A(H  74,Al 72,Al 76)          117.4368         0.419985   
    493. A(H  73,Al 72,Al 76)           37.7497         0.401444   
    494. A(H  69,Al 72,Al 76)          103.3372         0.399489   
    495. A(Al 68,Al 72,Al 76)           93.8003         0.315902   
    496. A(H  66,Al 72,Al 76)          114.0454         0.400774   
    497. A(Al 60,Al 72,Al 76)          109.3230         0.304846   
    498. A(H  73,Al 72,H  74)          112.0901         0.356060   
    499. A(H  69,Al 72,H  74)          121.6337         0.354389   
    500. A(Al 68,Al 72,H  74)          134.1850         0.282943   
    501. A(H  66,Al 72,H  74)          113.6849         0.355487   
    502. A(Al 60,Al 72,H  74)          118.0167         0.273494   
    503. A(H  73,Al 72,H  78)           75.4808         0.340197   
    504. A(H  69,Al 72,H  73)          125.4342         0.339522   
    505. A(Al 68,Al 72,H  73)          112.9410         0.272079   
    506. A(H  66,Al 72,H  73)           85.9716         0.340559   
    507. A(Al 60,Al 72,H  73)           82.2831         0.263158   
    508. A(Al 68,Al 72,H  69)           12.5860         0.270933   
    509. A(H  66,Al 72,H  69)           81.4040         0.338985   
    510. A(Al 60,Al 72,H  69)           81.0966         0.262069   
    511. A(H  66,Al 72,Al 68)           77.5944         0.271686   
    512. A(Al 60,Al 72,Al 68)           76.2781         0.215477   
    513. A(Al 72,H  73,Al 76)          104.0891         0.344361   
    514. A(H  78,Al 76,H  79)           95.7232         0.363362   
    515. A(H  77,Al 76,H  79)          168.1549         0.379261   
    516. A(H  73,Al 76,H  79)           94.8918         0.363016   
    517. A(Al 72,Al 76,H  79)           96.4439         0.424270   
    518. A(H  77,Al 76,H  78)           93.2737         0.363344   
    519. A(H  73,Al 76,H  78)           76.4598         0.347990   
    520. A(Al 72,Al 76,H  78)           38.3008         0.405885   
    521. A(H  73,Al 76,H  77)           94.6933         0.362999   
    522. A(Al 72,Al 76,H  77)           95.3922         0.424248   
    523. A(Al 72,Al 76,H  73)           38.1612         0.405486   
    524. A(Al 72,H  78,Al 76)          103.9660         0.343767   
    525. D(O   7,Zr  2,Zr  1,Zr  4)    -22.4775         0.010000   
    526. D(Zr  5,Zr  2,Zr  1,O   7)    129.8514         0.010000   
    527. D(Zr  5,Zr  2,Zr  1,Zr  4)    107.3739         0.010000   
    528. D(Zr  4,Zr  3,Zr  0,O   6)   -124.6214         0.010000   
    529. D(Zr  4,Zr  3,Zr  0,Zr  5)   -102.9190         0.010000   
    530. D(O   6,Zr  3,Zr  0,Zr  5)     21.7024         0.010000   
    531. D(Zr  1,Zr  4,Zr  3,O   6)     76.7933         0.010000   
    532. D(Zr  1,Zr  4,Zr  3,Zr  0)    107.3558         0.010000   
    533. D(O   7,Zr  4,Zr  1,Zr  2)     23.0544         0.010000   
    534. D(O   7,Zr  4,Zr  3,Zr  0)     79.6476         0.010000   
    535. D(Zr  3,Zr  4,Zr  1,O   7)   -126.8394         0.010000   
    536. D(Zr  3,Zr  4,Zr  1,Zr  2)   -103.7850         0.010000   
    537. D(O   6,Zr  5,Zr  0,Zr  3)    -23.0132         0.010000   
    538. D(Zr  2,Zr  5,Zr  0,O   6)    122.5775         0.010000   
    539. D(Zr  2,Zr  5,Zr  0,Zr  3)     99.5643         0.010000   
    540. D(O   6,Zr  5,Zr  2,Zr  1)    -73.2405         0.010000   
    541. D(Zr  0,Zr  5,Zr  2,O   7)    -76.1948         0.010000   
    542. D(Zr  0,Zr  5,Zr  2,Zr  1)   -103.1316         0.010000   
    543. D(Zr  0,O   6,Zr  5,O   8)    -90.1432         0.010000   
    544. D(Zr  5,O   6,Zr  3,Zr  0)   -128.7129         0.010000   
    545. D(Zr  0,O   6,Zr  5,Zr  2)    -53.6179         0.010000   
    546. D(Zr  0,O   6,Zr  3,O   9)     32.1474         0.010000   
    547. D(Zr  3,O   6,Zr  5,Zr  0)    127.2957         0.010000   
    548. D(Zr  3,O   6,Zr  0,O   9)    -32.4006         0.010000   
    549. D(Zr  5,O   6,Zr  0,Zr  3)    144.2435         0.010000   
    550. D(Zr  3,O   6,Zr  0,Zr  5)   -144.2435         0.010000   
    551. D(Zr  0,O   6,Zr  3,Zr  4)     52.3818         0.010000   
    552. D(Zr  2,O   7,Zr  1,O   8)     28.3723         0.010000   
    553. D(Zr  1,O   7,Zr  2,Zr  5)    -47.6428         0.010000   
    554. D(Zr  2,O   7,Zr  1,Zr  4)    142.6445         0.010000   
    555. D(Zr  4,O   7,Zr  1,Zr  2)   -142.6445         0.010000   
    556. D(Zr  2,O   7,Zr  4,Zr  1)   -132.1506         0.010000   
    557. D(Zr  1,O   7,Zr  4,Zr  3)     48.1006         0.010000   
    558. D(Zr  4,O   7,Zr  2,Zr  1)    132.6355         0.010000   
    559. D(Zr  1,O   7,Zr  4,O   9)     84.4634         0.010000   
    560. D(Zr  1,O   7,Zr  2,O   8)    -28.5039         0.010000   
    561. D(Zr  2,O   8,Zr  5,Zr  0)     66.8422         0.010000   
    562. D(Zr  1,O   8,Zr  5,Zr  2)   -171.8929         0.010000   
    563. D(Zr  1,O   8,Zr  5,Zr  0)   -105.0507         0.010000   
    564. D(Zr  1,O   8,Zr  2,O   7)     28.2715         0.010000   
    565. D(Zr  1,O   8,Zr  2,Zr  5)    175.3234         0.010000   
    566. D(Zr  5,O   8,Zr  1,Zr  2)    171.8138         0.010000   
    567. D(Zr  2,O   8,Zr  1,O   7)    -28.7540         0.010000   
    568. D(Zr  5,O   8,Zr  2,Zr  1)   -175.3234         0.010000   
    569. D(Zr  2,O   8,Zr  1,Zr  4)    -61.2193         0.010000   
    570. D(Zr  3,O   9,Zr  4,Zr  1)    -62.3398         0.010000   
    571. D(Zr  0,O   9,Zr  4,Zr  3)    175.6467         0.010000   
    572. D(Zr  4,O   9,Zr  0,Zr  3)   -175.6821         0.010000   
    573. D(Zr  4,O   9,Zr  3,Zr  0)    177.5946         0.010000   
    574. D(Zr  0,O   9,Zr  3,O   6)    -33.0550         0.010000   
    575. D(Zr  0,O   9,Zr  3,Zr  4)   -177.5946         0.010000   
    576. D(Zr  3,O   9,Zr  0,Zr  5)     68.0162         0.010000   
    577. D(Zr  3,O   9,Zr  0,O   6)     33.7962         0.010000   
    578. D(Zr  0,O   9,Zr  4,Zr  1)    113.3070         0.010000   
    579. D(Zr  1,O  10,Zr  4,O   7)    -18.3989         0.010000   
    580. D(Zr  1,O  10,Zr  4,Zr  3)   -143.1372         0.010000   
    581. D(Zr  4,O  10,Zr  3,Zr  0)    -48.0977         0.010000   
    582. D(Zr  1,O  10,Zr  3,Zr  4)    133.1724         0.010000   
    583. D(Zr  1,O  10,Zr  3,Zr  0)     85.0747         0.010000   
    584. D(Zr  4,O  10,Zr  1,Zr  2)     48.2558         0.010000   
    585. D(Zr  3,O  10,Zr  1,Zr  4)   -132.5619         0.010000   
    586. D(Zr  3,O  10,Zr  4,Zr  1)    143.1372         0.010000   
    587. D(Zr  3,O  10,Zr  1,Zr  2)    -84.3061         0.010000   
    588. D(Zr  2,O  11,Zr  5,Zr  0)   -144.5812         0.010000   
    589. D(Zr  0,O  11,Zr  5,Zr  2)    144.5812         0.010000   
    590. D(Zr  5,O  11,Zr  2,Zr  1)     52.1930         0.010000   
    591. D(Zr  0,O  11,Zr  2,Zr  5)   -129.0237         0.010000   
    592. D(Zr  0,O  11,Zr  2,Zr  1)    -76.8306         0.010000   
    593. D(Zr  5,O  11,Zr  0,Zr  3)    -53.7746         0.010000   
    594. D(Zr  0,O  11,Zr  5,O   6)     20.9927         0.010000   
    595. D(Zr  2,O  11,Zr  0,Zr  5)    127.6655         0.010000   
    596. D(Zr  2,O  11,Zr  0,Zr  3)     73.8909         0.010000   
    597. D(C  36,O  12,Zr  0,Zr  5)    -31.2358         0.010000   
    598. D(C  36,O  12,Zr  0,Zr  3)     16.0617         0.010000   
    599. D(C  37,O  13,Zr  0,Zr  5)    -68.2030         0.010000   
    600. D(C  37,O  13,Zr  0,Zr  3)     -2.1544         0.010000   
    601. D(C  38,O  14,Zr  0,Zr  5)     29.4445         0.010000   
    602. D(C  38,O  14,Zr  0,Zr  3)    -56.3704         0.010000   
    603. D(C  39,O  15,Zr  0,Zr  5)    -30.7034         0.010000   
    604. D(C  39,O  15,Zr  0,Zr  3)    -66.1714         0.010000   
    605. D(C  40,O  16,Zr  1,Zr  4)      0.1658         0.010000   
    606. D(C  40,O  16,Zr  1,Zr  2)     41.6273         0.010000   
    607. D(C  41,O  17,Zr  1,Zr  4)      0.1925         0.010000   
    608. D(C  41,O  17,Zr  1,Zr  2)     75.2311         0.010000   
    609. D(C  42,O  18,Zr  1,Zr  4)     82.9763         0.010000   
    610. D(C  42,O  18,Zr  1,Zr  2)     22.7608         0.010000   
    611. D(C  43,O  19,Zr  1,Zr  4)     28.0800         0.010000   
    612. D(C  43,O  19,Zr  1,Zr  2)    -18.8113         0.010000   
    613. D(C  44,O  20,Zr  2,Zr  5)     -3.4310         0.010000   
    614. D(C  44,O  20,Zr  2,Zr  1)    -53.5599         0.010000   
    615. D(C  38,O  21,Zr  2,Zr  5)    -32.5173         0.010000   
    616. D(C  38,O  21,Zr  2,Zr  1)     51.5865         0.010000   
    617. D(C  42,O  22,Zr  2,Zr  5)     99.1950         0.010000   
    618. D(C  42,O  22,Zr  2,Zr  1)     33.6477         0.010000   
    619. D(C  45,O  23,Zr  2,Zr  5)     25.5941         0.010000   
    620. D(C  45,O  23,Zr  2,Zr  1)     74.8898         0.010000   
    621. D(C  46,O  24,Zr  3,Zr  4)     54.1555         0.010000   
    622. D(C  46,O  24,Zr  3,Zr  0)    -30.5246         0.010000   
    623. D(C  37,O  25,Zr  3,Zr  4)    -51.4590         0.010000   
    624. D(C  37,O  25,Zr  3,Zr  0)     -0.8977         0.010000   
    625. D(C  41,O  26,Zr  3,Zr  4)     75.0164         0.010000   
    626. D(C  41,O  26,Zr  3,Zr  0)     27.2057         0.010000   
    627. D(C  47,O  27,Zr  3,Zr  4)     34.2231         0.010000   
    628. D(C  47,O  27,Zr  3,Zr  0)    100.5685         0.010000   
    629. D(C  47,O  28,Zr  4,Zr  3)     26.2138         0.010000   
    630. D(C  47,O  28,Zr  4,Zr  1)     86.6662         0.010000   
    631. D(C  39,O  29,Zr  4,Zr  3)     38.2631         0.010000   
    632. D(C  39,O  29,Zr  4,Zr  1)      0.8196         0.010000   
    633. D(C  43,O  30,Zr  4,Zr  3)    -18.6491         0.010000   
    634. D(C  43,O  30,Zr  4,Zr  1)     28.0301         0.010000   
    635. D(C  45,O  31,Zr  4,Zr  3)     77.8539         0.010000   
    636. D(C  45,O  31,Zr  4,Zr  1)      1.6071         0.010000   
    637. D(C  46,O  32,Zr  5,Zr  2)    -54.4564         0.010000   
    638. D(C  46,O  32,Zr  5,Zr  0)     31.1652         0.010000   
    639. D(C  36,O  33,Zr  5,Zr  2)     16.6521         0.010000   
    640. D(C  36,O  33,Zr  5,Zr  0)    -31.1586         0.010000   
    641. D(Al 72,O  34,Zr  5,Zr  0)    133.0838         0.010000   
    642. D(C  40,O  34,Zr  5,Zr  2)    -70.6261         0.010000   
    643. D(C  40,O  34,Zr  5,Zr  0)    -32.0039         0.010000   
    644. D(C  44,O  35,Zr  5,Zr  2)      1.0770         0.010000   
    645. D(C  44,O  35,Zr  5,Zr  0)    -65.0402         0.010000   
    646. D(H  58,C  36,O  33,Zr  5)   -157.2154         0.045776   
    647. D(O  12,C  36,O  33,Zr  5)     22.7839         0.045776   
    648. D(H  58,C  36,O  12,Zr  0)   -157.1220         0.045742   
    649. D(O  33,C  36,O  12,Zr  0)     22.8787         0.045742   
    650. D(H  51,C  37,O  13,Zr  0)   -177.6303         0.046973   
    651. D(O  25,C  37,O  13,Zr  0)      2.4942         0.046973   
    652. D(H  51,C  37,O  25,Zr  3)    179.8372         0.046912   
    653. D(O  13,C  37,O  25,Zr  3)     -0.2873         0.046912   
    654. D(H  50,C  38,O  21,Zr  2)    176.4021         0.048277   
    655. D(O  14,C  38,O  21,Zr  2)     -4.3187         0.048277   
    656. D(H  50,C  38,O  14,Zr  0)   -174.6553         0.048646   
    657. D(O  21,C  38,O  14,Zr  0)      6.0655         0.048646   
    658. D(H  54,C  39,O  29,Zr  4)   -176.3396         0.047684   
    659. D(O  15,C  39,O  29,Zr  4)      2.6756         0.047684   
    660. D(H  54,C  39,O  15,Zr  0)   -164.2881         0.047754   
    661. D(O  29,C  39,O  15,Zr  0)     16.6970         0.047754   
    662. D(H  56,C  40,O  34,Zr  5)   -154.4531         0.061794   
    663. D(O  16,C  40,O  34,Al 72)   -138.2428         0.061794   
    664. D(O  16,C  40,O  34,Zr  5)     27.2048         0.061794   
    665. D(H  56,C  40,O  16,Zr  1)    174.1467         0.057255   
    666. D(O  34,C  40,O  16,Zr  1)     -7.5099         0.057255   
    667. D(H  48,C  41,O  26,Zr  3)    164.1087         0.046585   
    668. D(O  17,C  41,O  26,Zr  3)    -15.0908         0.046585   
    669. D(H  48,C  41,O  17,Zr  1)    146.2886         0.045783   
    670. D(O  26,C  41,O  17,Zr  1)    -34.5125         0.045783   
    671. D(H  49,C  42,O  22,Zr  2)    148.5386         0.063510   
    672. D(O  18,C  42,O  22,Zr  2)    -32.0809         0.063510   
    673. D(H  49,C  42,O  18,Zr  1)    169.6717         0.060151   
    674. D(O  22,C  42,O  18,Zr  1)     -9.7099         0.060151   
    675. D(H  52,C  43,O  30,Zr  4)    159.4490         0.045918   
    676. D(O  19,C  43,O  30,Zr  4)    -20.5483         0.045918   
    677. D(H  52,C  43,O  19,Zr  1)    159.4128         0.045879   
    678. D(O  30,C  43,O  19,Zr  1)    -20.5898         0.045879   
    679. D(H  59,C  44,O  35,Zr  5)    176.2928         0.065019   
    680. D(O  20,C  44,O  35,Zr  5)     -4.0351         0.065019   
    681. D(H  59,C  44,O  20,Zr  2)   -174.5510         0.064954   
    682. D(O  35,C  44,O  20,Zr  2)      5.7770         0.064954   
    683. D(H  55,C  45,O  31,Zr  4)    145.4452         0.045763   
    684. D(O  23,C  45,O  31,Zr  4)    -35.3665         0.045763   
    685. D(H  55,C  45,O  23,Zr  2)    164.0790         0.046543   
    686. D(O  31,C  45,O  23,Zr  2)    -15.1099         0.046543   
    687. D(H  57,C  46,O  32,Zr  5)   -175.0161         0.048665   
    688. D(O  24,C  46,O  32,Zr  5)      5.7890         0.048665   
    689. D(H  57,C  46,O  24,Zr  3)    174.1494         0.048224   
    690. D(O  32,C  46,O  24,Zr  3)     -6.6559         0.048224   
    691. D(H  53,C  47,O  28,Zr  4)    164.6711         0.046219   
    692. D(O  27,C  47,O  28,Zr  4)    -14.4623         0.046219   
    693. D(H  53,C  47,O  27,Zr  3)    150.8784         0.045793   
    694. D(O  28,C  47,O  27,Zr  3)    -29.9891         0.045793   
    695. D(H  63,Al 61,Al 60,H  64)     13.0671         0.010000   
    696. D(H  62,Al 61,Al 60,H  65)    -21.3546         0.010000   
    697. D(H  62,Al 61,Al 60,H  64)    -89.5853         0.010000   
    698. D(Al 68,H  62,Al 61,H  63)   -155.8886         0.010000   
    699. D(Al 68,H  62,Al 61,Al 60)    -36.7216         0.010000   
    700. D(Al 60,H  64,Al 61,H  63)   -168.3700         0.010000   
    701. D(Al 60,H  64,Al 61,H  62)    117.1470         0.010000   
    702. D(Al 61,H  64,Al 60,H  66)    -26.7786         0.010000   
    703. D(Al 61,H  64,Al 60,H  65)   -119.5234         0.010000   
    704. D(Al 72,H  66,Al 60,H  64)    -89.7615         0.010000   
    705. D(Al 72,H  66,Al 60,Al 61)   -105.6314         0.010000   
    706. D(H  70,Al 68,H  62,Al 61)     77.8785         0.010000   
    707. D(H  69,Al 68,H  62,Al 61)    -26.8876         0.010000   
    708. D(H  69,Al 68,Al 61,Al 60)    -52.6372         0.010000   
    709. D(H  62,Al 68,Al 61,H  63)     26.2270         0.010000   
    710. D(H  62,Al 68,Al 61,Al 60)    152.5984         0.010000   
    711. D(Al 72,H  69,Al 68,H  62)    114.0913         0.010000   
    712. D(Al 72,H  69,Al 68,Al 61)     98.1344         0.010000   
    713. D(H  66,Al 72,H  69,Al 68)    -71.3344         0.010000   
    714. D(Al 60,Al 72,H  69,Al 68)    -66.4076         0.010000   
    715. D(Al 60,Al 72,Al 68,H  62)     39.9155         0.010000   
    716. D(Al 60,Al 72,Al 68,Al 61)     31.5854         0.010000   
    717. D(H  69,Al 72,H  66,Al 60)     86.0161         0.010000   
    718. D(Al 68,Al 72,H  66,Al 60)     73.8129         0.010000   
    719. D(H  69,Al 72,Al 60,Al 61)    -19.7650         0.010000   
    720. D(Al 68,Al 72,Al 60,H  64)    -12.9151         0.010000   
    721. D(Al 68,Al 72,Al 60,Al 61)    -31.6272         0.010000   
    722. D(H  66,Al 72,Al 68,Al 61)     26.7621         0.010000   
    723. D(H  66,Al 72,O  34,Zr  5)   -177.9859         0.010000   
    724. D(Al 60,Al 72,O  34,C  40)     -7.6818         0.010000   
    725. D(Al 60,Al 72,O  34,Zr  5)   -176.4616         0.010000   
    726. D(Al 76,H  73,Al 72,H  66)    139.3020         0.010000   
    727. D(Al 76,H  73,Al 72,Al 60)    136.0907         0.010000   
    728. D(H  78,Al 76,H  73,Al 72)      0.5141         0.010000   
    729. D(H  77,Al 76,H  73,Al 72)     92.7587         0.010000   
    730. D(H  77,Al 76,Al 72,Al 60)   -137.4799         0.010000   
    731. D(H  73,Al 76,Al 72,H  66)    -45.4198         0.010000   
    732. D(H  73,Al 76,Al 72,Al 60)    -46.7410         0.010000   
    733. D(Al 72,H  78,Al 76,H  77)    -94.5566         0.010000   
    734. D(Al 72,H  78,Al 76,H  73)     -0.5125         0.010000   
    735. D(Al 76,H  78,Al 72,H  66)    -67.5679         0.010000   
    736. D(Al 76,H  78,Al 72,Al 60)    -64.9752         0.010000   
    -----------------------------------------------------------------

Number of atoms                         .... 80
Number of degrees of freedom            .... 736


         *************************************************************
         *                GEOMETRY OPTIMIZATION CYCLE   1            *
         *************************************************************
---------------------------------
CARTESIAN COORDINATES (ANGSTROEM)
---------------------------------
  Zr    -0.477528    1.809830    1.736887
  Zr     0.415839   -2.013506   -1.804507
  Zr     1.653602   -1.564831    1.355787
  Zr    -1.520338    1.285476   -1.407653
  Zr     1.887619    1.059878   -1.445123
  Zr    -1.691366   -1.387736    1.569350
  O     -1.777936    0.558108    0.642819
  O      1.816221   -0.916159   -0.687836
  O     -0.137238   -1.733175    0.221482
  O      0.227217    1.436558   -0.188522
  O      0.135580    0.069886   -2.034937
  O      0.030551   -0.264844    2.046244
  O     -1.404459    1.403354    3.451084
  O     -2.022472    3.028257    1.514254
  O      1.189413    1.831693    2.825453
  O      0.521331    3.480410    1.033236
  O     -0.789386   -3.563421   -1.233468
  O     -1.196966   -1.731163   -3.030821
  O      1.818645   -3.397612   -1.569213
  O      1.448954   -1.633537   -3.465262
  O      1.192787   -2.445363    3.058902
  O      2.416472   -0.148076    2.621374
  O      1.999426   -3.419206    0.751725
  O      3.629561   -1.285117    0.817136
  O     -3.219205    0.156874   -1.302903
  O     -2.712445    2.684105   -0.683766
  O     -1.833281    0.519483   -3.300594
  O     -0.743421    2.821516   -2.396847
  O      1.394776    2.156000   -3.031203
  O      2.080113    2.937456   -0.641243
  O      2.932104    0.044025   -2.803053
  O      3.543426    0.790177   -0.291548
  O     -3.335623   -1.403309    0.434281
  O     -2.807296   -0.363968    2.864033
  O     -1.799132   -3.329380    0.877213
  O     -1.125123   -2.301233    3.231458
  C     -2.426596    0.617168    3.630305
  C     -2.774488    3.256649    0.480404
  C      2.163739    1.026701    3.105013
  C      1.518026    3.709534    0.236104
  C     -1.578881   -3.906779   -0.263085
  C     -1.741426   -0.727339   -3.655790
  C      2.257785   -3.871849   -0.440979
  C      2.511158   -0.893772   -3.601233
  C      0.058052   -2.609981    3.669135
  C      4.139021   -0.218801    0.275954
  C     -3.799139   -0.750445   -0.582714
  C      0.318217    2.876419   -3.148200
  H     -2.198074   -0.969712   -4.612960
  H      2.904834   -4.749286   -0.501748
  H      2.874339    1.391606    3.839968
  H     -3.548156    4.014655    0.603886
  H      3.119335   -1.081897   -4.487690
  H      0.310309    3.613534   -3.953535
  H      1.938468    4.707273    0.303339
  H      5.224570   -0.155091    0.313693
  H     -2.120960   -4.833683   -0.420621
  H     -4.810673   -1.007585   -0.880787
  H     -3.030506    0.801163    4.521049
  H      0.103230   -3.063409    4.659411
  Al    -1.882404   -8.035424    1.006774
  Al     0.363004   -6.732088    0.291438
  H      1.741842   -6.369880    1.173687
  H      1.447795   -7.529235   -0.594766
  H     -0.353686   -8.246172    0.372383
  H     -1.622238   -8.966370    2.286477
  H     -1.962401   -6.677033    1.980931
  H      0.316443   -5.991958   -1.143196
  Al     1.247071   -6.017804    2.725889
  H     -0.323951   -5.430243    2.773474
  H      0.980492   -7.479890    3.326750
  H     -2.677124   -7.367613   -0.215828
  Al    -1.968098   -5.485156    3.177683
  H     -2.694603   -6.645445    4.162578
  H     -2.961532   -4.249554    2.859200
  H      2.113285   -4.692161    2.973100
  Al    -1.958200   -6.436900    5.647981
  H     -3.068323   -5.424800    6.203671
  H     -1.240359   -5.273956    4.689126
  H     -0.839839   -7.557277    5.404481

----------------------------
CARTESIAN COORDINATES (A.U.)
----------------------------
  NO LB      ZA    FRAG     MASS         X           Y           Z
   0 Zr   12.0000*   0    91.220   -0.902397    3.420084    3.282240
   1 Zr   12.0000*   0    91.220    0.785822   -3.804975   -3.410024
   2 Zr   12.0000*   0    91.220    3.124855   -2.957102    2.562067
   3 Zr   12.0000*   0    91.220   -2.873023    2.429197   -2.660079
   4 Zr   12.0000*   0    91.220    3.567083    2.002880   -2.730887
   5 Zr   12.0000*   0    91.220   -3.196219   -2.622441    2.965642
   6 O     8.0000    0    15.999   -3.359812    1.054671    1.214752
   7 O     8.0000    0    15.999    3.432161   -1.731290   -1.299821
   8 O     8.0000    0    15.999   -0.259341   -3.275225    0.418541
   9 O     8.0000    0    15.999    0.429377    2.714701   -0.356255
  10 O     8.0000    0    15.999    0.256208    0.132066   -3.845474
  11 O     8.0000    0    15.999    0.057733   -0.500483    3.866841
  12 O     8.0000    0    15.999   -2.654044    2.651954    6.521604
  13 O     8.0000    0    15.999   -3.821918    5.722576    2.861525
  14 O     8.0000    0    15.999    2.247665    3.461399    5.339333
  15 O     8.0000    0    15.999    0.985172    6.577021    1.952532
  16 O     8.0000    0    15.999   -1.491723   -6.733891   -2.330917
  17 O     8.0000    0    15.999   -2.261938   -3.271424   -5.727421
  18 O     8.0000    0    15.999    3.436742   -6.420556   -2.965384
  19 O     8.0000    0    15.999    2.738125   -3.086938   -6.548396
  20 O     8.0000    0    15.999    2.254040   -4.621066    5.780488
  21 O     8.0000    0    15.999    4.566471   -0.279823    4.953679
  22 O     8.0000    0    15.999    3.778367   -6.461363    1.420555
  23 O     8.0000    0    15.999    6.858877   -2.428518    1.544164
  24 O     8.0000    0    15.999   -6.083417    0.296450   -2.462131
  25 O     8.0000    0    15.999   -5.125779    5.072224   -1.292131
  26 O     8.0000    0    15.999   -3.464400    0.981681   -6.237218
  27 O     8.0000    0    15.999   -1.404861    5.331893   -4.529385
  28 O     8.0000    0    15.999    2.635745    4.074250   -5.728143
  29 O     8.0000    0    15.999    3.930843    5.550987   -1.211774
  30 O     8.0000    0    15.999    5.540873    0.083195   -5.297002
  31 O     8.0000    0    15.999    6.696104    1.493218   -0.550947
  32 O     8.0000    0    15.999   -6.303413   -2.651870    0.820673
  33 O     8.0000    0    15.999   -5.305021   -0.687800    5.412237
  34 O     8.0000    0    15.999   -3.399866   -6.291616    1.657692
  35 O     8.0000    0    15.999   -2.126175   -4.348701    6.106571
  36 C     6.0000    0    12.011   -4.585602    1.166279    6.860281
  37 C     6.0000    0    12.011   -5.243023    6.154175    0.907832
  38 C     6.0000    0    12.011    4.088874    1.940183    5.867625
  39 C     6.0000    0    12.011    2.868653    7.010003    0.446173
  40 C     6.0000    0    12.011   -2.983653   -7.382743   -0.497159
  41 C     6.0000    0    12.011   -3.290818   -1.374472   -6.908441
  42 C     6.0000    0    12.011    4.266595   -7.316734   -0.833329
  43 C     6.0000    0    12.011    4.745401   -1.688984   -6.805343
  44 C     6.0000    0    12.011    0.109702   -4.932150    6.933659
  45 C     6.0000    0    12.011    7.821615   -0.413473    0.521477
  46 C     6.0000    0    12.011   -7.179331   -1.418136   -1.101169
  47 C     6.0000    0    12.011    0.601344    5.435643   -5.949235
  48 H     1.0000    0     1.008   -4.153758   -1.832489   -8.717231
  49 H     1.0000    0     1.008    5.489341   -8.974850   -0.948166
  50 H     1.0000    0     1.008    5.431713    2.629754    7.256488
  51 H     1.0000    0     1.008   -6.705044    7.586598    1.141180
  52 H     1.0000    0     1.008    5.894690   -2.044489   -8.480506
  53 H     1.0000    0     1.008    0.586399    6.828589   -7.471099
  54 H     1.0000    0     1.008    3.663173    8.895457    0.573228
  55 H     1.0000    0     1.008    9.873007   -0.293080    0.592793
  56 H     1.0000    0     1.008   -4.008034   -9.134336   -0.794858
  57 H     1.0000    0     1.008   -9.090855   -1.904059   -1.664447
  58 H     1.0000    0     1.008   -5.726826    1.513979    8.543545
  59 H     1.0000    0     1.008    0.195076   -5.789003    8.805012
  60 Al   13.0000    0    26.982   -3.557229  -15.184751    1.902526
  61 Al   13.0000    0    26.982    0.685978  -12.721803    0.550739
  62 H     1.0000    0     1.008    3.291604  -12.037329    2.217948
  63 H     1.0000    0     1.008    2.735937  -14.228192   -1.123946
  64 H     1.0000    0     1.008   -0.668370  -15.583006    0.703702
  65 H     1.0000    0     1.008   -3.065585  -16.943984    4.320815
  66 H     1.0000    0     1.008   -3.708400  -12.617764    3.743418
  67 H     1.0000    0     1.008    0.597991  -11.323159   -2.160327
  68 Al   13.0000    0    26.982    2.356623  -11.372001    5.151184
  69 H     1.0000    0     1.008   -0.612179  -10.261673    5.241106
  70 H     1.0000    0     1.008    1.852861  -14.134944    6.286647
  71 H     1.0000    0     1.008   -5.059031  -13.922771   -0.407855
  72 Al   13.0000    0    26.982   -3.719167  -10.365442    6.004950
  73 H     1.0000    0     1.008   -5.092061  -12.558071    7.866133
  74 H     1.0000    0     1.008   -5.596485   -8.030493    5.403104
  75 H     1.0000    0     1.008    3.993531   -8.866900    5.618344
  76 Al   13.0000    0    26.982   -3.700461  -12.163978   10.673137
  77 H     1.0000    0     1.008   -5.798291  -10.251387   11.723239
  78 H     1.0000    0     1.008   -2.343938   -9.966333    8.861164
  79 H     1.0000    0     1.008   -1.587065  -14.281183   10.212990
* core charge reduced due to ECP

--------------------------------
INTERNAL COORDINATES (ANGSTROEM)
--------------------------------
 Zr     0   0   0     0.000000000000     0.00000000     0.00000000
 Zr     1   0   0     5.287482816815     0.00000000     0.00000000
 Zr     2   1   0     3.423569173581    49.31178089     0.00000000
 Zr     1   2   3     3.354181117748    46.49494771   177.56364524
 Zr     4   1   2     3.415621878481    73.16651883   307.54406417
 Zr     3   2   1     3.356453947814    72.86313655    52.48645700
 O      1   2   3     2.110652236957    47.78537136   232.62321097
 O      2   1   3     2.100522644429    51.59816189   311.69494298
 O      6   3   2     2.085998578794    37.59627454     2.88652706
 O      1   2   3     2.084033377638    36.34729581   120.62711836
 O      5   4   1     2.097047329761    36.93304741   129.48956502
 O      6   3   2     2.110287110650    39.58167515   235.34319864
 O      1   2   3     1.990702915607   120.51509930   294.29272699
 O      1   2   3     1.980146516449   120.09630053   195.51160787
 O      1   2   3     1.991016883577   103.45440984    26.98989216
 O      1   2   3     2.069704846489   105.92642356   106.94044929
 O      2   1   3     2.044722573079   105.15731079    80.89505920
 O      2   1   3     2.045654948136    99.70051840   161.90830763
 O      2   1   3     1.984685501076   122.97669517   351.09326956
 O      2   1   3     1.992437963296   120.52956140   249.77519819
 O      3   2   1     1.971874204151   130.86448118   103.25411646
 O      3   2   1     2.047162688228   142.75917712   316.43675858
 O      3   2   1     1.980704884598    70.05652220   164.95489135
 O      3   2   1     2.067075293425    97.05328006   244.98182214
 O      4   1   2     2.042269075907   107.27314254    88.32177325
 O      4   1   2     1.975169693649    74.53542607   165.21377999
 O      4   1   2     2.065890280746   164.59517862   357.79202045
 O      4   1   2     1.985327870145   102.97324884   243.60906409
 O      5   4   1     1.989981446876    74.05325784   224.31086428
 O      5   4   1     2.051481125882    91.65449484   303.72889783
 O      5   4   1     1.991702712821   124.36121291   155.55942061
 O      5   4   1     2.035968713536   144.48719856    18.39028087
 O      6   3   2     1.998049714676   141.58745148   355.70512296
 O      6   3   2     1.992386550488   128.80253202   209.31754471
 O      6   3   2     2.064133858716    88.91493534    61.40644779
 O      6   3   2     1.979321101616    75.16590186   143.51052374
 C     34   6   3     1.301819513700   127.29807883    16.65213124
 C     14   1   2     1.298667477830   130.50530509   344.49275606
[...]
freq.      18.05  E(vib)   ...       0.57 
freq.      19.55  E(vib)   ...       0.56 
freq.      24.05  E(vib)   ...       0.56 
freq.      27.23  E(vib)   ...       0.55 
freq.      31.60  E(vib)   ...       0.55 
freq.      39.16  E(vib)   ...       0.54 
freq.      43.85  E(vib)   ...       0.53 
freq.      50.24  E(vib)   ...       0.52 
freq.      54.44  E(vib)   ...       0.52 
freq.      55.66  E(vib)   ...       0.52 
freq.      60.97  E(vib)   ...       0.51 
freq.      75.05  E(vib)   ...       0.49 
freq.      79.10  E(vib)   ...       0.49 
freq.      79.67  E(vib)   ...       0.49 
freq.      85.91  E(vib)   ...       0.48 
freq.      90.77  E(vib)   ...       0.47 
freq.      95.20  E(vib)   ...       0.47 
freq.      95.68  E(vib)   ...       0.47 
freq.      98.69  E(vib)   ...       0.46 
freq.      99.34  E(vib)   ...       0.46 
freq.     106.19  E(vib)   ...       0.45 
freq.     106.58  E(vib)   ...       0.45 
freq.     110.19  E(vib)   ...       0.45 
freq.     115.51  E(vib)   ...       0.44 
freq.     116.67  E(vib)   ...       0.44 
freq.     120.21  E(vib)   ...       0.44 
freq.     134.39  E(vib)   ...       0.42 
freq.     142.51  E(vib)   ...       0.41 
freq.     146.14  E(vib)   ...       0.41 
freq.     149.16  E(vib)   ...       0.40 
freq.     150.57  E(vib)   ...       0.40 
freq.     152.21  E(vib)   ...       0.40 
freq.     153.03  E(vib)   ...       0.40 
freq.     154.44  E(vib)   ...       0.40 
freq.     158.24  E(vib)   ...       0.39 
freq.     158.62  E(vib)   ...       0.39 
freq.     161.01  E(vib)   ...       0.39 
freq.     162.72  E(vib)   ...       0.39 
freq.     164.49  E(vib)   ...       0.39 
freq.     165.60  E(vib)   ...       0.39 
freq.     169.54  E(vib)   ...       0.38 
freq.     173.39  E(vib)   ...       0.38 
freq.     173.94  E(vib)   ...       0.38 
freq.     184.95  E(vib)   ...       0.37 
freq.     187.46  E(vib)   ...       0.36 
freq.     188.82  E(vib)   ...       0.36 
freq.     193.18  E(vib)   ...       0.36 
freq.     194.22  E(vib)   ...       0.36 
freq.     197.50  E(vib)   ...       0.35 
freq.     198.20  E(vib)   ...       0.35 
freq.     203.48  E(vib)   ...       0.35 
freq.     207.05  E(vib)   ...       0.34 
freq.     213.68  E(vib)   ...       0.34 
freq.     215.39  E(vib)   ...       0.34 
freq.     228.46  E(vib)   ...       0.32 
freq.     228.89  E(vib)   ...       0.32 
freq.     231.73  E(vib)   ...       0.32 
freq.     235.66  E(vib)   ...       0.32 
freq.     237.02  E(vib)   ...       0.32 
freq.     240.81  E(vib)   ...       0.31 
freq.     244.17  E(vib)   ...       0.31 
freq.     257.53  E(vib)   ...       0.30 
freq.     260.55  E(vib)   ...       0.30 
freq.     262.59  E(vib)   ...       0.29 
freq.     264.66  E(vib)   ...       0.29 
freq.     265.66  E(vib)   ...       0.29 
freq.     267.32  E(vib)   ...       0.29 
freq.     270.34  E(vib)   ...       0.29 
freq.     272.58  E(vib)   ...       0.29 
freq.     275.31  E(vib)   ...       0.28 
freq.     276.23  E(vib)   ...       0.28 
freq.     276.84  E(vib)   ...       0.28 
freq.     278.14  E(vib)   ...       0.28 
freq.     280.34  E(vib)   ...       0.28 
freq.     281.22  E(vib)   ...       0.28 
freq.     285.32  E(vib)   ...       0.28 
freq.     287.69  E(vib)   ...       0.27 
freq.     293.50  E(vib)   ...       0.27 
freq.     294.87  E(vib)   ...       0.27 
freq.     296.06  E(vib)   ...       0.27 
freq.     298.09  E(vib)   ...       0.27 
freq.     299.18  E(vib)   ...       0.26 
freq.     302.88  E(vib)   ...       0.26 
freq.     308.28  E(vib)   ...       0.26 
freq.     309.27  E(vib)   ...       0.26 
freq.     310.73  E(vib)   ...       0.26 
freq.     313.43  E(vib)   ...       0.25 
freq.     315.03  E(vib)   ...       0.25 
freq.     316.55  E(vib)   ...       0.25 
freq.     319.63  E(vib)   ...       0.25 
freq.     322.75  E(vib)   ...       0.25 
freq.     324.00  E(vib)   ...       0.25 
freq.     325.58  E(vib)   ...       0.24 
freq.     339.43  E(vib)   ...       0.23 
freq.     340.70  E(vib)   ...       0.23 
freq.     349.77  E(vib)   ...       0.23 
freq.     350.51  E(vib)   ...       0.23 
freq.     360.85  E(vib)   ...       0.22 
freq.     369.21  E(vib)   ...       0.21 
freq.     370.58  E(vib)   ...       0.21 
freq.     380.26  E(vib)   ...       0.21 
freq.     384.30  E(vib)   ...       0.20 
freq.     386.59  E(vib)   ...       0.20 
freq.     393.58  E(vib)   ...       0.20 
freq.     398.17  E(vib)   ...       0.20 
freq.     400.84  E(vib)   ...       0.19 
freq.     401.99  E(vib)   ...       0.19 
freq.     403.99  E(vib)   ...       0.19 
freq.     414.95  E(vib)   ...       0.19 
freq.     415.63  E(vib)   ...       0.18 
freq.     419.76  E(vib)   ...       0.18 
freq.     423.77  E(vib)   ...       0.18 
freq.     442.33  E(vib)   ...       0.17 
freq.     461.29  E(vib)   ...       0.16 
freq.     468.11  E(vib)   ...       0.16 
freq.     476.39  E(vib)   ...       0.15 
freq.     479.37  E(vib)   ...       0.15 
freq.     483.21  E(vib)   ...       0.15 
freq.     492.37  E(vib)   ...       0.14 
freq.     523.63  E(vib)   ...       0.13 
freq.     532.27  E(vib)   ...       0.13 
freq.     541.43  E(vib)   ...       0.12 
freq.     598.52  E(vib)   ...       0.10 
freq.     618.77  E(vib)   ...       0.09 
freq.     653.19  E(vib)   ...       0.08 
freq.     663.02  E(vib)   ...       0.08 
freq.     669.57  E(vib)   ...       0.08 
freq.     673.09  E(vib)   ...       0.08 
freq.     679.92  E(vib)   ...       0.08 
freq.     682.99  E(vib)   ...       0.08 
freq.     684.10  E(vib)   ...       0.07 
freq.     685.53  E(vib)   ...       0.07 
freq.     695.26  E(vib)   ...       0.07 
freq.     696.21  E(vib)   ...       0.07 
freq.     728.36  E(vib)   ...       0.06 
freq.     734.05  E(vib)   ...       0.06 
freq.     734.57  E(vib)   ...       0.06 
freq.     735.13  E(vib)   ...       0.06 
freq.     736.42  E(vib)   ...       0.06 
freq.     736.91  E(vib)   ...       0.06 
freq.     738.63  E(vib)   ...       0.06 
freq.     738.82  E(vib)   ...       0.06 
freq.     739.20  E(vib)   ...       0.06 
freq.     739.43  E(vib)   ...       0.06 
freq.     739.92  E(vib)   ...       0.06 
freq.     740.04  E(vib)   ...       0.06 
freq.     742.39  E(vib)   ...       0.06 
freq.     742.95  E(vib)   ...       0.06 
freq.     782.48  E(vib)   ...       0.05 
freq.     792.51  E(vib)   ...       0.05 
freq.     822.87  E(vib)   ...       0.05 
freq.     975.32  E(vib)   ...       0.03 
freq.     998.59  E(vib)   ...       0.02 
freq.     999.07  E(vib)   ...       0.02 
freq.     999.41  E(vib)   ...       0.02 
freq.    1000.33  E(vib)   ...       0.02 
freq.    1001.20  E(vib)   ...       0.02 
freq.    1001.93  E(vib)   ...       0.02 
freq.    1004.92  E(vib)   ...       0.02 
freq.    1005.49  E(vib)   ...       0.02 
freq.    1005.80  E(vib)   ...       0.02 
freq.    1006.19  E(vib)   ...       0.02 
freq.    1006.47  E(vib)   ...       0.02 
freq.    1009.21  E(vib)   ...       0.02 
freq.    1061.40  E(vib)   ...       0.02 
freq.    1080.15  E(vib)   ...       0.02 
freq.    1156.21  E(vib)   ...       0.01 
freq.    1350.21  E(vib)   ...       0.01 
freq.    1350.26  E(vib)   ...       0.01 
freq.    1351.84  E(vib)   ...       0.01 
freq.    1351.98  E(vib)   ...       0.01 
freq.    1352.28  E(vib)   ...       0.01 
freq.    1353.60  E(vib)   ...       0.01 
freq.    1353.96  E(vib)   ...       0.01 
freq.    1354.83  E(vib)   ...       0.01 
freq.    1355.01  E(vib)   ...       0.01 
freq.    1356.30  E(vib)   ...       0.01 
freq.    1357.01  E(vib)   ...       0.01 
freq.    1357.71  E(vib)   ...       0.01 
freq.    1358.05  E(vib)   ...       0.01 
freq.    1359.17  E(vib)   ...       0.01 
freq.    1361.11  E(vib)   ...       0.01 
freq.    1361.29  E(vib)   ...       0.01 
freq.    1361.77  E(vib)   ...       0.01 
freq.    1364.50  E(vib)   ...       0.01 
freq.    1365.76  E(vib)   ...       0.01 
freq.    1366.57  E(vib)   ...       0.01 
freq.    1367.93  E(vib)   ...       0.01 
freq.    1368.79  E(vib)   ...       0.01 
freq.    1372.63  E(vib)   ...       0.01 
freq.    1372.72  E(vib)   ...       0.01 
freq.    1381.66  E(vib)   ...       0.01 
freq.    1401.57  E(vib)   ...       0.00 
freq.    1532.41  E(vib)   ...       0.00 
freq.    1539.36  E(vib)   ...       0.00 
freq.    1548.31  E(vib)   ...       0.00 
freq.    1563.72  E(vib)   ...       0.00 
freq.    1565.02  E(vib)   ...       0.00 
freq.    1568.75  E(vib)   ...       0.00 
freq.    1577.08  E(vib)   ...       0.00 
freq.    1577.96  E(vib)   ...       0.00 
freq.    1593.40  E(vib)   ...       0.00 
freq.    1631.56  E(vib)   ...       0.00 
freq.    1631.89  E(vib)   ...       0.00 
freq.    1635.60  E(vib)   ...       0.00 
freq.    1638.50  E(vib)   ...       0.00 
freq.    1638.90  E(vib)   ...       0.00 
freq.    1715.35  E(vib)   ...       0.00 
freq.    1781.36  E(vib)   ...       0.00 
freq.    1835.74  E(vib)   ...       0.00 
freq.    1865.46  E(vib)   ...       0.00 
freq.    1876.96  E(vib)   ...       0.00 
freq.    1877.08  E(vib)   ...       0.00 
freq.    1887.96  E(vib)   ...       0.00 
freq.    1888.33  E(vib)   ...       0.00 
freq.    1900.05  E(vib)   ...       0.00 
freq.    1917.46  E(vib)   ...       0.00 
freq.    1929.54  E(vib)   ...       0.00 
freq.    1936.48  E(vib)   ...       0.00 
freq.    2877.94  E(vib)   ...       0.00 
freq.    2886.57  E(vib)   ...       0.00 
freq.    2887.03  E(vib)   ...       0.00 
freq.    2889.29  E(vib)   ...       0.00 
freq.    2890.61  E(vib)   ...       0.00 
freq.    2894.84  E(vib)   ...       0.00 
freq.    2896.80  E(vib)   ...       0.00 
freq.    2900.58  E(vib)   ...       0.00 
freq.    2906.79  E(vib)   ...       0.00 
freq.    2907.63  E(vib)   ...       0.00 
freq.    2909.04  E(vib)   ...       0.00 
freq.    2910.31  E(vib)   ...       0.00 

------------
INNER ENERGY
------------

The inner energy is: U= E(el) + E(ZPE) + E(vib) + E(rot) + E(trans)
    E(el)   - is the total energy from the electronic structure calculation
              = E(kin-el) + E(nuc-el) + E(el-el) + E(nuc-nuc)
    E(ZPE)  - the the zero temperature vibrational energy from the frequency calculation
    E(vib)  - the the finite temperature correction to E(ZPE) due to population
              of excited vibrational states
    E(rot)  - is the rotational thermal energy
    E(trans)- is the translational thermal energy

Summary of contributions to the inner energy U:
Electronic energy                ...  -4220.48811049 Eh
Zero point energy                ...      0.41413572 Eh     259.87 kcal/mol
Thermal vibrational correction   ...      0.06825759 Eh      42.83 kcal/mol
Thermal rotational correction    ...      0.00141627 Eh       0.89 kcal/mol
Thermal translational correction ...      0.00141627 Eh       0.89 kcal/mol
-----------------------------------------------------------------------
Total thermal energy                  -4220.00288464 Eh


Summary of corrections to the electronic energy:
(perhaps to be used in another calculation)
Total thermal correction                  0.07109013 Eh      44.61 kcal/mol
Non-thermal (ZPE) correction              0.41413572 Eh     259.87 kcal/mol
-----------------------------------------------------------------------
Total correction                          0.48522585 Eh     304.48 kcal/mol


--------
ENTHALPY
--------

The enthalpy is H = U + kB*T
                kB is Boltzmann's constant
Total thermal energy              ...  -4220.00288464 Eh 
Thermal Enthalpy correction       ...      0.00094421 Eh       0.59 kcal/mol
-----------------------------------------------------------------------
Total Enthalpy                    ...  -4220.00194043 Eh


Note: Only C1 symmetry has been detected, increase convergence thresholds 
      if your molecule has a higher symmetry. Symmetry factor of 1.0 is   
      used for the rotational entropy correction. 
 

Note: Rotational entropy computed according to Herzberg 
Infrared and Raman Spectra, Chapter V,1, Van Nostrand Reinhold, 1945 
Point Group:  C1, Symmetry Number:   1  
Rotational constants in cm-1:     0.001687     0.000974     0.000927 

Vibrational entropy computed according to the QRRHO of S. Grimme
Chem.Eur.J. 2012 18 9955 using a reference frequency of 100.0 cm-1


-------
ENTROPY
-------

The entropy contributions are T*S = T*(S(el)+S(vib)+S(rot)+S(trans))
     S(el)   - electronic entropy
     S(vib)  - vibrational entropy
     S(rot)  - rotational entropy
     S(trans)- translational entropy
The entropies will be listed as multiplied by the temperature to get
units of energy

Electronic entropy                ...      0.00000000 Eh      0.00 kcal/mol
Vibrational entropy               ...      0.12365726 Eh     77.60 kcal/mol
Rotational entropy                ...      0.01909546 Eh     11.98 kcal/mol
Translational entropy             ...      0.02253999 Eh     14.14 kcal/mol
-----------------------------------------------------------------------
Final entropy term                ...      0.16529271 Eh    103.72 kcal/mol

In case the symmetry of your molecule has not been determined correctly
or in case you have a reason to use a different symmetry number we print 
out the resulting rotational entropy values for sn=1,12:

 non-linear molecules -----------------------------------
|  sn= 1 | S(rot)=       0.01909546 Eh     11.98 kcal/mol|
|  sn= 2 | S(rot)=       0.01844101 Eh     11.57 kcal/mol|
|  sn= 3 | S(rot)=       0.01805818 Eh     11.33 kcal/mol|
|  sn= 4 | S(rot)=       0.01778655 Eh     11.16 kcal/mol|
|  sn= 5 | S(rot)=       0.01757586 Eh     11.03 kcal/mol|
|  sn= 6 | S(rot)=       0.01740372 Eh     10.92 kcal/mol|
|  sn= 7 | S(rot)=       0.01725817 Eh     10.83 kcal/mol|
|  sn= 8 | S(rot)=       0.01713210 Eh     10.75 kcal/mol|
|  sn= 9 | S(rot)=       0.01702089 Eh     10.68 kcal/mol|
|  sn=10 | S(rot)=       0.01692141 Eh     10.62 kcal/mol|
|  sn=11 | S(rot)=       0.01683142 Eh     10.56 kcal/mol|
|  sn=12 | S(rot)=       0.01674926 Eh     10.51 kcal/mol|
 linear molecules ---------------------------------------
|  Dinfh | S(rot)=       0.01191953 Eh      7.48 kcal/mol|
|  Cinfv | S(rot)=       0.01257399 Eh      7.89 kcal/mol|
 --------------------------------------------------------


-------------------
GIBBS FREE ENERGY
-------------------

The Gibbs free energy is G = H - T*S

Total enthalpy                    ...  -4220.00194043 Eh 
Total entropy correction          ...     -0.16529271 Eh   -103.72 kcal/mol
-----------------------------------------------------------------------
Final Gibbs free energy         ...  -4220.16723315 Eh

For completeness - the Gibbs free energy minus the electronic energy
G-E(el)                           ...      0.32087735 Eh    201.35 kcal/mol


Maximum memory used throughout the entire PROP-calculation: 155.6 MB

--------------------------------
SUGGESTED CITATIONS FOR THIS RUN
--------------------------------

Below you find a list of papers that are relevant to this ORCA run
We neither can nor want to force you to cite these papers, but we appreciate if you do
You receive ORCA, which is the product of decades of hard work by many enthusiastic individuals, for free
The only thing we kindly ask in return is that you cite our papers,
We deeply appreciate it, if you show your appreciation for ORCA by not just citing the generic ORCA reference.

Please note that relegating all ORCA citations to the supporting information does *not* help us.
SI sections are not indexed - citations you put there will not count into any citation statistics
But we need these citations in order to attract the funding resources that allow us to do what we are doing

Therefore, if you are a happy ORCA user, please consider citing a few of the papers listed below in the main body of your paper

In addition to the list printed below, the program has created the file run.bibtex that contains the list in bibtex format
You can import this file easily into all common literature databanks and citation aid programs


List of essential papers. We consider these as the minimum necessary citations

  1. Neese, F.
     Software update: the ORCA program system, version 6.0
     WIRES Comput. Molec. Sci. 2025 15(1), e70019
     doi.org/10.1002/wcms.7019

List of papers to cite with high priority. The work reported in these papers was absolutely
necessary for this run to complete.
Our perspective: the developers of density functionals and basis sets usually get cited in chemistry papers
Good! But without the algorithms to do something with them, the functionals or basis sets would not do anything.
Hence, in our opinion, the algorithm design and method developments papers are equally worthy of getting cited

  1. Neese, F.
     An improvement of the resolution of the identity approximation for the formation of the Coulomb matrix
     J. Comp. Chem. 2003 24(14), 1740-1747
     doi.org/10.1002/jcc.10318
  2. Grimme, S.; Antony, J.; Ehrlich, S.; Krieg, H.
     A consistent and accurate ab initio parametrization of density functional dispersion correction (DFT-D) for the 94 elements H-Pu
     J. Chem. Phys. 2010 132 , 154104
     doi.org/10.1063/1.3382344
  3. Grimme, S.; Ehrlich, S.; Goerigk, L.
     Effect of the damping function in dispersion corrected density functional theory
     J. Comput. Chem. 2011 32(7), 1456-1465
     doi.org/10.1002/jcc.21759
  4. Bykov, D.; Petrenko, T.; Izsak, R.; Kossmann, S.; Becker, U.; Valeev, E.; Neese, F.
     Efficient implementation of the analytic second derivatives of Hartree-Fock and hybrid DFT energies: a detailed analysis of different approximations
     Molec. Phys. 2015 113 , 1961-1977
     doi.org/10.1080/00268976.2015.1025114
  5. Helmich-Paris, B.
     A trust-region augmented Hessian implementation for restricted and unrestricted Hartree–Fock and Kohn–Sham methods
     J. Chem. Phys. 2021 154 , 164104
     doi.org/10.1063/5.0040798
  6. Neese, F.
     The SHARK Integral Generation and Digestion System
     J. Comp. Chem. 2022 44(3), 381
     doi.org/10.1002/jcc.26942

List of suggested additional citations. These are papers that are important in the 'surrounding' of 
of this run, or papers that preceded the highly important papers. If you like your results we are grateful for a citation.

  1. Neese, F.
     The ORCA program system
     WIRES Comput. Molec. Sci. 2012 2(1), 73-78
     doi.org/10.1002/wcms.81
  2. Neese, F.
     Software update: the ORCA program system, version 4.0
     WIRES Comput. Molec. Sci. 2018 8(1), 1-6
     doi.org/10.1002/wcms.1327
  3. Neese, F.; Wennmohs, F.; Becker, U.; Riplinger, C.
     The ORCA quantum chemistry program package
     J. Chem. Phys. 2020 152(22), 224108
     doi.org/10.1063/5.0004608
  4. Neese, F.
     Software update: The ORCA program system—Version 5.0
     WIRES Comput. Molec. Sci. 2022 12(1), e1606
     doi.org/10.1002/wcms.1606

List of optional additional citations

  1. Neese, F.
     Approximate second-order SCF convergence for spin unrestricted wavefunctions
     Chem. Phys. Lett. 2000 325(1-3), 93-98
     doi.org/10.1016/s0009-2614(00)00662-x

Timings for individual modules:

Sum of individual times          ...     8942.724 sec (= 149.045 min)
Startup calculation              ...      377.924 sec (=   6.299 min)   4.2 %
SCF iterations                   ...     2558.801 sec (=  42.647 min)  28.6 %
Property integrals               ...     1828.171 sec (=  30.470 min)  20.4 %
SCF Response                     ...     1589.610 sec (=  26.493 min)  17.8 %
Property calculations            ...     1558.064 sec (=  25.968 min)  17.4 %
SCF Gradient evaluation          ...     1005.961 sec (=  16.766 min)  11.2 %
Geometry relaxation              ...       24.194 sec (=   0.403 min)   0.3 %
                             ****ORCA TERMINATED NORMALLY****
TOTAL RUN TIME: 0 days 2 hours 29 minutes 27 seconds 627 msec
