
     Program PWSCF v.7.3.1 starts on 16Aug2025 at  9:52:52 

     This program is part of the open-source Quantum ESPRESSO suite
     for quantum simulation of materials; please cite
         "P. Giannozzi et al., J. Phys.:Condens. Matter 21 395502 (2009);
         "P. Giannozzi et al., J. Phys.:Condens. Matter 29 465901 (2017);
         "P. Giannozzi et al., J. Chem. Phys. 152 154105 (2020);
          URL http://www.quantum-espresso.org", 
     in publications or presentations arising from this work. More details at
     http://www.quantum-espresso.org/quote

     Parallel version (MPI), running on   256 processors

     MPI processes distributed on     1 nodes
     1535029 MiB available memory on the printing compute node when the environment starts

     Waiting for input...
     Reading input from standard input
Warning: card                                           ! GAMMA MUSS REICHEN UND REICHT FüR UIO-66 VERMUTLICH AUCH ignored

     Current dimensions of program PWSCF are:
     Max number of different atomic species (ntypx) = 10
     Max number of k-points (npk) =  40000
     Max angular momentum in pseudopotentials (lmaxx) =  4
     file H.pbe-mt_fhi.UPF: wavefunction(s)  2p 4f renormalized
     file Zr.pbe-mt_fhi.UPF: wavefunction(s)  4f renormalized
     file C.pbe-mt_fhi.UPF: wavefunction(s)  4f renormalized
     file O.pbe-mt_fhi.UPF: wavefunction(s)  4f renormalized
     file N.pbe-mt_fhi.UPF: wavefunction(s)  4f renormalized

     IMPORTANT: XC functional enforced from input :
     Exchange-correlation= HSE
                           (   1   4  12   4   0   0   0)
     EXX-fraction              =        0.25
     Any further DFT definition will be discarded
     Please, verify this is what you really want

     Message from routine setup:
     no reason to have ecutrho>4*ecutwfc

     R & G space division:  proc/nbgrp/npool/nimage =     256
     WARNING: too many processors for an effective parallelization!
     wavefunctions fft division:  task group distribution
                                  #TG    x Z-proc =       8     32
     Subspace diagonalization in iterative solution of the eigenvalue problem:
     one sub-group per band group will be used
     custom distributed-memory algorithm (size of sub-group:  5*  5 procs)

     EXX: q-point mesh:     1    1    1
     EXX: grid of k+q points same as grid of k-points

     Parallelization info
     --------------------
     sticks:   dense  smooth     PW     G-vecs:    dense   smooth      PW
     Min         186     124     31                27286    14853    1853
     Max         187     125     32                27297    14860    1860
     Sum       47775   31869   7969              6986593  3802973  475407

     Using Pencil Decomposition



     bravais-lattice index     =            0
     lattice parameter (alat)  =      27.5206  a.u.
     unit-cell volume          =   15323.5057 (a.u.)^3
     number of atoms/cell      =          120
     number of atomic types    =            5
     number of electrons       =       456.00
     number of Kohn-Sham states=          504
     kinetic-energy cutoff     =     150.0000  Ry
     charge density cutoff     =     900.0000  Ry
     cutoff for Fock operator  =     600.0000  Ry
     scf convergence threshold =      1.0E-10
     mixing beta               =       0.7000
     number of iterations used =            8  plain     mixing
     Exchange-correlation= HSE
                           (   1   4  12   4   0   0   0)
     EXX-fraction              =        0.25

     celldm(1)=  27.520592  celldm(2)=   0.000000  celldm(3)=   0.000000
     celldm(4)=   0.000000  celldm(5)=   0.000000  celldm(6)=   0.000000

     crystal axes: (cart. coord. in units of alat)
               a(1) = (   0.999446  -0.001436  -0.001029 )  
               a(2) = (   0.472799   0.880543  -0.001029 )  
               a(3) = (   0.472799   0.282318   0.834058 )  

     reciprocal axes: (cart. coord. in units 2 pi/alat)
               b(1) = (  0.999387 -0.537061 -0.384730 )  
               b(2) = (  0.001234  1.134551 -0.384730 )  
               b(3) = (  0.001234  0.000737  1.198008 )  


     PseudoPot. # 1 for H  read from file:
     /home/mehlhorn/pseudos/UiO-66_pbe-mt_fhi/H.pbe-mt_fhi.UPF
     MD5 check sum: a51ab2e498800631a519c120141ab865
     Pseudo is Norm-conserving, Zval =  1.0
     Generated using FHI98PP, converted with fhi2upf.x v.5.0.2
     Using radial grid of  387 points,  3 beta functions with: 
                l(1) =   0
                l(2) =   1
                l(3) =   3

     PseudoPot. # 2 for Zr read from file:
     /home/mehlhorn/pseudos/UiO-66_pbe-mt_fhi/Zr.pbe-mt_fhi.UPF
     MD5 check sum: d7174933297848aa528ce1e54352b3ca
     Pseudo is Norm-conserving, Zval =  4.0
     Generated using FHI98PP, converted with fhi2upf.x v.5.0.2
     Using radial grid of  539 points,  3 beta functions with: 
                l(1) =   0
                l(2) =   2
                l(3) =   3

     PseudoPot. # 3 for C  read from file:
     /home/mehlhorn/pseudos/UiO-66_pbe-mt_fhi/C.pbe-mt_fhi.UPF
     MD5 check sum: e90676e360d65248580884789dafaf8e
     Pseudo is Norm-conserving, Zval =  4.0
     Generated using FHI98PP, converted with fhi2upf.x v.5.0.2
     Using radial grid of  461 points,  3 beta functions with: 
                l(1) =   0
                l(2) =   1
                l(3) =   3

     PseudoPot. # 4 for O  read from file:
     /home/mehlhorn/pseudos/UiO-66_pbe-mt_fhi/O.pbe-mt_fhi.UPF
     MD5 check sum: 99adf16d734adfb1dfafd143319e1c8a
     Pseudo is Norm-conserving, Zval =  6.0
     Generated using FHI98PP, converted with fhi2upf.x v.5.0.2
     Using radial grid of  473 points,  3 beta functions with: 
                l(1) =   0
                l(2) =   1
                l(3) =   3

     PseudoPot. # 5 for N  read from file:
     /home/mehlhorn/pseudos/UiO-66_pbe-mt_fhi/N.pbe-mt_fhi.UPF
     MD5 check sum: 7f83aac2c813a0e1096af144166c4722
     Pseudo is Norm-conserving, Zval =  5.0
     Generated using FHI98PP, converted with fhi2upf.x v.5.0.2
     Using radial grid of  467 points,  3 beta functions with: 
                l(1) =   0
                l(2) =   1
                l(3) =   3

     atomic species   valence    mass     pseudopotential
     H                 1.00     1.00750     H ( 1.00)
     Zr                4.00    91.22400     Zr( 1.00)
     C                 4.00    12.01060     C ( 1.00)
     O                 6.00    15.99900     O ( 1.00)
     N                 5.00    14.00650     N ( 1.00)

     No symmetry found



   Cartesian axes

     site n.     atom                  positions (alat units)
         1        Zr     tau(   1) = (   0.9900351   0.1395721   0.1028148  )
         2        Zr     tau(   2) = (   0.5948311   0.8041031   0.0990732  )
         3        Zr     tau(   3) = (   0.5924712   0.3564570   0.7294772  )
         4        Zr     tau(   4) = (   1.3593131   0.8096220   0.1042222  )
         5        Zr     tau(   5) = (   0.9609403   1.0263134   0.7330459  )
         6        Zr     tau(   6) = (   1.3575073   0.3601294   0.7359093  )
         7        O      tau(   7) = (   1.0822206   0.2556387   0.0706772  )
         8        O      tau(   8) = (   0.6446423   0.8819793   0.2193084  )
         9        O      tau(   9) = (   0.7383762   0.3344255   0.7645307  )
        10        O      tau(  10) = (   1.3050849   0.2843358   0.6141994  )
        11        O      tau(  11) = (   0.8693500   0.9077934   0.7625462  )
        12        O      tau(  12) = (   1.2115304   0.8296993   0.0716142  )
        13        O      tau(  13) = (   1.3021148   0.6833735   0.0362806  )
        14        O      tau(  14) = (   1.2192337   0.2988655   0.7667885  )
        15        O      tau(  15) = (   0.7345818   0.8622163   0.0677781  )
        16        O      tau(  16) = (   0.8414196   1.0257378   0.6353683  )
        17        O      tau(  17) = (   0.8821769   0.0540665   0.0408540  )
        18        O      tau(  18) = (   0.4678065   0.7500255   0.0380477  )
        19        O      tau(  19) = (   0.6491321   0.4846731   0.7945690  )
        20        O      tau(  20) = (   1.1074825   0.1406542   0.2032725  )
        21        O      tau(  21) = (   0.6534953   0.6702597   0.0664010  )
        22        O      tau(  22) = (   0.5551547   0.4432001   0.6132612  )
        23        O      tau(  23) = (   0.8912274   0.2537272   0.0678963  )
        24        O      tau(  24) = (   1.3962336   0.7205419   0.2189193  )
        25        O      tau(  25) = (   1.0488275   1.0208990   0.6118008  )
        26        O      tau(  26) = (   1.2965981   0.4927793   0.7697897  )
        27        O      tau(  27) = (   0.4660363   0.2802902   0.6979083  )
        28        O      tau(  28) = (   1.3089800   0.8852955   0.2274430  )
        29        O      tau(  29) = (   0.5511899   0.7153797   0.2183932  )
        30        O      tau(  30) = (   1.4858087   0.8853650   0.1351118  )
        31        O      tau(  31) = (   1.4841876   0.4136454   0.7973944  )
        32        O      tau(  32) = (   1.0681407   1.1122427   0.7948240  )
        33        O      tau(  33) = (   1.4002517   0.4509953   0.6203258  )
        34        O      tau(  34) = (   0.6461007   0.2779890   0.6070828  )
        35        O      tau(  35) = (   1.0612093   0.9151157   0.7650530  )
        36        O      tau(  36) = (   0.9000321   0.1456770   0.2223356  )
        37        N      tau(  37) = (   1.0714438   0.4367846   0.0960603  )
        38        N      tau(  38) = (   0.7119933   0.8334486   0.3826577  )
        39        N      tau(  39) = (   0.8927354   0.3277623   0.6660268  )
        40        N      tau(  40) = (   1.3035223   0.6479163   0.3587113  )
        41        N      tau(  41) = (   1.1886863   0.6099629   0.6801534  )
        42        N      tau(  42) = (   1.1008050   0.8875820   0.4980622  )
        43        C      tau(  43) = (   0.8040020   0.9013582   0.8203017  )
        44        C      tau(  44) = (   1.3204081   0.2018493   0.5895252  )
        45        C      tau(  45) = (   0.1557334   0.0832754   0.2491964  )
        46        C      tau(  46) = (   1.1748689   0.8668573   0.0014535  )
        47        C      tau(  47) = (   0.1910103   0.3589529   0.0061845  )
        48        C      tau(  48) = (   0.4066049   0.0051788  -0.0039831  )
        49        C      tau(  49) = (   0.3051705   0.0124762  -0.0013245  )
        50        C      tau(  50) = (   0.1471801   0.2673477   0.0122387  )
        51        C      tau(  51) = (   1.1519119   0.4373571   0.0474079  )
        52        C      tau(  52) = (   0.7097701   0.9260516   0.3988519  )
        53        C      tau(  53) = (   0.7934923   0.7321772   0.7845492  )
        54        C      tau(  54) = (   1.2773572   0.1704730   0.5016588  )
        55        C      tau(  55) = (   0.7559594   0.8107582   0.8267775  )
        56        C      tau(  56) = (   1.0723214   0.8732078   0.0000129  )
        57        C      tau(  57) = (   0.1974220   0.1106009   0.3378791  )
        58        C      tau(  58) = (   1.1984927   0.2030724   0.3601715  )
        59        C      tau(  59) = (   1.1140866   0.8981334   0.8325402  )
        60        C      tau(  60) = (   1.3191110   0.9667624   0.2574336  )
        61        C      tau(  61) = (   1.4767775   0.4698285   0.5825340  )
        62        C      tau(  62) = (   0.7853648   0.3568087  -0.0024077  )
        63        C      tau(  63) = (   0.4740433   0.6947613   0.2542207  )
        64        C      tau(  64) = (   0.8364836   0.2689462   0.0013248  )
        65        C      tau(  65) = (   1.2377048   0.2344715   0.4408415  )
        66        C      tau(  66) = (   1.0279829   0.2974335   0.7537624  )
        67        C      tau(  67) = (   0.9262112   0.8623482   0.0763996  )
        68        C      tau(  68) = (   0.7472507   0.6494818   0.7919193  )
        69        C      tau(  69) = (   0.7494444   0.9594538   0.4807865  )
        70        C      tau(  70) = (   1.0209460   0.8558473   0.0801759  )
        71        C      tau(  71) = (   1.2001362   0.5210750   0.0391164  )
        72        C      tau(  72) = (   0.9314078   0.3044011   0.7484962  )
        73        C      tau(  73) = (   0.7449881   0.2289411   0.4506589  )
        74        C      tau(  74) = (   1.3932218   0.5615859   0.4654048  )
        75        C      tau(  75) = (   1.2078344   0.9318059   0.3819958  )
        76        C      tau(  76) = (   1.3877565   0.6159790   0.3853511  )
        77        C      tau(  77) = (   1.1539196   0.9546470   0.4592519  )
        78        C      tau(  78) = (   1.2647480   0.9954570   0.3397582  )
        79        C      tau(  79) = (   1.2005251   0.6639179   0.7561392  )
        80        C      tau(  80) = (   1.1552326   0.7495638   0.7593676  )
        81        C      tau(  81) = (   0.5549151   0.6027655   0.3731736  )
        82        C      tau(  82) = (   0.7938545   0.4185186   0.0717811  )
        83        C      tau(  83) = (   0.4715707   0.6380273   0.3386128  )
        84        C      tau(  84) = (   0.7487409   0.5021361   0.0738642  )
        85        C      tau(  85) = (   0.7972019   0.2053757   0.3748318  )
        86        C      tau(  86) = (   0.5589360   0.5493539   0.4516753  )
        87        C      tau(  87) = (   1.4762520   0.5280004   0.4978472  )
        88        C      tau(  88) = (   0.6866347   0.1657092   0.4951652  )
        89        C      tau(  89) = (   1.1650491   0.8089233   0.8332232  )
        90        C      tau(  90) = (   0.6335318   0.1971298   0.5760341  )
        91        H      tau(  91) = (   0.8583957   0.7374284   0.7479137  )
        92        H      tau(  92) = (   1.2394405   0.3072612   0.4576000  )
        93        H      tau(  93) = (   1.1721439   0.5829396   0.0707606  )
        94        H      tau(  94) = (   0.7750686   0.5873652   0.7608231  )
        95        H      tau(  95) = (   1.0563542   0.8387415   0.1437038  )
        96        H      tau(  96) = (   1.1681747   0.2510067   0.3113617  )
        97        H      tau(  97) = (   1.0691677   0.3100260   0.6924647  )
        98        H      tau(  98) = (   0.8847221   0.8502639   0.1374888  )
        99        H      tau(  99) = (   0.7800654   0.9111585   0.5291813  )
       100        H      tau( 100) = (   0.8413973   0.2551172   0.3408639  )
       101        H      tau( 101) = (   0.6236886   0.5221191   0.4771029  )
       102        H      tau( 102) = (   0.7554784   0.5487076   0.1318893  )
       103        H      tau( 103) = (   0.8370854   0.3973632   0.1290678  )
       104        H      tau( 104) = (   0.6171800   0.6183243   0.3347127  )
       105        H      tau( 105) = (   1.1115852   0.7701402   0.7021041  )
       106        H      tau( 106) = (   0.7468695   0.2986547   0.4777646  )
       107        H      tau( 107) = (   1.2052459   0.8620847   0.3547956  )
       108        H      tau( 108) = (   1.0337338   0.3781417   0.0964754  )
       109        H      tau( 109) = (   1.0391455   0.4974451   0.1064925  )
       110        H      tau( 110) = (   1.3306146   0.5457383   0.5033102  )
       111        H      tau( 111) = (   1.2990852   0.6781594   0.2960359  )
       112        H      tau( 112) = (   1.0550237   0.9072087   0.5468616  )
       113        H      tau( 113) = (   1.2471294   0.6185331   0.3866549  )
       114        H      tau( 114) = (   0.7225495   0.7910729   0.4367365  )
       115        H      tau( 115) = (   1.2132064   0.5447479   0.6830368  )
       116        H      tau( 116) = (   0.9308179   0.3192346   0.6085054  )
       117        H      tau( 117) = (   0.6778428   0.8090133   0.3269988  )
       118        H      tau( 118) = (   0.8232224   0.3264236   0.6607974  )
       119        H      tau( 119) = (   1.1360708   0.6249329   0.6373533  )
       120        H      tau( 120) = (   1.0890267   0.8298703   0.4612515  )

     number of k points=     1
                       cart. coord. in units 2pi/alat
        k(    1) = (   0.0000000   0.0000000   0.0000000), wk =   2.0000000

     Dense  grid:  6986593 G-vectors     FFT dimensions: ( 270, 270, 270)

     Smooth grid:  3802973 G-vectors     FFT dimensions: ( 216, 216, 216)

     Estimated max dynamical RAM per process >     750.34 MB

     Estimated total dynamical RAM >     187.58 GB
     EXX: ACE will be initialized later

     Initial potential from superposition of free atoms

     starting charge     455.9850, renormalised to     456.0000

     negative rho (up, down):  1.042E-02 0.000E+00
     Starting wfcs are 1920 randomized atomic wfcs

     total cpu time spent up to now is      132.5 secs

     Self-consistent Calculation

     iteration #  1     ecut=   150.00 Ry     beta= 0.70
     Davidson diagonalization with overlap
     ethr =  1.00E-02,  avg # of iterations =  7.0

     negative rho (up, down):  2.756E-03 0.000E+00

     total cpu time spent up to now is      235.0 secs

     total energy              =   -1694.12803162 Ry
     estimated scf accuracy    <      18.52896194 Ry

     iteration #  2     ecut=   150.00 Ry     beta= 0.70
     Davidson diagonalization with overlap
     ethr =  4.06E-03,  avg # of iterations =  2.0

     negative rho (up, down):  2.226E-04 0.000E+00

     total cpu time spent up to now is      306.5 secs

     total energy              =   -1694.38786987 Ry
     estimated scf accuracy    <      23.37579354 Ry

     iteration #  3     ecut=   150.00 Ry     beta= 0.70
     Davidson diagonalization with overlap
     ethr =  4.06E-03,  avg # of iterations =  2.0

     negative rho (up, down):  2.113E-05 0.000E+00

     total cpu time spent up to now is      365.9 secs

     total energy              =   -1700.12239867 Ry
     estimated scf accuracy    <       3.45743003 Ry

     iteration #  4     ecut=   150.00 Ry     beta= 0.70
     Davidson diagonalization with overlap
     ethr =  7.58E-04,  avg # of iterations =  3.0

     negative rho (up, down):  1.182E-06 0.000E+00

     total cpu time spent up to now is      425.4 secs

     total energy              =   -1700.56451063 Ry
     estimated scf accuracy    <       0.35682648 Ry

     iteration #  5     ecut=   150.00 Ry     beta= 0.70
     Davidson diagonalization with overlap
     ethr =  7.83E-05,  avg # of iterations = 10.0

     total cpu time spent up to now is      499.3 secs

     total energy              =   -1700.59086337 Ry
     estimated scf accuracy    <       0.05349356 Ry

     iteration #  6     ecut=   150.00 Ry     beta= 0.70
     Davidson diagonalization with overlap
     ethr =  1.17E-05,  avg # of iterations =  6.0

     total cpu time spent up to now is      565.9 secs

     total energy              =   -1700.60050812 Ry
     estimated scf accuracy    <       0.00839426 Ry

     iteration #  7     ecut=   150.00 Ry     beta= 0.70
     Davidson diagonalization with overlap
     ethr =  1.84E-06,  avg # of iterations = 14.0

     total cpu time spent up to now is      639.8 secs

     total energy              =   -1700.60227488 Ry
     estimated scf accuracy    <       0.00286241 Ry

     iteration #  8     ecut=   150.00 Ry     beta= 0.70
     Davidson diagonalization with overlap
     ethr =  6.28E-07,  avg # of iterations =  2.0

     total cpu time spent up to now is      696.5 secs

     total energy              =   -1700.60284174 Ry
     estimated scf accuracy    <       0.00030874 Ry

     iteration #  9     ecut=   150.00 Ry     beta= 0.70
     Davidson diagonalization with overlap
     ethr =  6.77E-08,  avg # of iterations =  2.0

     total cpu time spent up to now is      754.1 secs

     total energy              =   -1700.60291090 Ry
     estimated scf accuracy    <       0.00010092 Ry

     iteration # 10     ecut=   150.00 Ry     beta= 0.70
     Davidson diagonalization with overlap
     ethr =  2.21E-08,  avg # of iterations =  2.0

     total cpu time spent up to now is      810.9 secs

     total energy              =   -1700.60293830 Ry
     estimated scf accuracy    <       0.00001545 Ry

     iteration # 11     ecut=   150.00 Ry     beta= 0.70
     Davidson diagonalization with overlap
     ethr =  3.39E-09,  avg # of iterations =  2.0

     total cpu time spent up to now is      872.0 secs

     total energy              =   -1700.60294312 Ry
     estimated scf accuracy    <       0.00000345 Ry

     iteration # 12     ecut=   150.00 Ry     beta= 0.70
     Davidson diagonalization with overlap
     ethr =  7.56E-10,  avg # of iterations =  2.0

     total cpu time spent up to now is      932.8 secs

     total energy              =   -1700.60294436 Ry
     estimated scf accuracy    <       0.00000065 Ry

     iteration # 13     ecut=   150.00 Ry     beta= 0.70
     Davidson diagonalization with overlap
     ethr =  1.43E-10,  avg # of iterations =  2.0

     total cpu time spent up to now is      995.8 secs

     total energy              =   -1700.60294463 Ry
     estimated scf accuracy    <       0.00000021 Ry

     iteration # 14     ecut=   150.00 Ry     beta= 0.70
     Davidson diagonalization with overlap
     ethr =  4.71E-11,  avg # of iterations =  2.0

     total cpu time spent up to now is     1057.1 secs

     total energy              =   -1700.60294470 Ry
     estimated scf accuracy    <       0.00000003 Ry

     iteration # 15     ecut=   150.00 Ry     beta= 0.70
     Davidson diagonalization with overlap
     ethr =  5.66E-12,  avg # of iterations =  3.0

     total cpu time spent up to now is     1122.0 secs

     total energy              =   -1700.60294471 Ry
     estimated scf accuracy    <          5.3E-09 Ry

     iteration # 16     ecut=   150.00 Ry     beta= 0.70
     Davidson diagonalization with overlap
     ethr =  1.17E-12,  avg # of iterations =  3.0

     total cpu time spent up to now is     1186.4 secs

     total energy              =   -1700.60294472 Ry
     estimated scf accuracy    <          1.7E-09 Ry

     iteration # 17     ecut=   150.00 Ry     beta= 0.70
     Davidson diagonalization with overlap
     ethr =  3.72E-13,  avg # of iterations =  2.0

     total cpu time spent up to now is     1247.6 secs

     total energy              =   -1700.60294472 Ry
     estimated scf accuracy    <          2.8E-10 Ry

     iteration # 18     ecut=   150.00 Ry     beta= 0.70
     Davidson diagonalization with overlap
     ethr =  1.00E-13,  avg # of iterations =  2.0

     total cpu time spent up to now is     1308.8 secs

     total energy              =   -1700.60294472 Ry
     estimated scf accuracy    <          2.4E-10 Ry

     iteration # 19     ecut=   150.00 Ry     beta= 0.70
     Davidson diagonalization with overlap
     ethr =  1.00E-13,  avg # of iterations =  1.0

     total cpu time spent up to now is     1359.5 secs

     End of self-consistent calculation

          k = 0.0000 0.0000 0.0000 (475407 PWs)   bands (ev):

   -22.8087 -22.7848 -22.7847 -22.7432 -22.7431 -22.7246 -22.5906 -22.5422
   -22.4942 -22.4942 -22.4566 -22.4566 -20.5278 -20.5030 -20.5030 -20.4492
   -20.4492 -20.4163 -20.3039 -20.3038 -20.2559 -20.2558 -20.1754 -20.1382
   -19.0169 -19.0130 -19.0129 -18.7652 -18.7651 -18.7651 -18.3543 -18.0471
   -18.0471 -17.6234 -17.6234 -17.4719 -16.8831 -16.8824 -16.8824 -16.6613
   -16.6573 -16.6573 -14.9399 -14.9399 -14.9290 -14.7169 -14.6928 -14.6928
   -13.9760 -13.9759 -13.9716 -13.7569 -13.7562 -13.7562 -12.3463 -12.3055
   -12.3055 -12.1275 -12.0515 -12.0515 -10.9998 -10.9982 -10.9981 -10.7717
   -10.7717 -10.7601 -10.3220 -10.3220 -10.1943 -10.0992  -9.9889  -9.9202
    -9.9202  -9.8925  -9.8925  -9.7763  -9.6826  -9.6826  -9.0291  -8.9817
    -8.9817  -8.7792  -8.7316  -8.7316  -8.6496  -8.4925  -8.4925  -8.3894
    -8.3855  -8.3855  -8.2469  -8.1611  -8.1611  -8.0287  -8.0287  -7.9664
    -7.9473  -7.9473  -7.8360  -7.8360  -7.8091  -7.7188  -7.7138  -7.7137
    -7.6086  -7.5284  -7.5284  -7.3272  -7.3272  -7.3154  -7.3057  -7.1638
    -7.1313  -7.1313  -7.0761  -6.8749  -6.8748  -6.7870  -6.7870  -6.7654
    -6.6977  -6.5723  -6.5723  -6.5032  -6.3984  -6.3984  -6.3887  -6.3080
    -6.3080  -6.2683  -6.2445  -6.2445  -6.1357  -6.1357  -6.1152  -6.0399
    -6.0399  -6.0322  -5.7071  -5.7023  -5.7023  -5.5644  -5.3674  -5.3674
    -5.3601  -5.2874  -5.2874  -5.2558  -5.1204  -5.1007  -5.1007  -4.9283
    -4.9283  -4.8840  -4.8840  -4.8156  -4.7845  -4.4488  -4.4488  -4.4376
    -4.2819  -4.2600  -4.2599  -4.1630  -4.1629  -4.1257  -4.1257  -4.1208
    -3.9754  -3.9754  -3.8653  -3.7018  -3.6828  -3.6828  -3.6214  -3.6118
    -3.6118  -3.5489  -3.4982  -3.4334  -3.4334  -3.3406  -3.3406  -3.3131
    -3.2730  -3.2598  -3.2598  -3.1775  -3.1616  -3.1616  -3.1345  -3.0150
    -3.0150  -2.9715  -2.9715  -2.9134  -2.9134  -2.8679  -2.7624  -2.7315
    -2.7228  -2.7228  -2.5967  -2.5952  -2.5952  -2.5731  -2.5731  -2.5268
    -2.5058  -2.5058  -2.4233  -2.3543  -2.3542  -2.3308  -2.3307  -2.3095
    -2.1310  -2.0976  -2.0976  -1.5046  -1.5046  -1.3686  -1.0498  -1.0498
    -1.0360  -0.8304  -0.8138  -0.8138   1.0420   1.4486   1.4486   1.6080
     1.7248   1.7248   1.9653   2.6533   2.6822   2.6822   2.8434   2.8800
     2.8801   3.0541   3.0541   3.1374   3.1653   3.1653   3.2729   3.3251
     3.3349   3.3350   3.3564   3.4091   3.4091   3.4996   3.5653   3.7627
     3.7627   3.7807   3.7808   3.8160   3.9760   4.0501   4.0501   4.0655
     4.2443   4.2581   4.2581   4.3830   4.3830   4.4377   4.5496   4.5496
     4.5710   4.6339   4.6339   4.8339   4.8339   4.9134   4.9455   4.9967
     4.9967   5.1247   5.1337   5.1337   5.2816   5.2816   5.3117   5.3117
     5.3897   5.3971   5.4912   5.6677   5.6677   5.7751   5.7751   5.8314
     5.8663   5.8663   5.8716   5.9363   5.9649   5.9649   6.0057   6.1595
     6.1595   6.2223   6.2348   6.2348   6.2431   6.2967   6.3713   6.3713
     6.4920   6.4951   6.4951   6.5481   6.6304   6.6304   6.7002   6.8921
     6.8922   7.0654   7.0877   7.0877   7.1758   7.1758   7.2155   7.2998
     7.2998   7.3149   7.4152   7.4697   7.4697   7.5557   7.5557   7.5896
     7.6777   7.7096   7.7096   7.7194   7.7997   7.7997   7.9106   7.9485
     7.9485   7.9717   8.0626   8.1043   8.1043   8.1121   8.2828   8.3768
     8.3768   8.4778   8.4982   8.4982   8.5796   8.5796   8.6395   8.6826
     8.7302   8.7302   8.7492   8.8452   8.8822   8.8822   8.9191   8.9395
     8.9395   9.0034   9.0034   9.0075   9.0971   9.0971   9.1793   9.1793
     9.2566   9.3448   9.4312   9.4648   9.4648   9.4990   9.5575   9.5575
     9.5954   9.6219   9.6219   9.6569   9.6805   9.6805   9.7920   9.7993
     9.7993   9.8325   9.8325   9.8516   9.9154   9.9154   9.9474  10.0157
    10.0256  10.0256  10.0851  10.0851  10.0862  10.1554  10.1836  10.1836
    10.2924  10.2924  10.3232  10.3925  10.3925  10.4082  10.4391  10.4878
    10.4878  10.5662  10.5662  10.6431  10.7149  10.7149  10.7202  10.7795
    10.7795  10.8234  10.8864  10.9539  10.9844  10.9844  11.0017  11.0199
    11.0199  11.1672  11.1672  11.1768  11.2543  11.3140  11.3140  11.3346
    11.3641  11.3641  11.5148  11.5349  11.5586  11.5587  11.6581  11.6581
    11.6704  11.7146  11.7146  11.7228  11.8011  11.8011  11.8622  11.8645
    11.8645  12.0080  12.0080  12.0094  12.0549  12.0559  12.0559  12.1586
    12.1586  12.1847  12.2638  12.2638  12.2843  12.3026  12.3557  12.3557
    12.4613  12.4750  12.4750  12.5294  12.5294  12.5818  12.5818  12.6020
    12.6533  12.6936  12.6936  12.6960  12.7257  12.7805  12.7805  12.8921
    12.9027  12.9027  12.9401  12.9401  12.9546  12.9972  12.9972  13.0397
    13.1055  13.1431  13.1432  13.1809  13.2697  13.2698  13.3071  13.3573

     highest occupied, lowest unoccupied level (ev):    -0.8138    1.0420

!    total energy              =   -1700.60294472 Ry
     estimated scf accuracy    <          2.4E-11 Ry

     convergence has been achieved in  19 iterations

     Using ACE for calculation of exact exchange

     EXX grid:  3802973 G-vectors     FFT dimensions: ( 216, 216, 216)
     ACE projected onto   504 (nbndproj) and applied to   504 (nbnd) bands

     EXX: now go back to refine exchange calculation

     total cpu time spent up to now is     3705.0 secs

     Self-consistent Calculation

     iteration #  1     ecut=   150.00 Ry     beta= 0.70
     Davidson diagonalization with overlap
     c_bands:  3 eigenvalues not converged
     ethr =  1.00E-13,  avg # of iterations = 20.0

     total cpu time spent up to now is     4107.6 secs

     total energy              =   -1699.39978889 Ry
     estimated scf accuracy    <       0.11821937 Ry

     iteration #  2     ecut=   150.00 Ry     beta= 0.70
     Davidson diagonalization with overlap
     ethr =  2.59E-05,  avg # of iterations =  2.0

     total cpu time spent up to now is     4183.9 secs

     total energy              =   -1699.41903867 Ry
     estimated scf accuracy    <       0.09621786 Ry

     iteration #  3     ecut=   150.00 Ry     beta= 0.70
     Davidson diagonalization with overlap
     ethr =  2.11E-05,  avg # of iterations =  2.0

     total cpu time spent up to now is     4253.4 secs

     total energy              =   -1699.44072027 Ry
     estimated scf accuracy    <       0.00369637 Ry

     iteration #  4     ecut=   150.00 Ry     beta= 0.70
     Davidson diagonalization with overlap
     ethr =  8.11E-07,  avg # of iterations =  2.0

     total cpu time spent up to now is     4325.9 secs

     total energy              =   -1699.44165283 Ry
     estimated scf accuracy    <       0.00092097 Ry

     iteration #  5     ecut=   150.00 Ry     beta= 0.70
     Davidson diagonalization with overlap
     ethr =  2.02E-07,  avg # of iterations =  2.0

     total cpu time spent up to now is     4395.2 secs

     total energy              =   -1699.44184290 Ry
     estimated scf accuracy    <       0.00002488 Ry

     iteration #  6     ecut=   150.00 Ry     beta= 0.70
     Davidson diagonalization with overlap
     ethr =  5.46E-09,  avg # of iterations =  2.0

     total cpu time spent up to now is     4470.0 secs

     total energy              =   -1699.44184971 Ry
     estimated scf accuracy    <       0.00000414 Ry

     iteration #  7     ecut=   150.00 Ry     beta= 0.70
     Davidson diagonalization with overlap
     ethr =  9.08E-10,  avg # of iterations =  2.0

     total cpu time spent up to now is     4541.1 secs

     total energy              =   -1699.44185070 Ry
     estimated scf accuracy    <       0.00000063 Ry

     iteration #  8     ecut=   150.00 Ry     beta= 0.70
     Davidson diagonalization with overlap
     ethr =  1.38E-10,  avg # of iterations =  2.0

     total cpu time spent up to now is     4610.6 secs

     total energy              =   -1699.44185084 Ry
     estimated scf accuracy    <       0.00000016 Ry

     iteration #  9     ecut=   150.00 Ry     beta= 0.70
     Davidson diagonalization with overlap
     ethr =  3.41E-11,  avg # of iterations =  2.0

     total cpu time spent up to now is     4678.5 secs

     total energy              =   -1699.44185087 Ry
     estimated scf accuracy    <       0.00000001 Ry

     iteration # 10     ecut=   150.00 Ry     beta= 0.70
     Davidson diagonalization with overlap
     ethr =  2.90E-12,  avg # of iterations =  2.0

     total cpu time spent up to now is     4746.4 secs

     total energy              =   -1699.44185087 Ry
     estimated scf accuracy    <          1.3E-09 Ry

     iteration # 11     ecut=   150.00 Ry     beta= 0.70
     Davidson diagonalization with overlap
     ethr =  2.74E-13,  avg # of iterations =  2.0

     total cpu time spent up to now is     4820.5 secs

     total energy              =   -1699.44185087 Ry
     estimated scf accuracy    <          3.6E-10 Ry

     iteration # 12     ecut=   150.00 Ry     beta= 0.70
     Davidson diagonalization with overlap
     ethr =  1.00E-13,  avg # of iterations =  2.0

     total cpu time spent up to now is     4887.4 secs

     End of self-consistent calculation

          k = 0.0000 0.0000 0.0000 (475407 PWs)   bands (ev):

   -25.7859 -25.7584 -25.7584 -25.7103 -25.7102 -25.6888 -25.5612 -25.5012
   -25.4543 -25.4542 -25.4057 -25.4057 -23.3725 -23.3437 -23.3437 -23.2827
   -23.2827 -23.2445 -23.1370 -23.1370 -23.0787 -23.0787 -22.9936 -22.9461
   -21.5471 -21.5426 -21.5425 -21.2933 -21.2905 -21.2905 -21.0885 -20.7596
   -20.7596 -20.3035 -20.3035 -20.1443 -19.2957 -19.2946 -19.2946 -19.0709
   -19.0661 -19.0661 -17.2029 -17.2029 -17.1899 -16.9775 -16.9500 -16.9500
   -16.1247 -16.1247 -16.1200 -15.9030 -15.9018 -15.9018 -14.3339 -14.2810
   -14.2810 -14.1109 -14.0193 -14.0193 -12.7543 -12.7542 -12.7542 -12.5259
   -12.5259 -12.5122 -12.1844 -12.1844 -12.0574 -11.9156 -11.7161 -11.7160
   -11.6963 -11.5711 -11.5711 -11.4435 -11.3276 -11.3276 -10.5353 -10.4686
   -10.4686 -10.3078 -10.2300 -10.2273 -10.2273 -10.0856 -10.0856  -9.9911
    -9.9911  -9.9233  -9.7829  -9.7243  -9.7243  -9.5791  -9.5791  -9.5198
    -9.4918  -9.4918  -9.3762  -9.3761  -9.3597  -9.2555  -9.2496  -9.2496
    -9.0881  -9.0440  -9.0440  -8.8168  -8.7393  -8.7393  -8.7332  -8.5807
    -8.5446  -8.5446  -8.4704  -8.2625  -8.2624  -8.1498  -8.1432  -8.1432
    -8.0587  -7.9184  -7.9184  -7.8388  -7.7088  -7.7088  -7.6894  -7.6533
    -7.6533  -7.5548  -7.5288  -7.5288  -7.4374  -7.4374  -7.4210  -7.3253
    -7.3253  -7.3117  -7.0669  -7.0668  -7.0604  -6.9004  -6.6876  -6.6876
    -6.5378  -6.4973  -6.4390  -6.4390  -6.2952  -6.2952  -6.2710  -6.1694
    -6.1694  -6.1116  -6.1115  -6.0585  -5.9921  -5.5895  -5.5895  -5.5737
    -5.5015  -5.3951  -5.3951  -5.3207  -5.3207  -5.2829  -5.2741  -5.2741
    -5.1146  -5.1146  -4.9792  -4.9303  -4.8235  -4.8235  -4.6723  -4.6417
    -4.6387  -4.6386  -4.5141  -4.4878  -4.4877  -4.4793  -4.4443  -4.4443
    -4.4331  -4.3868  -4.3868  -4.3300  -4.3182  -4.3182  -4.2352  -4.2303
    -4.2303  -4.1522  -4.1174  -4.1174  -4.0409  -4.0409  -4.0310  -3.9891
    -3.9891  -3.8430  -3.8279  -3.8279  -3.7623  -3.7622  -3.7320  -3.6974
    -3.6457  -3.6457  -3.6271  -3.4497  -3.4497  -3.0470  -3.0470  -2.9917
    -2.8424  -2.8228  -2.8228  -2.4847  -2.4846  -2.3868  -1.6236  -1.6236
    -1.6062  -1.4040  -1.3880  -1.3880   1.3599   1.7979   1.7979   1.9598
     2.0798   2.0798   2.3911   3.0982   3.1429   3.2292   3.2292   3.4049
     3.4050   3.5577   3.5577   3.6489   3.6786   3.6786   3.7295   3.8272
     3.8614   3.8614   3.9452   3.9950   3.9950   4.0124   4.1234   4.1235
     4.1496   4.2679   4.3297   4.3297   4.3341   4.5426   4.5426   4.5439
     4.6695   4.7731   4.7731   4.8613   4.8613   4.8700   5.0081   5.0467
     5.0467   5.0958   5.0958   5.2703   5.3772   5.3772   5.5752   5.6097
     5.6097   5.7055   5.7056   5.7056   5.7776   5.8406   5.8406   5.9021
     6.0161   6.0161   6.0864   6.0864   6.1372   6.2361   6.2720   6.2720
     6.2738   6.3406   6.3406   6.4281   6.4711   6.4711   6.5779   6.6101
     6.6352   6.6352   6.6936   6.7010   6.7010   6.8097   7.0080   7.0080
     7.0083   7.0157   7.1580   7.1580   7.2546   7.2546   7.3381   7.3381
     7.3485   7.4534   7.5159   7.5159   7.6660   7.6906   7.6907   7.7774
     7.7774   7.8100   7.8395   7.9146   7.9146   8.0582   8.0582   8.0585
     8.0857   8.2263   8.2263   8.2290   8.3875   8.4199   8.4199   8.5414
     8.6416   8.6416   8.7502   8.7719   8.8378   8.8378   8.8720   8.8720
     8.9044   9.0079   9.0079   9.0580   9.0697   9.0700   9.0700   9.2429
     9.2610   9.2610   9.2612   9.3292   9.3787   9.3787   9.4741   9.4848
     9.4848   9.5552   9.5777   9.5777   9.6340   9.6340   9.6806   9.6806
     9.7037   9.8674   9.9688   9.9689  10.0372  10.0732  10.0732  10.0881
    10.1299  10.1453  10.1453  10.2157  10.2437  10.2438  10.2957  10.2957
    10.3031  10.3705  10.3706  10.3726  10.4253  10.5124  10.5125  10.5255
    10.5719  10.5720  10.6587  10.6587  10.7030  10.7690  10.8066  10.8066
    10.8786  10.9383  10.9383  10.9734  11.0107  11.0107  11.0571  11.1255
    11.1255  11.2193  11.2267  11.2267  11.2581  11.3910  11.3910  11.4127
    11.4219  11.4219  11.4803  11.5403  11.5687  11.5688  11.6271  11.6523
    11.6524  11.7901  11.8118  11.8118  11.9156  11.9598  11.9599  11.9822
    12.0213  12.0665  12.0667  12.1699  12.1772  12.1773  12.2806  12.2806
    12.2913  12.3337  12.3338  12.3836  12.4323  12.4323  12.5094  12.5094
    12.5536  12.6377  12.6592  12.6750  12.6751  12.7214  12.7217  12.7794
    12.7972  12.7973  12.8376  12.9285  12.9286  12.9981  13.0273  13.0278
    13.0373  13.0805  13.0805  13.1227  13.1231  13.1466  13.1640  13.1642
    13.2355  13.2982  13.3757  13.3757  13.3858  13.3864  13.4441  13.4958
    13.5428  13.5434  13.5542  13.6078  13.6385  13.6396  13.6657  13.6660
    13.7445  13.7462  13.7675  13.8644  13.9279  13.9371  14.0068  14.1071

     highest occupied, lowest unoccupied level (ev):    -1.3880    1.3599

!    total energy              =   -1699.44185087 Ry
     estimated scf accuracy    <          1.7E-11 Ry

     convergence has been achieved in  12 iterations

     Using ACE for calculation of exact exchange
     ACE projected onto   504 (nbndproj) and applied to   504 (nbnd) bands

     total energy              =   -1699.45378854 Ry
     Harris-Foulkes estimate   =   -1699.45378854 Ry
     est. exchange err (dexx)  =       0.01193766 Ry
     - averaged Fock potential =     175.23597950 Ry
     + Fock energy (ACE)       =     -87.78624109 Ry

     EXX: now go back to refine exchange calculation

     total cpu time spent up to now is     7236.0 secs

     Self-consistent Calculation

     iteration #  1     ecut=   150.00 Ry     beta= 0.70
     Davidson diagonalization with overlap
     ethr =  1.00E-13,  avg # of iterations = 10.0

     total cpu time spent up to now is     7448.0 secs

     total energy              =   -1699.45460381 Ry
     estimated scf accuracy    <       0.00107611 Ry

     iteration #  2     ecut=   150.00 Ry     beta= 0.70
     Davidson diagonalization with overlap
     ethr =  2.36E-07,  avg # of iterations =  2.0

     total cpu time spent up to now is     7524.9 secs

     total energy              =   -1699.45480495 Ry
     estimated scf accuracy    <       0.00081005 Ry

     iteration #  3     ecut=   150.00 Ry     beta= 0.70
     Davidson diagonalization with overlap
     ethr =  1.78E-07,  avg # of iterations =  2.0

     total cpu time spent up to now is     7595.1 secs

     total energy              =   -1699.45498276 Ry
     estimated scf accuracy    <       0.00002455 Ry

     iteration #  4     ecut=   150.00 Ry     beta= 0.70
     Davidson diagonalization with overlap
     ethr =  5.38E-09,  avg # of iterations =  2.0

     total cpu time spent up to now is     7671.0 secs

     total energy              =   -1699.45498950 Ry
     estimated scf accuracy    <       0.00000811 Ry

     iteration #  5     ecut=   150.00 Ry     beta= 0.70
     Davidson diagonalization with overlap
     ethr =  1.78E-09,  avg # of iterations =  2.0

     total cpu time spent up to now is     7740.2 secs

     total energy              =   -1699.45499115 Ry
     estimated scf accuracy    <       0.00000037 Ry

     iteration #  6     ecut=   150.00 Ry     beta= 0.70
     Davidson diagonalization with overlap
     ethr =  8.17E-11,  avg # of iterations =  2.0

     total cpu time spent up to now is     7813.5 secs

     total energy              =   -1699.45499125 Ry
     estimated scf accuracy    <       0.00000006 Ry

     iteration #  7     ecut=   150.00 Ry     beta= 0.70
     Davidson diagonalization with overlap
     ethr =  1.37E-11,  avg # of iterations =  2.0

     total cpu time spent up to now is     7882.6 secs

     total energy              =   -1699.45499126 Ry
     estimated scf accuracy    <       0.00000001 Ry

     iteration #  8     ecut=   150.00 Ry     beta= 0.70
     Davidson diagonalization with overlap
     ethr =  2.75E-12,  avg # of iterations =  2.0

     total cpu time spent up to now is     7950.8 secs

     total energy              =   -1699.45499126 Ry
     estimated scf accuracy    <          1.6E-09 Ry

     iteration #  9     ecut=   150.00 Ry     beta= 0.70
     Davidson diagonalization with overlap
     ethr =  3.41E-13,  avg # of iterations =  2.0

     total cpu time spent up to now is     8018.3 secs

     total energy              =   -1699.45499126 Ry
     estimated scf accuracy    <          1.2E-10 Ry

     iteration # 10     ecut=   150.00 Ry     beta= 0.70
     Davidson diagonalization with overlap
     ethr =  1.00E-13,  avg # of iterations =  1.0

     total cpu time spent up to now is     8079.3 secs

     End of self-consistent calculation

          k = 0.0000 0.0000 0.0000 (475407 PWs)   bands (ev):

   -25.7909 -25.7637 -25.7637 -25.7154 -25.7153 -25.6942 -25.5649 -25.5052
   -25.4581 -25.4581 -25.4098 -25.4098 -23.3798 -23.3514 -23.3513 -23.2900
   -23.2900 -23.2522 -23.1432 -23.1432 -23.0851 -23.0850 -22.9999 -22.9525
   -21.5481 -21.5435 -21.5435 -21.2940 -21.2910 -21.2910 -21.0980 -20.7691
   -20.7691 -20.3127 -20.3127 -20.1538 -19.3012 -19.3000 -19.3000 -19.0757
   -19.0709 -19.0709 -17.2112 -17.2112 -17.1983 -16.9852 -16.9577 -16.9577
   -16.1306 -16.1306 -16.1259 -15.9083 -15.9071 -15.9071 -14.3415 -14.2888
   -14.2888 -14.1178 -14.0265 -14.0265 -12.7573 -12.7573 -12.7573 -12.5284
   -12.5284 -12.5147 -12.1895 -12.1895 -12.0615 -11.9214 -11.7211 -11.7211
   -11.6967 -11.5712 -11.5712 -11.4429 -11.3272 -11.3271 -10.5343 -10.4672
   -10.4672 -10.3075 -10.2311 -10.2260 -10.2260 -10.0878 -10.0878  -9.9934
    -9.9933  -9.9228  -9.7839  -9.7282  -9.7281  -9.5827  -9.5827  -9.5241
    -9.4946  -9.4946  -9.3798  -9.3797  -9.3641  -9.2603  -9.2530  -9.2530
    -9.0913  -9.0483  -9.0483  -8.8210  -8.7437  -8.7436  -8.7376  -8.5816
    -8.5481  -8.5481  -8.4646  -8.2559  -8.2559  -8.1431  -8.1351  -8.1351
    -8.0513  -7.9110  -7.9110  -7.8314  -7.7150  -7.7150  -7.6953  -7.6466
    -7.6465  -7.5622  -7.5360  -7.5360  -7.4425  -7.4424  -7.4279  -7.3321
    -7.3321  -7.3180  -7.0747  -7.0747  -7.0667  -6.9098  -6.6978  -6.6977
    -6.5504  -6.4973  -6.4374  -6.4373  -6.2994  -6.2994  -6.2689  -6.1800
    -6.1800  -6.1205  -6.1205  -6.0670  -6.0009  -5.6006  -5.6006  -5.5854
    -5.5127  -5.4052  -5.4052  -5.3301  -5.3301  -5.2938  -5.2838  -5.2837
    -5.1228  -5.1228  -4.9867  -4.9412  -4.8339  -4.8339  -4.6868  -4.6483
    -4.6453  -4.6452  -4.5194  -4.4996  -4.4996  -4.4939  -4.4551  -4.4551
    -4.4459  -4.3986  -4.3986  -4.3410  -4.3263  -4.3263  -4.2483  -4.2432
    -4.2432  -4.1660  -4.1311  -4.1311  -4.0537  -4.0537  -4.0453  -4.0048
    -4.0047  -3.8550  -3.8416  -3.8416  -3.7767  -3.7767  -3.7445  -3.7125
    -3.6625  -3.6625  -3.6419  -3.4694  -3.4694  -3.0506  -3.0506  -2.9955
    -2.8447  -2.8282  -2.8281  -2.5037  -2.5037  -2.4063  -1.6299  -1.6298
    -1.6127  -1.4096  -1.3943  -1.3943   1.3839   1.8160   1.8161   1.9796
     2.0981   2.0982   2.4108   3.1042   3.1558   3.2517   3.2517   3.4248
     3.4249   3.5701   3.5701   3.6590   3.6889   3.6889   3.7372   3.8390
     3.8716   3.8716   3.9543   4.0089   4.0089   4.0335   4.1361   4.1361
     4.1688   4.2771   4.3383   4.3384   4.3422   4.5484   4.5484   4.5527
     4.6801   4.7852   4.7853   4.8679   4.8679   4.8748   5.0197   5.0555
     5.0556   5.1031   5.1031   5.2752   5.3872   5.3873   5.5846   5.6144
     5.6144   5.7143   5.7177   5.7177   5.7856   5.8517   5.8517   5.9127
     6.0207   6.0207   6.0985   6.0985   6.1425   6.2418   6.2771   6.2771
     6.2863   6.3453   6.3453   6.4360   6.4784   6.4784   6.5832   6.6158
     6.6412   6.6412   6.7000   6.7094   6.7094   6.8148   7.0129   7.0129
     7.0135   7.0219   7.1673   7.1673   7.2614   7.2614   7.3438   7.3438
     7.3541   7.4582   7.5206   7.5206   7.6714   7.6963   7.6963   7.7837
     7.7837   7.8156   7.8449   7.9201   7.9201   8.0643   8.0644   8.0644
     8.0896   8.2310   8.2310   8.2341   8.3924   8.4264   8.4264   8.5459
     8.6487   8.6487   8.7563   8.7784   8.8430   8.8430   8.8784   8.8784
     8.9107   9.0130   9.0130   9.0640   9.0740   9.0754   9.0754   9.2487
     9.2660   9.2660   9.2673   9.3348   9.3834   9.3834   9.4798   9.4892
     9.4893   9.5615   9.5827   9.5827   9.6387   9.6387   9.6853   9.6853
     9.7071   9.8726   9.9727   9.9727  10.0426  10.0769  10.0769  10.0928
    10.1357  10.1492  10.1493  10.2191  10.2484  10.2484  10.2997  10.2997
    10.3071  10.3734  10.3734  10.3762  10.4298  10.5168  10.5169  10.5298
    10.5756  10.5756  10.6634  10.6634  10.7073  10.7731  10.8112  10.8112
    10.8821  10.9419  10.9419  10.9774  11.0146  11.0146  11.0603  11.1297
    11.1297  11.2244  11.2305  11.2305  11.2613  11.3948  11.3948  11.4161
    11.4258  11.4258  11.4843  11.5436  11.5727  11.5727  11.6310  11.6563
    11.6563  11.7944  11.8155  11.8155  11.9192  11.9626  11.9626  11.9863
    12.0239  12.0694  12.0694  12.1730  12.1808  12.1808  12.2832  12.2832
    12.2945  12.3364  12.3364  12.3876  12.4349  12.4349  12.5119  12.5119
    12.5561  12.6404  12.6611  12.6779  12.6779  12.7251  12.7252  12.7806
    12.8000  12.8000  12.8414  12.9308  12.9308  12.9999  13.0285  13.0285
    13.0385  13.0810  13.0810  13.1239  13.1239  13.1484  13.1662  13.1662
    13.2374  13.2971  13.3755  13.3755  13.3845  13.3845  13.4442  13.4973
    13.5431  13.5431  13.5524  13.6052  13.6383  13.6384  13.6577  13.6578
    13.7377  13.7379  13.7636  13.8587  13.9227  13.9275  13.9899  14.0882

     highest occupied, lowest unoccupied level (ev):    -1.3943    1.3839

!    total energy              =   -1699.45499126 Ry
     estimated scf accuracy    <          9.7E-12 Ry

     convergence has been achieved in  10 iterations

     Using ACE for calculation of exact exchange
     ACE projected onto   504 (nbndproj) and applied to   504 (nbnd) bands

     total energy              =   -1699.45513713 Ry
     Harris-Foulkes estimate   =   -1699.45513713 Ry
     est. exchange err (dexx)  =       0.00014587 Ry
     - averaged Fock potential =     175.60417987 Ry
     + Fock energy (ACE)       =     -87.81808466 Ry

     EXX: now go back to refine exchange calculation

     total cpu time spent up to now is    10435.5 secs

     Self-consistent Calculation

     iteration #  1     ecut=   150.00 Ry     beta= 0.70
     Davidson diagonalization with overlap
     ethr =  1.00E-13,  avg # of iterations = 11.0

     total cpu time spent up to now is    10606.3 secs

     total energy              =   -1699.45515228 Ry
     estimated scf accuracy    <       0.00001602 Ry

     iteration #  2     ecut=   150.00 Ry     beta= 0.70
     Davidson diagonalization with overlap
     ethr =  3.51E-09,  avg # of iterations =  2.0

     total cpu time spent up to now is    10683.8 secs

     total energy              =   -1699.45515531 Ry
     estimated scf accuracy    <       0.00001109 Ry

     iteration #  3     ecut=   150.00 Ry     beta= 0.70
     Davidson diagonalization with overlap
     ethr =  2.43E-09,  avg # of iterations =  2.0

     total cpu time spent up to now is    10755.3 secs

     total energy              =   -1699.45515777 Ry
     estimated scf accuracy    <       0.00000032 Ry

     iteration #  4     ecut=   150.00 Ry     beta= 0.70
     Davidson diagonalization with overlap
     ethr =  7.08E-11,  avg # of iterations =  2.0

     total cpu time spent up to now is    10832.3 secs

     total energy              =   -1699.45515784 Ry
     estimated scf accuracy    <       0.00000012 Ry

     iteration #  5     ecut=   150.00 Ry     beta= 0.70
     Davidson diagonalization with overlap
     ethr =  2.73E-11,  avg # of iterations =  2.0

     total cpu time spent up to now is    10900.6 secs

     total energy              =   -1699.45515787 Ry
     estimated scf accuracy    <          8.1E-09 Ry

     iteration #  6     ecut=   150.00 Ry     beta= 0.70
     Davidson diagonalization with overlap
     ethr =  1.77E-12,  avg # of iterations =  2.0

     total cpu time spent up to now is    10972.1 secs

     total energy              =   -1699.45515787 Ry
     estimated scf accuracy    <          1.0E-09 Ry

     iteration #  7     ecut=   150.00 Ry     beta= 0.70
     Davidson diagonalization with overlap
     ethr =  2.26E-13,  avg # of iterations =  2.0

     total cpu time spent up to now is    11041.4 secs

     total energy              =   -1699.45515787 Ry
     estimated scf accuracy    <          2.0E-10 Ry

     iteration #  8     ecut=   150.00 Ry     beta= 0.70
     Davidson diagonalization with overlap
     ethr =  1.00E-13,  avg # of iterations =  1.0

     total cpu time spent up to now is    11102.7 secs

     End of self-consistent calculation

          k = 0.0000 0.0000 0.0000 (475407 PWs)   bands (ev):

   -25.7907 -25.7636 -25.7636 -25.7152 -25.7152 -25.6941 -25.5646 -25.5048
   -25.4578 -25.4578 -25.4095 -25.4095 -23.3799 -23.3515 -23.3515 -23.2901
   -23.2900 -23.2523 -23.1431 -23.1431 -23.0849 -23.0849 -22.9998 -22.9524
   -21.5477 -21.5431 -21.5431 -21.2936 -21.2905 -21.2905 -21.0982 -20.7693
   -20.7693 -20.3129 -20.3128 -20.1539 -19.3015 -19.3003 -19.3003 -19.0759
   -19.0712 -19.0711 -17.2120 -17.2120 -17.1990 -16.9858 -16.9584 -16.9584
   -16.1310 -16.1310 -16.1263 -15.9086 -15.9074 -15.9074 -14.3423 -14.2896
   -14.2896 -14.1185 -14.0272 -14.0272 -12.7574 -12.7574 -12.7574 -12.5285
   -12.5285 -12.5148 -12.1895 -12.1895 -12.0614 -11.9216 -11.7212 -11.7212
   -11.6964 -11.5709 -11.5709 -11.4424 -11.3268 -11.3268 -10.5341 -10.4668
   -10.4668 -10.3073 -10.2309 -10.2257 -10.2257 -10.0877 -10.0877  -9.9932
    -9.9932  -9.9224  -9.7835  -9.7283  -9.7283  -9.5827  -9.5827  -9.5244
    -9.4944  -9.4944  -9.3797  -9.3797  -9.3643  -9.2604  -9.2529  -9.2529
    -9.0911  -9.0483  -9.0483  -8.8209  -8.7439  -8.7439  -8.7380  -8.5815
    -8.5483  -8.5483  -8.4635  -8.2547  -8.2547  -8.1419  -8.1337  -8.1337
    -8.0499  -7.9096  -7.9096  -7.8299  -7.7157  -7.7156  -7.6959  -7.6451
    -7.6451  -7.5630  -7.5366  -7.5366  -7.4429  -7.4429  -7.4286  -7.3328
    -7.3328  -7.3185  -7.0754  -7.0753  -7.0672  -6.9107  -6.6988  -6.6988
    -6.5515  -6.4971  -6.4371  -6.4371  -6.2995  -6.2995  -6.2686  -6.1808
    -6.1808  -6.1211  -6.1210  -6.0679  -6.0014  -5.6017  -5.6017  -5.5865
    -5.5133  -5.4061  -5.4061  -5.3308  -5.3308  -5.2948  -5.2846  -5.2846
    -5.1236  -5.1236  -4.9881  -4.9421  -4.8353  -4.8353  -4.6880  -4.6489
    -4.6461  -4.6460  -4.5199  -4.5009  -4.5009  -4.4952  -4.4562  -4.4562
    -4.4471  -4.4000  -4.4000  -4.3418  -4.3268  -4.3268  -4.2500  -4.2445
    -4.2445  -4.1672  -4.1325  -4.1325  -4.0554  -4.0553  -4.0462  -4.0060
    -4.0060  -3.8564  -3.8428  -3.8427  -3.7778  -3.7778  -3.7458  -3.7138
    -3.6637  -3.6637  -3.6440  -3.4713  -3.4713  -3.0512  -3.0511  -2.9962
    -2.8452  -2.8289  -2.8289  -2.5060  -2.5060  -2.4080  -1.6311  -1.6311
    -1.6140  -1.4107  -1.3956  -1.3956   1.3868   1.8182   1.8182   1.9820
     2.1004   2.1004   2.4131   3.1048   3.1572   3.2546   3.2546   3.4273
     3.4273   3.5714   3.5714   3.6601   3.6900   3.6900   3.7379   3.8403
     3.8727   3.8727   3.9552   4.0105   4.0106   4.0363   4.1377   4.1377
     4.1713   4.2782   4.3394   4.3394   4.3431   4.5489   4.5489   4.5534
     4.6808   4.7867   4.7867   4.8686   4.8686   4.8752   5.0206   5.0561
     5.0561   5.1035   5.1035   5.2755   5.3883   5.3883   5.5853   5.6146
     5.6147   5.7149   5.7187   5.7187   5.7865   5.8526   5.8526   5.9140
     6.0210   6.0210   6.1000   6.1000   6.1430   6.2422   6.2775   6.2775
     6.2878   6.3456   6.3456   6.4369   6.4791   6.4791   6.5838   6.6163
     6.6417   6.6417   6.7005   6.7102   6.7102   6.8151   7.0134   7.0134
     7.0139   7.0224   7.1680   7.1680   7.2619   7.2619   7.3443   7.3443
     7.3545   7.4585   7.5210   7.5210   7.6720   7.6968   7.6968   7.7843
     7.7843   7.8161   7.8453   7.9206   7.9206   8.0648   8.0650   8.0650
     8.0899   8.2315   8.2315   8.2346   8.3928   8.4270   8.4270   8.5463
     8.6495   8.6495   8.7570   8.7791   8.8435   8.8435   8.8791   8.8791
     8.9114   9.0135   9.0135   9.0647   9.0745   9.0759   9.0759   9.2493
     9.2665   9.2665   9.2680   9.3355   9.3838   9.3838   9.4804   9.4897
     9.4897   9.5622   9.5832   9.5832   9.6392   9.6392   9.6858   9.6858
     9.7074   9.8731   9.9731   9.9731  10.0432  10.0772  10.0772  10.0934
    10.1364  10.1496  10.1496  10.2194  10.2489  10.2489  10.3000  10.3000
    10.3075  10.3736  10.3736  10.3765  10.4303  10.5173  10.5173  10.5303
    10.5760  10.5760  10.6639  10.6640  10.7078  10.7736  10.8118  10.8118
    10.8824  10.9422  10.9422  10.9779  11.0151  11.0151  11.0606  11.1302
    11.1302  11.2250  11.2310  11.2310  11.2617  11.3953  11.3953  11.4165
    11.4262  11.4262  11.4847  11.5439  11.5732  11.5732  11.6314  11.6568
    11.6568  11.7949  11.8160  11.8160  11.9197  11.9629  11.9630  11.9869
    12.0241  12.0698  12.0698  12.1734  12.1812  12.1812  12.2835  12.2835
    12.2948  12.3368  12.3368  12.3881  12.4353  12.4353  12.5123  12.5123
    12.5564  12.6409  12.6613  12.6784  12.6784  12.7257  12.7258  12.7807
    12.8004  12.8004  12.8419  12.9311  12.9311  13.0002  13.0288  13.0288
    13.0389  13.0811  13.0811  13.1241  13.1241  13.1486  13.1665  13.1666
    13.2376  13.2972  13.3756  13.3756  13.3844  13.3844  13.4444  13.4976
    13.5431  13.5432  13.5523  13.6050  13.6383  13.6384  13.6569  13.6569
    13.7370  13.7371  13.7633  13.8578  13.9214  13.9249  13.9868  14.0786

     highest occupied, lowest unoccupied level (ev):    -1.3956    1.3868

!    total energy              =   -1699.45515787 Ry
     estimated scf accuracy    <          1.9E-11 Ry

     convergence has been achieved in   8 iterations

     Using ACE for calculation of exact exchange
     ACE projected onto   504 (nbndproj) and applied to   504 (nbnd) bands

     total energy              =   -1699.45516121 Ry
     Harris-Foulkes estimate   =   -1699.45516121 Ry
     est. exchange err (dexx)  =       0.00000334 Ry
     - averaged Fock potential =     175.63998104 Ry
     + Fock energy (ACE)       =     -87.82189972 Ry

     EXX: now go back to refine exchange calculation

     total cpu time spent up to now is    13458.0 secs

     Self-consistent Calculation

     iteration #  1     ecut=   150.00 Ry     beta= 0.70
     Davidson diagonalization with overlap
     ethr =  1.00E-13,  avg # of iterations = 10.0

     total cpu time spent up to now is    13597.6 secs

     total energy              =   -1699.45516168 Ry
     estimated scf accuracy    <       0.00000037 Ry

     iteration #  2     ecut=   150.00 Ry     beta= 0.70
     Davidson diagonalization with overlap
     ethr =  8.16E-11,  avg # of iterations =  2.0

     total cpu time spent up to now is    13676.0 secs

     total energy              =   -1699.45516175 Ry
     estimated scf accuracy    <       0.00000023 Ry

     iteration #  3     ecut=   150.00 Ry     beta= 0.70
     Davidson diagonalization with overlap
     ethr =  5.05E-11,  avg # of iterations =  2.0

     total cpu time spent up to now is    13747.0 secs

     total energy              =   -1699.45516180 Ry
     estimated scf accuracy    <          8.5E-09 Ry

     iteration #  4     ecut=   150.00 Ry     beta= 0.70
     Davidson diagonalization with overlap
     ethr =  1.87E-12,  avg # of iterations =  2.0

     total cpu time spent up to now is    13823.7 secs

     total energy              =   -1699.45516180 Ry
     estimated scf accuracy    <          3.3E-09 Ry

     iteration #  5     ecut=   150.00 Ry     beta= 0.70
     Davidson diagonalization with overlap
     ethr =  7.25E-13,  avg # of iterations =  2.0

     total cpu time spent up to now is    13890.8 secs

     total energy              =   -1699.45516180 Ry
     estimated scf accuracy    <          2.5E-10 Ry

     iteration #  6     ecut=   150.00 Ry     beta= 0.70
     Davidson diagonalization with overlap
     ethr =  1.00E-13,  avg # of iterations =  1.0

     total cpu time spent up to now is    13951.9 secs

     End of self-consistent calculation

          k = 0.0000 0.0000 0.0000 (475407 PWs)   bands (ev):

   -25.7907 -25.7635 -25.7635 -25.7151 -25.7151 -25.6940 -25.5645 -25.5047
   -25.4577 -25.4576 -25.4093 -25.4093 -23.3798 -23.3514 -23.3514 -23.2900
   -23.2900 -23.2523 -23.1430 -23.1430 -23.0848 -23.0848 -22.9997 -22.9523
   -21.5476 -21.5430 -21.5430 -21.2935 -21.2904 -21.2904 -21.0981 -20.7692
   -20.7692 -20.3128 -20.3128 -20.1538 -19.3015 -19.3004 -19.3004 -19.0760
   -19.0712 -19.0712 -17.2121 -17.2121 -17.1991 -16.9859 -16.9585 -16.9585
   -16.1310 -16.1310 -16.1263 -15.9086 -15.9074 -15.9074 -14.3424 -14.2897
   -14.2897 -14.1186 -14.0273 -14.0273 -12.7574 -12.7574 -12.7574 -12.5285
   -12.5285 -12.5148 -12.1895 -12.1894 -12.0613 -11.9215 -11.7211 -11.7211
   -11.6963 -11.5708 -11.5708 -11.4423 -11.3267 -11.3267 -10.5340 -10.4668
   -10.4668 -10.3072 -10.2309 -10.2256 -10.2256 -10.0877 -10.0877  -9.9931
    -9.9931  -9.9223  -9.7834  -9.7282  -9.7282  -9.5827  -9.5826  -9.5243
    -9.4943  -9.4942  -9.3796  -9.3796  -9.3643  -9.2604  -9.2528  -9.2528
    -9.0910  -9.0483  -9.0483  -8.8208  -8.7439  -8.7439  -8.7380  -8.5815
    -8.5483  -8.5483  -8.4633  -8.2545  -8.2544  -8.1416  -8.1334  -8.1334
    -8.0496  -7.9094  -7.9094  -7.8297  -7.7157  -7.7157  -7.6959  -7.6448
    -7.6448  -7.5630  -7.5367  -7.5367  -7.4429  -7.4429  -7.4287  -7.3328
    -7.3328  -7.3185  -7.0754  -7.0754  -7.0673  -6.9107  -6.6989  -6.6989
    -6.5515  -6.4971  -6.4370  -6.4370  -6.2995  -6.2995  -6.2686  -6.1808
    -6.1808  -6.1211  -6.1210  -6.0680  -6.0014  -5.6018  -5.6018  -5.5867
    -5.5133  -5.4062  -5.4061  -5.3309  -5.3308  -5.2948  -5.2847  -5.2847
    -5.1238  -5.1237  -4.9883  -4.9422  -4.8355  -4.8355  -4.6881  -4.6490
    -4.6462  -4.6462  -4.5200  -4.5010  -4.5010  -4.4952  -4.4564  -4.4564
    -4.4472  -4.4002  -4.4002  -4.3419  -4.3268  -4.3268  -4.2503  -4.2447
    -4.2446  -4.1673  -4.1327  -4.1327  -4.0556  -4.0556  -4.0463  -4.0061
    -4.0061  -3.8566  -3.8429  -3.8428  -3.7779  -3.7779  -3.7460  -3.7139
    -3.6638  -3.6638  -3.6444  -3.4715  -3.4715  -3.0513  -3.0513  -2.9963
    -2.8453  -2.8290  -2.8290  -2.5064  -2.5064  -2.4081  -1.6314  -1.6314
    -1.6143  -1.4110  -1.3959  -1.3959   1.3872   1.8185   1.8185   1.9824
     2.1007   2.1007   2.4135   3.1049   3.1575   3.2550   3.2551   3.4277
     3.4277   3.5716   3.5716   3.6603   3.6902   3.6902   3.7381   3.8404
     3.8729   3.8729   3.9554   4.0108   4.0108   4.0367   4.1379   4.1379
     4.1717   4.2783   4.3396   4.3396   4.3432   4.5490   4.5490   4.5535
     4.6809   4.7870   4.7870   4.8687   4.8687   4.8752   5.0207   5.0562
     5.0562   5.1036   5.1036   5.2755   5.3884   5.3884   5.5854   5.6147
     5.6147   5.7150   5.7188   5.7188   5.7866   5.8527   5.8527   5.9142
     6.0210   6.0210   6.1002   6.1002   6.1430   6.2423   6.2775   6.2775
     6.2880   6.3457   6.3457   6.4371   6.4792   6.4792   6.5838   6.6163
     6.6418   6.6418   6.7006   6.7103   6.7103   6.8151   7.0134   7.0134
     7.0139   7.0224   7.1681   7.1681   7.2620   7.2620   7.3444   7.3444
     7.3546   7.4586   7.5211   7.5211   7.6720   7.6969   7.6969   7.7844
     7.7844   7.8162   7.8454   7.9207   7.9207   8.0649   8.0651   8.0651
     8.0899   8.2315   8.2315   8.2347   8.3929   8.4271   8.4271   8.5463
     8.6496   8.6496   8.7571   8.7792   8.8436   8.8436   8.8791   8.8791
     8.9115   9.0135   9.0135   9.0648   9.0745   9.0760   9.0760   9.2494
     9.2665   9.2665   9.2681   9.3355   9.3839   9.3839   9.4805   9.4897
     9.4897   9.5623   9.5833   9.5833   9.6393   9.6393   9.6859   9.6859
     9.7074   9.8732   9.9731   9.9731  10.0433  10.0772  10.0772  10.0934
    10.1365  10.1497  10.1497  10.2195  10.2490  10.2490  10.3001  10.3001
    10.3075  10.3736  10.3736  10.3765  10.4303  10.5174  10.5174  10.5303
    10.5761  10.5761  10.6640  10.6640  10.7078  10.7737  10.8118  10.8119
    10.8824  10.9423  10.9423  10.9779  11.0152  11.0152  11.0607  11.1302
    11.1302  11.2250  11.2310  11.2310  11.2618  11.3953  11.3953  11.4165
    11.4263  11.4263  11.4848  11.5439  11.5732  11.5732  11.6314  11.6569
    11.6569  11.7949  11.8160  11.8160  11.9197  11.9630  11.9630  11.9869
    12.0241  12.0699  12.0699  12.1735  12.1813  12.1813  12.2835  12.2835
    12.2948  12.3368  12.3368  12.3882  12.4354  12.4354  12.5123  12.5123
    12.5564  12.6409  12.6613  12.6785  12.6785  12.7258  12.7258  12.7808
    12.8004  12.8004  12.8419  12.9311  12.9311  13.0002  13.0288  13.0289
    13.0389  13.0811  13.0811  13.1242  13.1242  13.1486  13.1666  13.1666
    13.2376  13.2972  13.3755  13.3755  13.3844  13.3844  13.4444  13.4976
    13.5432  13.5432  13.5523  13.6049  13.6383  13.6383  13.6566  13.6567
    13.7368  13.7369  13.7633  13.8575  13.9207  13.9236  13.9854  14.0689

     highest occupied, lowest unoccupied level (ev):    -1.3959    1.3872

!    total energy              =   -1699.45516180 Ry
     estimated scf accuracy    <          2.0E-11 Ry

     convergence has been achieved in   6 iterations

     Using ACE for calculation of exact exchange
     ACE projected onto   504 (nbndproj) and applied to   504 (nbnd) bands

     total energy              =   -1699.45516191 Ry
     Harris-Foulkes estimate   =   -1699.45516191 Ry
     est. exchange err (dexx)  =       0.00000011 Ry
     - averaged Fock potential =     175.64433264 Ry
     + Fock energy (ACE)       =     -87.82243303 Ry

     EXX: now go back to refine exchange calculation

     total cpu time spent up to now is    16303.5 secs

     Self-consistent Calculation

     iteration #  1     ecut=   150.00 Ry     beta= 0.70
     Davidson diagonalization with overlap
     ethr =  1.00E-13,  avg # of iterations = 10.0

     total cpu time spent up to now is    16420.3 secs

     total energy              =   -1699.45516193 Ry
     estimated scf accuracy    <       0.00000001 Ry

     iteration #  2     ecut=   150.00 Ry     beta= 0.70
     Davidson diagonalization with overlap
     ethr =  2.50E-12,  avg # of iterations =  2.0

     total cpu time spent up to now is    16497.7 secs

     total energy              =   -1699.45516193 Ry
     estimated scf accuracy    <          6.2E-09 Ry

     iteration #  3     ecut=   150.00 Ry     beta= 0.70
     Davidson diagonalization with overlap
     ethr =  1.36E-12,  avg # of iterations =  2.0

     total cpu time spent up to now is    16568.9 secs

     total energy              =   -1699.45516193 Ry
     estimated scf accuracy    <          4.2E-10 Ry

     iteration #  4     ecut=   150.00 Ry     beta= 0.70
     Davidson diagonalization with overlap
     ethr =  1.00E-13,  avg # of iterations =  2.0

     total cpu time spent up to now is    16641.2 secs

     total energy              =   -1699.45516193 Ry
     estimated scf accuracy    <          2.2E-10 Ry

     iteration #  5     ecut=   150.00 Ry     beta= 0.70
     Davidson diagonalization with overlap
     ethr =  1.00E-13,  avg # of iterations =  1.0

     total cpu time spent up to now is    16702.4 secs

     End of self-consistent calculation

          k = 0.0000 0.0000 0.0000 (475407 PWs)   bands (ev):

   -25.7906 -25.7635 -25.7635 -25.7151 -25.7150 -25.6939 -25.5645 -25.5047
   -25.4577 -25.4576 -25.4093 -25.4093 -23.3798 -23.3514 -23.3514 -23.2900
   -23.2899 -23.2522 -23.1430 -23.1430 -23.0848 -23.0848 -22.9997 -22.9522
   -21.5476 -21.5430 -21.5430 -21.2935 -21.2904 -21.2904 -21.0981 -20.7692
   -20.7692 -20.3127 -20.3127 -20.1538 -19.3015 -19.3004 -19.3004 -19.0760
   -19.0712 -19.0712 -17.2121 -17.2121 -17.1992 -16.9859 -16.9585 -16.9585
   -16.1310 -16.1310 -16.1263 -15.9086 -15.9074 -15.9074 -14.3424 -14.2897
   -14.2897 -14.1186 -14.0273 -14.0273 -12.7574 -12.7574 -12.7574 -12.5285
   -12.5285 -12.5148 -12.1894 -12.1894 -12.0613 -11.9215 -11.7211 -11.7211
   -11.6963 -11.5708 -11.5708 -11.4423 -11.3267 -11.3266 -10.5340 -10.4668
   -10.4668 -10.3072 -10.2309 -10.2256 -10.2256 -10.0876 -10.0876  -9.9931
    -9.9930  -9.9223  -9.7834  -9.7282  -9.7282  -9.5826  -9.5826  -9.5243
    -9.4942  -9.4942  -9.3796  -9.3796  -9.3643  -9.2603  -9.2528  -9.2527
    -9.0910  -9.0483  -9.0482  -8.8208  -8.7439  -8.7439  -8.7380  -8.5815
    -8.5483  -8.5483  -8.4633  -8.2544  -8.2544  -8.1416  -8.1334  -8.1334
    -8.0496  -7.9094  -7.9093  -7.8296  -7.7157  -7.7157  -7.6959  -7.6448
    -7.6448  -7.5630  -7.5367  -7.5367  -7.4429  -7.4429  -7.4287  -7.3328
    -7.3328  -7.3185  -7.0754  -7.0754  -7.0673  -6.9107  -6.6989  -6.6989
    -6.5515  -6.4971  -6.4370  -6.4370  -6.2995  -6.2995  -6.2685  -6.1808
    -6.1808  -6.1210  -6.1210  -6.0680  -6.0014  -5.6018  -5.6018  -5.5867
    -5.5133  -5.4062  -5.4061  -5.3308  -5.3308  -5.2948  -5.2847  -5.2847
    -5.1238  -5.1238  -4.9884  -4.9422  -4.8356  -4.8356  -4.6881  -4.6490
    -4.6462  -4.6462  -4.5200  -4.5011  -4.5010  -4.4952  -4.4564  -4.4564
    -4.4473  -4.4002  -4.4002  -4.3419  -4.3268  -4.3268  -4.2503  -4.2447
    -4.2447  -4.1673  -4.1328  -4.1327  -4.0556  -4.0556  -4.0462  -4.0061
    -4.0061  -3.8566  -3.8429  -3.8428  -3.7779  -3.7779  -3.7460  -3.7139
    -3.6638  -3.6638  -3.6444  -3.4715  -3.4715  -3.0513  -3.0513  -2.9964
    -2.8453  -2.8290  -2.8290  -2.5065  -2.5065  -2.4081  -1.6315  -1.6314
    -1.6143  -1.4110  -1.3960  -1.3960   1.3873   1.8186   1.8186   1.9824
     2.1007   2.1007   2.4136   3.1049   3.1575   3.2551   3.2551   3.4278
     3.4278   3.5717   3.5717   3.6603   3.6902   3.6902   3.7381   3.8405
     3.8729   3.8729   3.9554   4.0109   4.0109   4.0368   4.1380   4.1380
     4.1718   4.2784   4.3396   4.3397   4.3432   4.5490   4.5490   4.5535
     4.6809   4.7870   4.7870   4.8687   4.8687   4.8752   5.0207   5.0562
     5.0562   5.1036   5.1036   5.2755   5.3884   5.3885   5.5854   5.6147
     5.6147   5.7150   5.7188   5.7188   5.7867   5.8528   5.8528   5.9142
     6.0210   6.0210   6.1002   6.1002   6.1430   6.2423   6.2775   6.2775
     6.2881   6.3457   6.3457   6.4371   6.4792   6.4792   6.5838   6.6163
     6.6418   6.6418   6.7006   6.7103   6.7103   6.8151   7.0134   7.0134
     7.0139   7.0224   7.1681   7.1682   7.2620   7.2620   7.3444   7.3444
     7.3546   7.4586   7.5211   7.5211   7.6720   7.6969   7.6969   7.7844
     7.7844   7.8162   7.8454   7.9207   7.9207   8.0649   8.0651   8.0651
     8.0899   8.2315   8.2315   8.2347   8.3929   8.4271   8.4271   8.5463
     8.6496   8.6496   8.7571   8.7792   8.8436   8.8436   8.8792   8.8792
     8.9115   9.0135   9.0135   9.0648   9.0745   9.0760   9.0760   9.2494
     9.2665   9.2665   9.2681   9.3355   9.3839   9.3839   9.4805   9.4897
     9.4897   9.5623   9.5833   9.5833   9.6393   9.6393   9.6859   9.6859
     9.7074   9.8732   9.9731   9.9731  10.0433  10.0772  10.0772  10.0934
    10.1365  10.1497  10.1497  10.2195  10.2490  10.2490  10.3001  10.3001
    10.3075  10.3736  10.3736  10.3765  10.4303  10.5174  10.5174  10.5303
    10.5761  10.5761  10.6640  10.6640  10.7078  10.7737  10.8119  10.8119
    10.8824  10.9423  10.9423  10.9779  11.0152  11.0152  11.0607  11.1302
    11.1302  11.2251  11.2310  11.2310  11.2618  11.3953  11.3953  11.4166
    11.4263  11.4263  11.4848  11.5439  11.5732  11.5732  11.6315  11.6569
    11.6569  11.7950  11.8160  11.8160  11.9197  11.9630  11.9630  11.9870
    12.0241  12.0699  12.0699  12.1735  12.1813  12.1813  12.2835  12.2835
    12.2948  12.3368  12.3368  12.3882  12.4354  12.4354  12.5123  12.5124
    12.5565  12.6409  12.6613  12.6785  12.6785  12.7259  12.7259  12.7808
    12.8004  12.8004  12.8420  12.9311  12.9311  13.0002  13.0289  13.0289
    13.0389  13.0811  13.0811  13.1242  13.1242  13.1486  13.1666  13.1666
    13.2376  13.2972  13.3755  13.3755  13.3844  13.3844  13.4444  13.4976
    13.5431  13.5432  13.5523  13.6049  13.6383  13.6383  13.6566  13.6566
    13.7368  13.7368  13.7632  13.8574  13.9204  13.9227  13.9847  14.0602

     highest occupied, lowest unoccupied level (ev):    -1.3960    1.3873

!    total energy              =   -1699.45516193 Ry
     estimated scf accuracy    <          1.0E-11 Ry

     convergence has been achieved in   5 iterations

     Using ACE for calculation of exact exchange
     ACE projected onto   504 (nbndproj) and applied to   504 (nbnd) bands

     total energy              =   -1699.45516194 Ry
     Harris-Foulkes estimate   =   -1699.45516194 Ry
     est. exchange err (dexx)  =          4.4E-09 Ry
     - averaged Fock potential =     175.64494722 Ry
     + Fock energy (ACE)       =     -87.82251420 Ry

     EXX: now go back to refine exchange calculation

     total cpu time spent up to now is    19047.5 secs

     Self-consistent Calculation

     iteration #  1     ecut=   150.00 Ry     beta= 0.70
     Davidson diagonalization with overlap
     ethr =  1.00E-13,  avg # of iterations =  9.0

     total cpu time spent up to now is    19142.4 secs

     total energy              =   -1699.45516194 Ry
     estimated scf accuracy    <          5.0E-10 Ry

     iteration #  2     ecut=   150.00 Ry     beta= 0.70
     Davidson diagonalization with overlap
     ethr =  1.09E-13,  avg # of iterations =  2.0

     total cpu time spent up to now is    19219.8 secs

     total energy              =   -1699.45516194 Ry
     estimated scf accuracy    <          3.5E-10 Ry

     iteration #  3     ecut=   150.00 Ry     beta= 0.70
     Davidson diagonalization with overlap
     ethr =  1.00E-13,  avg # of iterations =  2.0

     total cpu time spent up to now is    19287.6 secs

     End of self-consistent calculation

          k = 0.0000 0.0000 0.0000 (475407 PWs)   bands (ev):

   -25.7906 -25.7635 -25.7635 -25.7151 -25.7150 -25.6939 -25.5645 -25.5047
   -25.4577 -25.4576 -25.4093 -25.4093 -23.3798 -23.3514 -23.3514 -23.2900
   -23.2899 -23.2522 -23.1430 -23.1430 -23.0848 -23.0848 -22.9997 -22.9522
   -21.5476 -21.5430 -21.5430 -21.2935 -21.2904 -21.2904 -21.0981 -20.7692
   -20.7692 -20.3127 -20.3127 -20.1538 -19.3015 -19.3004 -19.3004 -19.0760
   -19.0712 -19.0712 -17.2121 -17.2121 -17.1992 -16.9859 -16.9585 -16.9585
   -16.1310 -16.1310 -16.1263 -15.9086 -15.9074 -15.9074 -14.3424 -14.2897
   -14.2897 -14.1186 -14.0273 -14.0273 -12.7574 -12.7574 -12.7574 -12.5285
   -12.5285 -12.5148 -12.1894 -12.1894 -12.0613 -11.9215 -11.7211 -11.7211
   -11.6963 -11.5708 -11.5708 -11.4423 -11.3267 -11.3266 -10.5340 -10.4668
   -10.4668 -10.3072 -10.2308 -10.2256 -10.2256 -10.0876 -10.0876  -9.9931
    -9.9930  -9.9223  -9.7834  -9.7282  -9.7282  -9.5826  -9.5826  -9.5243
    -9.4942  -9.4942  -9.3796  -9.3796  -9.3643  -9.2603  -9.2528  -9.2527
    -9.0910  -9.0482  -9.0482  -8.8208  -8.7439  -8.7439  -8.7380  -8.5815
    -8.5483  -8.5483  -8.4633  -8.2544  -8.2544  -8.1416  -8.1334  -8.1334
    -8.0496  -7.9093  -7.9093  -7.8296  -7.7157  -7.7157  -7.6959  -7.6448
    -7.6448  -7.5630  -7.5367  -7.5367  -7.4429  -7.4429  -7.4287  -7.3328
    -7.3328  -7.3185  -7.0754  -7.0754  -7.0673  -6.9107  -6.6989  -6.6989
    -6.5515  -6.4971  -6.4370  -6.4370  -6.2995  -6.2995  -6.2685  -6.1808
    -6.1808  -6.1210  -6.1210  -6.0680  -6.0014  -5.6018  -5.6018  -5.5867
    -5.5133  -5.4062  -5.4061  -5.3308  -5.3308  -5.2948  -5.2847  -5.2847
    -5.1238  -5.1238  -4.9884  -4.9422  -4.8356  -4.8356  -4.6881  -4.6490
    -4.6462  -4.6462  -4.5200  -4.5011  -4.5010  -4.4952  -4.4564  -4.4564
    -4.4473  -4.4003  -4.4002  -4.3419  -4.3268  -4.3268  -4.2503  -4.2447
    -4.2447  -4.1673  -4.1328  -4.1328  -4.0557  -4.0556  -4.0462  -4.0061
    -4.0061  -3.8567  -3.8429  -3.8428  -3.7779  -3.7779  -3.7460  -3.7139
    -3.6638  -3.6638  -3.6445  -3.4715  -3.4715  -3.0513  -3.0513  -2.9964
    -2.8453  -2.8290  -2.8290  -2.5065  -2.5065  -2.4082  -1.6315  -1.6314
    -1.6143  -1.4111  -1.3960  -1.3960   1.3873   1.8186   1.8186   1.9824
     2.1007   2.1008   2.4136   3.1049   3.1575   3.2551   3.2552   3.4278
     3.4278   3.5717   3.5717   3.6603   3.6902   3.6902   3.7381   3.8405
     3.8729   3.8729   3.9554   4.0109   4.0109   4.0368   4.1380   4.1380
     4.1718   4.2784   4.3396   4.3397   4.3432   4.5490   4.5490   4.5535
     4.6809   4.7870   4.7870   4.8687   4.8687   4.8752   5.0207   5.0562
     5.0562   5.1036   5.1036   5.2755   5.3884   5.3885   5.5854   5.6147
     5.6147   5.7150   5.7188   5.7188   5.7867   5.8528   5.8528   5.9142
     6.0210   6.0210   6.1002   6.1002   6.1430   6.2423   6.2775   6.2775
     6.2881   6.3457   6.3457   6.4371   6.4792   6.4792   6.5838   6.6163
     6.6418   6.6418   6.7006   6.7103   6.7103   6.8151   7.0134   7.0134
     7.0139   7.0224   7.1681   7.1682   7.2620   7.2620   7.3444   7.3444
     7.3546   7.4586   7.5211   7.5211   7.6720   7.6969   7.6969   7.7844
     7.7844   7.8162   7.8454   7.9207   7.9207   8.0649   8.0651   8.0651
     8.0899   8.2315   8.2315   8.2347   8.3929   8.4271   8.4271   8.5463
     8.6496   8.6497   8.7571   8.7792   8.8436   8.8436   8.8792   8.8792
     8.9115   9.0135   9.0135   9.0648   9.0745   9.0760   9.0760   9.2494
     9.2665   9.2666   9.2681   9.3355   9.3839   9.3839   9.4805   9.4897
     9.4897   9.5623   9.5833   9.5833   9.6393   9.6393   9.6859   9.6859
     9.7074   9.8732   9.9731   9.9731  10.0433  10.0772  10.0772  10.0934
    10.1365  10.1497  10.1497  10.2195  10.2490  10.2490  10.3001  10.3001
    10.3075  10.3736  10.3736  10.3765  10.4303  10.5174  10.5174  10.5303
    10.5761  10.5761  10.6640  10.6640  10.7078  10.7737  10.8119  10.8119
    10.8824  10.9423  10.9423  10.9779  11.0152  11.0152  11.0607  11.1302
    11.1302  11.2251  11.2310  11.2310  11.2618  11.3953  11.3953  11.4166
    11.4263  11.4263  11.4848  11.5439  11.5732  11.5732  11.6315  11.6569
    11.6569  11.7950  11.8160  11.8160  11.9197  11.9630  11.9630  11.9870
    12.0241  12.0699  12.0699  12.1735  12.1813  12.1813  12.2835  12.2835
    12.2948  12.3368  12.3368  12.3882  12.4354  12.4354  12.5124  12.5124
    12.5565  12.6409  12.6613  12.6785  12.6785  12.7259  12.7259  12.7808
    12.8004  12.8004  12.8420  12.9311  12.9311  13.0002  13.0289  13.0289
    13.0389  13.0811  13.0811  13.1242  13.1242  13.1486  13.1666  13.1666
    13.2376  13.2972  13.3755  13.3755  13.3844  13.3844  13.4444  13.4976
    13.5431  13.5432  13.5523  13.6049  13.6383  13.6383  13.6566  13.6566
    13.7368  13.7368  13.7632  13.8573  13.9202  13.9222  13.9843  14.0526

     highest occupied, lowest unoccupied level (ev):    -1.3960    1.3873

!    total energy              =   -1699.45516194 Ry
     estimated scf accuracy    <          2.9E-11 Ry

     convergence has been achieved in   3 iterations

     Using ACE for calculation of exact exchange
     ACE projected onto   504 (nbndproj) and applied to   504 (nbnd) bands

     total energy              =   -1699.45516194 Ry
     Harris-Foulkes estimate   =   -1699.45516194 Ry
     est. exchange err (dexx)  =          2.0E-10 Ry
     - averaged Fock potential =     175.64504289 Ry
     + Fock energy (ACE)       =     -87.82252869 Ry

     EXX: now go back to refine exchange calculation

     total cpu time spent up to now is    21630.0 secs

     Self-consistent Calculation

     iteration #  1     ecut=   150.00 Ry     beta= 0.70
     Davidson diagonalization with overlap
     ethr =  1.00E-13,  avg # of iterations =  9.0

     total cpu time spent up to now is    21715.6 secs

     total energy              =   -1699.45516194 Ry
     estimated scf accuracy    <          1.7E-10 Ry

     iteration #  2     ecut=   150.00 Ry     beta= 0.70
     Davidson diagonalization with overlap
     ethr =  1.00E-13,  avg # of iterations =  2.0

     total cpu time spent up to now is    21785.1 secs

     total energy              =   -1699.45516194 Ry
     estimated scf accuracy    <          4.5E-10 Ry

     iteration #  3     ecut=   150.00 Ry     beta= 0.70
     Davidson diagonalization with overlap
     ethr =  1.00E-13,  avg # of iterations =  2.0

     total cpu time spent up to now is    21851.8 secs

     End of self-consistent calculation

          k = 0.0000 0.0000 0.0000 (475407 PWs)   bands (ev):

   -25.7906 -25.7635 -25.7635 -25.7151 -25.7150 -25.6939 -25.5645 -25.5046
   -25.4577 -25.4576 -25.4093 -25.4093 -23.3798 -23.3514 -23.3514 -23.2900
   -23.2899 -23.2522 -23.1430 -23.1430 -23.0848 -23.0848 -22.9997 -22.9522
   -21.5476 -21.5430 -21.5430 -21.2935 -21.2904 -21.2904 -21.0981 -20.7692
   -20.7692 -20.3127 -20.3127 -20.1538 -19.3015 -19.3004 -19.3004 -19.0760
   -19.0712 -19.0712 -17.2121 -17.2121 -17.1992 -16.9859 -16.9585 -16.9585
   -16.1310 -16.1310 -16.1263 -15.9086 -15.9074 -15.9074 -14.3424 -14.2897
   -14.2897 -14.1186 -14.0273 -14.0273 -12.7574 -12.7574 -12.7574 -12.5285
   -12.5285 -12.5148 -12.1894 -12.1894 -12.0613 -11.9215 -11.7211 -11.7211
   -11.6963 -11.5708 -11.5708 -11.4423 -11.3267 -11.3266 -10.5340 -10.4668
   -10.4668 -10.3072 -10.2308 -10.2256 -10.2256 -10.0876 -10.0876  -9.9931
    -9.9930  -9.9223  -9.7834  -9.7282  -9.7282  -9.5826  -9.5826  -9.5243
    -9.4942  -9.4942  -9.3796  -9.3796  -9.3643  -9.2603  -9.2528  -9.2527
    -9.0910  -9.0482  -9.0482  -8.8208  -8.7439  -8.7439  -8.7380  -8.5815
    -8.5483  -8.5483  -8.4633  -8.2544  -8.2544  -8.1416  -8.1334  -8.1334
    -8.0496  -7.9093  -7.9093  -7.8296  -7.7157  -7.7157  -7.6959  -7.6448
    -7.6448  -7.5630  -7.5367  -7.5367  -7.4429  -7.4429  -7.4287  -7.3328
    -7.3328  -7.3185  -7.0754  -7.0754  -7.0673  -6.9107  -6.6989  -6.6989
    -6.5515  -6.4971  -6.4370  -6.4370  -6.2995  -6.2995  -6.2685  -6.1808
    -6.1808  -6.1210  -6.1210  -6.0680  -6.0014  -5.6018  -5.6018  -5.5867
    -5.5133  -5.4062  -5.4061  -5.3308  -5.3308  -5.2948  -5.2847  -5.2847
    -5.1238  -5.1238  -4.9884  -4.9422  -4.8356  -4.8356  -4.6881  -4.6490
    -4.6462  -4.6462  -4.5200  -4.5011  -4.5010  -4.4952  -4.4564  -4.4564
    -4.4473  -4.4003  -4.4002  -4.3419  -4.3268  -4.3268  -4.2503  -4.2447
    -4.2447  -4.1673  -4.1328  -4.1328  -4.0557  -4.0556  -4.0462  -4.0061
    -4.0061  -3.8567  -3.8429  -3.8428  -3.7779  -3.7778  -3.7460  -3.7139
    -3.6638  -3.6638  -3.6445  -3.4715  -3.4715  -3.0513  -3.0513  -2.9964
    -2.8454  -2.8290  -2.8290  -2.5065  -2.5065  -2.4082  -1.6315  -1.6315
    -1.6143  -1.4111  -1.3960  -1.3960   1.3873   1.8186   1.8186   1.9824
     2.1007   2.1008   2.4136   3.1049   3.1575   3.2551   3.2552   3.4278
     3.4278   3.5717   3.5717   3.6603   3.6902   3.6902   3.7381   3.8405
     3.8729   3.8729   3.9554   4.0109   4.0109   4.0368   4.1380   4.1380
     4.1718   4.2784   4.3396   4.3397   4.3432   4.5490   4.5490   4.5535
     4.6809   4.7870   4.7870   4.8687   4.8687   4.8752   5.0207   5.0562
     5.0562   5.1036   5.1036   5.2755   5.3884   5.3885   5.5854   5.6147
     5.6147   5.7150   5.7188   5.7188   5.7867   5.8528   5.8528   5.9142
     6.0210   6.0210   6.1002   6.1002   6.1430   6.2423   6.2775   6.2775
     6.2881   6.3457   6.3457   6.4371   6.4792   6.4792   6.5838   6.6163
     6.6418   6.6418   6.7006   6.7103   6.7103   6.8151   7.0134   7.0134
     7.0139   7.0225   7.1681   7.1682   7.2620   7.2620   7.3444   7.3444
     7.3546   7.4586   7.5211   7.5211   7.6720   7.6969   7.6969   7.7844
     7.7844   7.8162   7.8454   7.9207   7.9207   8.0649   8.0651   8.0651
     8.0899   8.2315   8.2315   8.2347   8.3929   8.4271   8.4271   8.5463
     8.6496   8.6497   8.7571   8.7792   8.8436   8.8436   8.8792   8.8792
     8.9115   9.0135   9.0135   9.0648   9.0745   9.0760   9.0760   9.2494
     9.2665   9.2666   9.2681   9.3355   9.3839   9.3839   9.4805   9.4897
     9.4897   9.5623   9.5833   9.5833   9.6393   9.6393   9.6859   9.6859
     9.7074   9.8732   9.9731   9.9731  10.0433  10.0772  10.0772  10.0934
    10.1365  10.1497  10.1497  10.2195  10.2490  10.2490  10.3001  10.3001
    10.3075  10.3736  10.3736  10.3765  10.4303  10.5174  10.5174  10.5303
    10.5761  10.5761  10.6640  10.6640  10.7078  10.7737  10.8119  10.8119
    10.8824  10.9423  10.9423  10.9779  11.0152  11.0152  11.0607  11.1302
    11.1302  11.2251  11.2310  11.2310  11.2618  11.3953  11.3953  11.4166
    11.4263  11.4263  11.4848  11.5439  11.5732  11.5732  11.6315  11.6569
    11.6569  11.7950  11.8160  11.8160  11.9197  11.9630  11.9630  11.9870
    12.0241  12.0699  12.0699  12.1735  12.1813  12.1813  12.2835  12.2835
    12.2948  12.3368  12.3368  12.3882  12.4354  12.4354  12.5124  12.5124
    12.5565  12.6409  12.6613  12.6785  12.6785  12.7259  12.7259  12.7808
    12.8004  12.8004  12.8420  12.9311  12.9311  13.0002  13.0289  13.0289
    13.0389  13.0811  13.0811  13.1242  13.1242  13.1486  13.1666  13.1666
    13.2376  13.2972  13.3755  13.3755  13.3844  13.3844  13.4444  13.4976
    13.5431  13.5432  13.5523  13.6049  13.6383  13.6383  13.6565  13.6565
    13.7367  13.7368  13.7632  13.8573  13.9200  13.9217  13.9839  14.0456

     highest occupied, lowest unoccupied level (ev):    -1.3960    1.3873

!    total energy              =   -1699.45516194 Ry
     estimated scf accuracy    <          1.6E-12 Ry

     convergence has been achieved in   3 iterations

     Using ACE for calculation of exact exchange
     ACE projected onto   504 (nbndproj) and applied to   504 (nbnd) bands

!!   total energy              =   -1699.45516194 Ry
     Harris-Foulkes estimate   =   -1699.45516194 Ry
     est. exchange err (dexx)  =          8.4E-12 Ry
     - averaged Fock potential =     175.64505892 Ry
     + Fock energy (ACE)       =     -87.82253023 Ry

     EXX self-consistency reached

     Writing all to output data dir ./pwscf.save/ :
     XML data file, charge density, pseudopotentials, collected wavefunctions

     init_run     :    126.55s CPU    130.68s WALL (       1 calls)
     electrons    :   5189.60s CPU   5279.79s WALL (       8 calls)

     Called by init_run:
     aceinit0     :      0.00s CPU      0.00s WALL (       1 calls)
     wfcinit      :    120.86s CPU    124.00s WALL (       1 calls)
     potinit      :      0.28s CPU      0.39s WALL (       1 calls)
     hinit0       :      0.33s CPU      0.43s WALL (       1 calls)

     Called by electrons:
     c_bands      :   5121.35s CPU   5203.17s WALL (      66 calls)
     sum_band     :     52.58s CPU     54.29s WALL (      66 calls)
     v_of_rho     :     10.99s CPU     14.15s WALL (      68 calls)
     mix_rho      :      1.58s CPU      1.95s WALL (      66 calls)

     Called by c_bands:
     init_us_2    :      7.32s CPU      7.86s WALL (     133 calls)
     cegterg      :   5113.28s CPU   5194.78s WALL (      66 calls)

     Called by *egterg:
     cdiaghg      :    179.06s CPU    190.28s WALL (     283 calls)
     h_psi        :   3330.97s CPU   3363.92s WALL (     291 calls)
     g_psi        :      0.62s CPU      0.64s WALL (     224 calls)

     Called by h_psi:
     h_psi:calbec :   1245.82s CPU   1254.39s WALL (     291 calls)
     vloc_psi     :    238.20s CPU    244.32s WALL (     291 calls)
     vloc_psi:tg_ :      0.07s CPU      0.08s WALL (     291 calls)
     add_vuspsi   :   1215.87s CPU   1221.34s WALL (     291 calls)

     General routines
     calbec       :   1674.89s CPU   1686.47s WALL (     531 calls)
     fft          :      6.37s CPU      9.22s WALL (     796 calls)
     ffts         :      0.41s CPU      0.46s WALL (     134 calls)
     fftw         :    278.03s CPU    285.24s WALL (  200432 calls)
     fftc         :  13375.76s CPU  13422.25s WALL ( 4064256 calls)
     fftcw        :     17.27s CPU     18.62s WALL (   12096 calls)
     interpolate  :      0.81s CPU      0.99s WALL (      68 calls)

     Parallel routines
     fft_scatt_xy :    562.24s CPU    565.05s WALL ( 4277714 calls)
     fft_scatt_yz :  10253.38s CPU  10294.81s WALL ( 4277714 calls)
     fft_scatt_tg :      0.93s CPU      0.94s WALL (  200432 calls)

     EXX routines
     exx_grid     :      0.00s CPU      0.00s WALL (       1 calls)
     exxinit      :    306.40s CPU    461.36s WALL (       8 calls)
     vexx         :  18055.33s CPU  18168.35s WALL (       8 calls)
     matcalc      :    429.16s CPU    432.17s WALL (     240 calls)
     aceupdate    :     16.63s CPU     16.64s WALL (       8 calls)
     vexxace      :    747.73s CPU    751.82s WALL (     217 calls)
     aceinit      :  18092.69s CPU  18205.87s WALL (       8 calls)

     PWSCF        :      6h37m CPU      6h43m WALL


   This run was terminated on:  16:36:29  16Aug2025            

=------------------------------------------------------------------------------=
   JOB DONE.
=------------------------------------------------------------------------------=
