
                                 *****************
                                 * O   R   C   A *
                                 *****************

                                            #,                                       
                                            ###                                      
                                            ####                                     
                                            #####                                    
                                            ######                                   
                                           ########,                                 
                                     ,,################,,,,,                         
                               ,,#################################,,                 
                          ,,##########################################,,             
                       ,#########################################, ''#####,          
                    ,#############################################,,   '####,        
                  ,##################################################,,,,####,       
                ,###########''''           ''''###############################       
              ,#####''   ,,,,##########,,,,          '''####'''          '####       
            ,##' ,,,,###########################,,,                        '##       
           ' ,,###''''                  '''############,,,                           
         ,,##''                                '''############,,,,        ,,,,,,###''
      ,#''                                            '''#######################'''  
     '                                                          ''''####''''         
             ,#######,   #######,   ,#######,      ##                                
            ,#'     '#,  ##    ##  ,#'     '#,    #''#        ,####,    ,#,          
            ##       ##  ##   ,#'  ##            #'  '#       #'       ,# #          
            ##       ##  #######   ##           ,######,      #####,      #          
            '#,     ,#'  ##    ##  '#,     ,#' ,#      #,     #,   #      #          
             '#######'   ##     ##  '#######'  #'      '#     '####' #    #          



                #########################################################
                #                        -***-                          #
                #          Department of theory and spectroscopy        #
                #                                                       #
                #                      Frank Neese                      #
                #                                                       #
                #     Directorship, Architecture, Infrastructure        #
                #                    SHARK, DRIVERS                     #
                #        Core code/Algorithms in most modules           #
                #                                                       #
                #        Max Planck Institute fuer Kohlenforschung      #
                #                Kaiser Wilhelm Platz 1                 #
                #                 D-45470 Muelheim/Ruhr                 #
                #                      Germany                          #
                #                                                       #
                #                  All rights reserved                  #
                #                        -***-                          #
                #########################################################


                         Program Version 6.1.0  -  RELEASE   -
                                (GIT: $679e74b$)
                          ($2025-06-10 18:02:51 +0200$)


 With contributions from (in alphabetic order):
[Max-Planck-Institut fuer Kohlenforschung]                               
  Daniel Aravena         : Magnetic Suceptibility                        
  Michael Atanasov       : Ab Initio Ligand Field Theory (pilot matlab implementation)
  Alexander A. Auer      : GIAO ZORA, VPT2 properties, NMR spectrum      
  Ute Becker             : All parallelization in ORCA, NUMFREQ, NUMCALC 
  Giovanni Bistoni       : ED, misc. LED, open-shell LED, HFLD           
  Dmytro Bykov           : pre 5.0 version of the SCF Hessian            
  Marcos Casanova-Páez   : Triplet and SCS-CIS(D). UHF-(DLPNO)-IP/EA/STEOM-CCSD. UHF-CVS-IP/STEOM-CCSD   
  Vijay G. Chilkuri      : MRCI spin determinant printing, contributions to CSF-ICE 
  Pauline Colinet        : FMM embedding                                 
  Dipayan Datta          : RHF DLPNO-CCSD density                        
  Achintya Kumar Dutta   : EOM-CC, STEOM-CC                              
  Nicolas Foglia         : Exact transition moments, OPA infrastructure, MCD improvements    
  Dmitry Ganyushin       : Spin-Orbit,Spin-Spin,Magnetic field MRCI      
  Miquel Garcia-Rates    : C-PCM and meta-GGA Hessian, CCSD/C-PCM, Gaussian charge scheme 
  Tiago L. C. Gouveia    : GS-ROHF, GS-ROCIS                             
  Yang Guo               : DLPNO-NEVPT2, F12-NEVPT2, CIM, IAO-localization        
  Andreas Hansen         : Spin unrestricted coupled pair/coupled cluster methods 
  Ingolf Harden          : AUTO-CI MPn and infrastructure                
  Benjamin Helmich-Paris : MC-RPA, TRAH-(SCF,CASSCF), AVAS, COSX integrals, SCF dyn. polar., MC-PDFT, srDFT 
  Lee Huntington         : MR-EOM, pCC                                   
  Robert Izsak           : Overlap fitted RIJCOSX, COSX-SCS-MP3, EOM     
  Riya Kayal             : Wick's Theorem for AUTO-CI, AUTO-CI UHF-CCSDT 
  Emily Kempfer          : AUTO-CI RHF CISDT and CCSDT, approximate NEVPT4
  Christian Kollmar      : KDIIS, OOCD, Brueckner-CCSD(T), CCSD density, CASPT2, CASPT2-K, improved NEVPT2 
  Axel Koslowski         : Symmetry handling                             
  Simone Kossmann        : meta-GGA functionals, TD-DFT gradient, OOMP2, (MP2 Hessian; deprecated post 5.0) 
  Lucas Lang             : DCDCAS, Hyperfine gauge corrections, ICE-SOC+SSC
  Marvin Lechner         : AUTO-CI (C++ implementation), FIC-MRCC        
  Spencer Leger          : CASSCF response                               
  Dagmar Lenk            : GEPOL surface, SMD, ORCA-2-JSON               
  Dimitrios Liakos       : Extrapolation schemes; Compound Job, Property file
  Dimitrios Manganas     : Further ROCIS development; embedding schemes. LFT, Crystal Embedding 
  Dimitrios Pantazis     : SARC Basis sets                               
  Anastasios Papadopoulos: AUTO-CI, single reference methods and gradients 
  Taras Petrenko         : pre 6.0 DFT Hessian and TD-DFT gradient,  ECA, NRVS 
  Petra Pikulova         : Analytic Raman intensities                    
  Peter Pinski           : DLPNO-MP2, DLPNO-MP2 Gradient                 
  Shashank Vittal Rao    : ES-AILFT, MagRelax                            
  Christoph Reimann      : Effective Core Potentials                     
  Marius Retegan         : Local ZFS, SOC                                
  Christoph Riplinger    : Optimizer, TS searches, QM/MM, DLPNO-CCSD(T), (RO)-DLPNO pert. Triples 
  Michael Roemelt        : Original ROCIS implementation, recursive CI coupling coefficients
  Masaaki Saitow         : Open-shell DLPNO-CCSD energy and density      
  Barbara Sandhoefer     : DKH picture change effects                    
  Yorick L. A. Schmerwitz: GMF and freeze-and-release deltaSCF, NEB S-IDPP initial path                    
  Kantharuban Sivalingam : CASSCF convergence/infrastructure, NEVPT2, NEVPT3, NEVPT4(SD), FIC-MRCI and CEPA variants
  Bernardo de Souza      : ESD, SOC TD-DFT                               
  Georgi L. Stoychev     : AutoAux, RI-MP2 NMR, DLPNO-MP2 response, X2C  
  Van Anh Tran           : RI-MP2 g-tensors                              
  Willem Van den Heuvel  : Paramagnetic NMR                              
  Zikuan Wang            : NOTCH, Electric field optimization            
  Frank Wennmohs         : Technical directorship and infrastructure     
  Hang Xu                : AUTO-CI-Response properties                   
                                                                         
[FACCTs GmbH]                                                            
  Markus Bursch, Nicolas Foglia, Miquel Garcia-Rates, Ingolf Harden, Hagen Neugebauer, Anastasios Papadopoulos, 
  Christoph Riplinger, Bernardo de Souza, Georgi L. Stoychev                                                    
                                                                 
  APM, various basis sets, CI-OPT, improved COSX, DLPNO-Multilevel,           
  DOCKER, DRACO, updates on ESD, Fragmentator, GOAT, IRC, LR-CPCM, L-BFGS, MBIS, meta-GGA TD-DFT gradient, ML-optimized integration grids, 
  MM, NACMEs, nearIR, NEB, NEB-TS, NL-DFT gradient (VV10), 2- and 3-layer-ONIOM, interface openCOSMO-RS, QMMM,   
  Crystal-QMMM, RESP, rigid body optimization, SF, symmetry and pop. for TD-DFT, various functionals, SOLVATOR                                   
                                                                         
[Other institutions]                                                     
  V. Asgeirsson          : NEB                                           
  Christoph Bannwarth    : sTDA-DFT, sTD-DFT, PBEh-3c, B97-3c, D3        
  Giovanni Bistoni       : ETS/NOCV, ADLD/ADEX, COVALED                  
  Martin Brehm           : Molecular dynamics                            
  Ronald Cardenas        : ETS/NOCV                                      
  Martina Colucci        : COVALED                                       
  Sebastian Ehlert       : rSCAN, r2SCAN, r2SCAN-3c, D4, dhf basis sets  
  Marvin Friede          : D4 for Fr, Ra, Ac-Lr                          
  Lars Goerigk           : TD-DFT with DH, B97 family of functionals     
  Stefan Grimme          : VdW corrections, initial TS optimization, DFT functionals, gCP, sTDA/sTD-DF 
  Waldemar Hujo          : DFT-NL                                        
  H. Jonsson             : NEB                                           
  Holger Kruse           : gCP                                           
  Marcel Mueller         : wB97X-3c, vDZP basis set                      
  Hagen Neugebauer       : wr2SCAN, Native XTB                           
  Gianluca Regni         : ADLD/ADEX                                     
  Tobias Risthaus        : pre 6.0 range-separated hybrid DFT and stability analysis
  Lukas Wittmann         : regularized MP2, r2SCAN double-hybrids, wr2SCAN        
                                                                         
We gratefully acknowledge several colleagues who have allowed us to      
interface, adapt or use parts of their codes:                            
  Ed Valeev, F. Pavosevic, A. Kumar             : LibInt (2-el integral package), F12 methods 
  Garnet Chan, S. Sharma, J. Yang, R. Olivares  : DMRG                   
  Ulf Ekstrom                                   : XCFun DFT Library      
  Mihaly Kallay                                 : mrcc  (arbitrary order and MRCC methods)
  Frank Weinhold                                : gennbo (NPA and NBO analysis)           
  Simon Mueller                                 : openCOSMO-RS                            
  Christopher J. Cramer and Donald G. Truhlar   : smd solvation model                     
  S Lehtola, MJT Oliveira, MAL Marques          : LibXC Library                           
  Liviu Ungur et al                             : ANISO software                          


 Your calculation uses the libint2 library for the computation of 2-el integrals
 For citations please refer to: http://libint.valeyev.net

 Your ORCA version has been built with support for libXC version: 7.0.0
 For citations please refer to: https://libxc.gitlab.io

 This ORCA versions uses:
   CBLAS   interface :  Fast vector & matrix operations
   LAPACKE interface :  Fast linear algebra routines
   SCALAPACK package :  Parallel linear algebra routines
   Shared memory     :  Shared parallel matrices
   BLAS/LAPACK       :  OpenBLAS 0.3.29  USE64BITINT DYNAMIC_ARCH NO_AFFINITY Bulldozer SINGLE_THREADED
        Core in use  :  Bulldozer
   Copyright (c) 2011-2014, The OpenBLAS Project


  ***********************************
  * Starting time: Tue Aug 12 23:05:34 2025
  * Host name:     chromium07
  * Process ID:    156586
  * Working dir.:  /local/scratch/mehlhorn/61822
  ***********************************



***************************************
The coordinates will be read from file: start.xyz
***************************************


Your calculation utilizes the geometrical counterpoise correction gCP
Please cite in your paper:
H.Kruse, S. Grimme J.Chem.Phys., 136, (2012), 154101 
   

Your calculation utilizes the atom-pairwise dispersion correction
with the Becke-Johnson damping scheme (D3BJ)


Warning: RI is on but no J-basis has been assigned. Assigning Def2/J (nothing to worry about!)
================================================================================

cite the ECPs for Zr [Def2-ECP] as follows:
Ce-Yb(ecp-28): M. Dolg, H. Stoll, H.Preuss, J. Chem. Phys., 1989, 90, 1730-1734.
Y-Cd(ecp-28), Hf-Hg(ecp-46): D. Andrae,U. Haeussermann, M. Dolg, H. Stoll, H. Preuss, Theor. Chim. Acta, 1990, 77, 123-141.
In-Sb(ecp-28), Tl-Bi(ecp-46): B. Metz, H. Stoll, M. Dolg, J. Chem. Phys., 2000, 113, 2563-2569.
Te-Xe(ecp-28), Po-Rn(ecp-46): K. A. Peterson, D. Figgen, E. Goll, H. Stoll, M. Dolg, J. Chem. Phys., 2003, 119, 11113-11123.
Rb(ecp-28), Cs(ecp-46): T. Leininger, A. Nicklass, W. Kuechle, H. Stoll, M. Dolg, A. Bergner, Chem. Phys. Lett., 1996, 255, 274-280.
Sr(ecp-28), Ba(ecp-46): M. Kaupp, P. V. Schleyer, H. Stoll and H. Preuss, J. Chem. Phys., 1991, 94, 1360-1366.
La(ecp-46): M. Dolg, H. Stoll, A. Savin, H. Preuss, Theor. Chim. Acta, 1989, 75, 173-194.
Lu(ecp-28): X. Cao, M. Dolg, J. Chem. Phys., 2001, 115, 7348-7355.

ECP parameters for Zr [Def2-ECP] have been obtained from:
TURBOMOLE (7.0.2)

----- Orbital basis set information -----
Your calculation utilizes the basis: def2-SV(P)
   F. Weigend and R. Ahlrichs, Phys. Chem. Chem. Phys. 7, 3297 (2005).

----- AuxJ basis set information -----
Your calculation utilizes the auxiliary basis: def2/J
   H-Rn: F. Weigend, Phys. Chem. Chem. Phys. 8, 1057 (2006).
   Fr-Lr: K. Eichkorn, F. Weigend, O. Treutler, R. Ahlrichs; Theor. Chem. Acc. 97, 119 (1997).

================================================================================
                                        WARNINGS
                       Please study these warnings very carefully!
================================================================================


WARNING: Gradients are needed
  ===> : At least TightSCF should be used for SCF convergence

WARNING: Geometry Optimization
  ===> : Switching off AutoStart
         For restart on a previous wavefunction, please use MOREAD

================================================================================
                                       INPUT FILE
================================================================================
NAME = run.inp
|  1> # Geometry optimization for (AlH3)n cluster
|  2> 
|  3> %pal nprocs 24  end
|  4> 
|  5> %geom MaxIter 500 end
|  6> 
|  7> 
|  8> ! PBE def2-SV(P)
|  9> ! RKS	# closed shell for AlH3
| 10> ! D3    #  dispersion correction
| 11> ! gCP(DFT/SV(P))
| 12> ! Freq 	# Frequency analysis to check the stabiltity of the structures
| 13> 
| 14> ! NoPop # population analysis not necessary	
| 15> 
| 16> ! DEFGRID2
| 17> ! NormalSCF
| 18> ! SloppyOpt
| 19> 
| 20> ! SmallPrint
| 21> 
| 22> 
| 23> * xyzFile 0 1 start.xyz # only maingroup elements H and Al so there should be no net spin
| 24> 
| 25>                          ****END OF INPUT****
================================================================================

                       *****************************
                       * Geometry Optimization Run *
                       *****************************

Geometry optimization settings:
Update method            Update   .... BFGS
Choice of coordinates    CoordSys .... (2022) Redundant Internals
Initial Hessian          InHess   .... Almloef's Model
Max. no of cycles        MaxIter  .... 500

Convergence Tolerances:
Energy Change            TolE     ....  8.0000e-05 Eh
Max. Gradient            TolMAXG  ....  5.0000e-03 Eh/bohr
RMS Gradient             TolRMSG  ....  1.0000e-03 Eh/bohr
Max. Displacement        TolMAXD  ....  3.0000e-02 bohr
RMS Displacement         TolRMSD  ....  2.0000e-02 bohr
Strict Convergence                .... False

------------------------------------------------------------------------------
                        ORCA OPTIMIZATION COORDINATE SETUP
------------------------------------------------------------------------------

The optimization will be done in redundant internal coordinates (2022)
Making redundant internal coordinates   ...  (2022 redundants) done
Evaluating the initial hessian          ...  (Almloef) done
Evaluating the coordinates              ...  done
Calculating the B-matrix                .... done
Calculating the G-matrix                .... done
The number of degrees of freedom        ....  711

    -----------------------------------------------------------------
                    Redundant Internal Coordinates


    -----------------------------------------------------------------
         Definition                    Initial Value    Approx d2E/dq
    -----------------------------------------------------------------
      1. B(Zr  2,Zr  1)                  3.4311         0.035443   
      2. B(Zr  3,Zr  0)                  3.4275         0.035912   
      3. B(Zr  4,Zr  1)                  3.3679         0.044710   
      4. B(Zr  4,Zr  3)                  3.4022         0.039420   
      5. B(Zr  5,Zr  0)                  3.3787         0.042972   
      6. B(Zr  5,Zr  2)                  3.4349         0.034947   
      7. B(O   6,Zr  3)                  2.1064         0.407360   
      8. B(O   6,Zr  0)                  2.0777         0.452728   
      9. B(O   6,Zr  5)                  2.1583         0.336677   
     10. B(O   7,Zr  2)                  2.0671         0.470746   
     11. B(O   7,Zr  4)                  2.1332         0.369199   
     12. B(O   7,Zr  1)                  2.0887         0.434781   
     13. B(O   8,Zr  2)                  2.1545         0.341422   
     14. B(O   8,Zr  5)                  2.1723         0.319773   
     15. B(O   8,Zr  1)                  2.1728         0.319191   
     16. B(O   9,Zr  0)                  2.1640         0.329768   
     17. B(O   9,Zr  4)                  2.1798         0.311074   
     18. B(O   9,Zr  3)                  2.1508         0.346103   
     19. B(O  10,Zr  1)                  2.1195         0.388227   
     20. B(O  10,Zr  3)                  2.0571         0.488302   
     21. B(O  10,Zr  4)                  2.1112         0.400327   
     22. B(O  11,Zr  2)                  2.0923         0.429056   
     23. B(O  11,Zr  0)                  2.1399         0.360281   
     24. B(O  11,Zr  5)                  2.0909         0.431302   
     25. B(O  12,Zr  0)                  1.9912         0.622142   
     26. B(O  13,Zr  0)                  1.9852         0.635884   
     27. B(O  14,Zr  0)                  2.0672         0.470564   
     28. B(O  15,Zr  0)                  1.9980         0.606610   
     29. B(O  16,Zr  1)                  1.9901         0.624504   
     30. B(O  17,Zr  1)                  2.0806         0.447862   
     31. B(O  18,Zr  1)                  1.9765         0.656489   
     32. B(O  19,Zr  1)                  1.9967         0.609676   
     33. B(O  20,Zr  2)                  1.9711         0.669668   
     34. B(O  21,Zr  2)                  2.0669         0.470963   
     35. B(O  22,Zr  2)                  1.9740         0.662723   
     36. B(O  23,Zr  2)                  2.0799         0.449110   
     37. B(O  24,Zr  3)                  2.0604         0.482456   
     38. B(O  25,Zr  3)                  1.9752         0.659637   
     39. B(O  26,Zr  3)                  2.0611         0.481091   
     40. B(O  27,Zr  3)                  1.9783         0.652198   
     41. B(O  28,Zr  4)                  1.9723         0.666741   
     42. B(O  29,Zr  4)                  1.9979         0.606965   
     43. B(O  30,Zr  4)                  1.9928         0.618480   
     44. B(O  31,Zr  4)                  2.0798         0.449246   
     45. B(O  32,Zr  5)                  2.0691         0.467190   
     46. B(O  33,Zr  5)                  1.9881         0.629252   
     47. B(O  34,Zr  5)                  2.0134         0.573415   
     48. B(O  35,Zr  5)                  1.9833         0.640324   
     49. B(C  36,O  33)                  1.3016         0.774373   
     50. B(C  36,O  12)                  1.3011         0.775628   
     51. B(C  37,O  25)                  1.3009         0.776338   
     52. B(C  37,O  13)                  1.3006         0.777048   
     53. B(C  38,O  21)                  1.2993         0.780792   
     54. B(C  38,O  14)                  1.2974         0.786426   
     55. B(C  39,O  29)                  1.2949         0.793520   
     56. B(C  39,O  15)                  1.2951         0.793017   
     57. B(C  40,O  16)                  1.2952         0.792623   
     58. B(C  40,O  34)                  1.2951         0.793095   
     59. B(C  41,O  26)                  1.2970         0.787530   
     60. B(C  41,O  17)                  1.2968         0.787981   
     61. B(C  42,O  22)                  1.2996         0.779979   
     62. B(C  42,O  18)                  1.2994         0.780472   
     63. B(C  43,O  19)                  1.3027         0.771227   
     64. B(C  43,O  30)                  1.3030         0.770296   
     65. B(C  44,O  35)                  1.2996         0.780061   
     66. B(C  44,O  20)                  1.2997         0.779747   
     67. B(C  45,O  31)                  1.2979         0.784813   
     68. B(C  45,O  23)                  1.2992         0.781178   
     69. B(C  46,O  32)                  1.2982         0.784096   
     70. B(C  46,O  24)                  1.3001         0.778703   
     71. B(C  47,O  28)                  1.2991         0.781494   
     72. B(C  47,O  27)                  1.2994         0.780705   
     73. B(H  48,C  41)                  1.0848         0.366996   
     74. B(H  49,C  42)                  1.0905         0.359423   
     75. B(H  50,C  38)                  1.0861         0.365283   
     76. B(H  51,C  37)                  1.0913         0.358376   
     77. B(H  52,C  43)                  1.0929         0.356329   
     78. B(H  53,C  47)                  1.0902         0.359792   
     79. B(H  54,C  39)                  1.0860         0.365496   
     80. B(H  55,C  45)                  1.0857         0.365785   
     81. B(H  56,C  40)                  1.0863         0.364984   
     82. B(H  57,C  46)                  1.0867         0.364431   
     83. B(H  58,C  36)                  1.0920         0.357481   
     84. B(H  59,C  44)                  1.0906         0.359311   
     85. B(Al 60,H  54)                  2.9298         0.010000   
     86. B(Al 61,H  54)                  3.0966         0.010000   
     87. B(Al 61,Al 60)                  3.3218         0.025398   
     88. B(H  62,O  15)                  3.0578         0.010000   
     89. B(H  62,Al 61)                  1.6694         0.300293   
     90. B(H  63,O  15)                  3.0397         0.010000   
     91. B(H  63,C  38)                  2.8899         0.010000   
     92. B(H  63,H  54)                  2.6835         0.010000   
     93. B(H  63,H  50)                  2.6200         0.010000   
     94. B(H  63,Al 61)                  1.5962         0.393009   
     95. B(H  63,O  14)                  3.1695         0.010000   
     96. B(H  63,C  39)                  3.1626         0.010000   
     97. B(H  64,H  54)                  2.5595         0.010000   
     98. B(H  64,Al 61)                  1.6696         0.300081   
     99. B(H  64,Al 60)                  1.6695         0.300172   
    100. B(H  65,H  54)                  2.7327         0.010000   
    101. B(H  65,Al 60)                  1.5962         0.393060   
    102. B(H  66,H  54)                  3.0401         0.010000   
    103. B(H  66,Al 60)                  1.6690         0.300768   
    104. B(H  67,Al 61)                  1.5957         0.393717   
    105. B(Al 68,H  62)                  1.6699         0.299777   
    106. B(Al 68,Al 61)                  3.3005         0.027472   
    107. B(Al 68,O  13)                  3.1937         0.010000   
    108. B(H  69,O  15)                  3.1326         0.010000   
    109. B(H  69,O  13)                  2.6511         0.010000   
    110. B(H  69,Al 68)                  1.6708         0.298749   
    111. B(H  70,O  12)                  2.8141         0.010000   
    112. B(H  70,O  13)                  2.7360         0.010000   
    113. B(H  70,Al 68)                  1.5960         0.393279   
    114. B(H  71,Al 60)                  1.5959         0.393381   
    115. B(Al 72,H  69)                  1.6710         0.298561   
    116. B(Al 72,Al 68)                  3.3225         0.025337   
    117. B(Al 72,H  66)                  1.6691         0.300679   
    118. B(Al 72,Al 60)                  3.3059         0.026924   
    119. B(Al 72,O  13)                  3.2197         0.010000   
    120. B(H  73,O  27)                  3.1606         0.010000   
    121. B(H  73,C  37)                  3.0879         0.010000   
    122. B(H  73,H  53)                  3.0841         0.010000   
    123. B(H  73,C  39)                  2.9665         0.010000   
    124. B(H  73,O  15)                  2.9203         0.010000   
    125. B(H  73,O  28)                  2.8583         0.010000   
    126. B(H  73,C  47)                  2.7796         0.010000   
    127. B(H  73,O  13)                  2.7310         0.010000   
    128. B(H  73,O   9)                  2.6900         0.010000   
    129. B(H  73,Al 72)                  1.5955         0.394027   
    130. B(H  73,O  29)                  3.1953         0.010000   
    131. B(H  74,Al 72)                  1.5953         0.394247   
    132. B(H  75,Al 68)                  1.5953         0.394236   
    133. A(Zr  5,Zr  0,O  13)          125.8204         0.368950   
    134. A(O  13,Zr  0,O  15)           85.9130         0.544274   
    135. A(O   9,Zr  0,O  14)          136.0815         0.459480   
    136. A(O   9,Zr  0,O  11)           91.9492         0.437751   
    137. A(O   6,Zr  0,O  11)           66.1560         0.463685   
    138. A(O  12,Zr  0,O  15)          134.6490         0.542028   
    139. A(Zr  5,Zr  0,O   9)           95.4442         0.330288   
    140. A(O  11,Zr  0,O  15)          108.6025         0.489338   
    141. A(O   6,Zr  0,O  15)          141.3713         0.510579   
    142. A(O  13,Zr  0,O  14)          129.8615         0.518843   
    143. A(O   9,Zr  0,O  13)           77.5915         0.485608   
    144. A(O   9,Zr  0,O  12)          142.5912         0.483651   
    145. A(Zr  3,Zr  0,O   9)           37.2701         0.320682   
    146. A(Zr  5,Zr  0,O  11)           36.5065         0.335170   
    147. A(O  11,Zr  0,O  13)          159.2787         0.493632   
    148. A(Zr  5,Zr  0,O  14)           92.0144         0.350508   
    149. A(Zr  5,Zr  0,O  15)          144.3138         0.365980   
    150. A(O  11,Zr  0,O  14)           69.6443         0.466976   
    151. A(Zr  3,Zr  0,O  14)          158.2274         0.340097   
    152. A(Zr  3,Zr  0,O  15)          110.1842         0.354952   
    153. A(Zr  5,Zr  0,O   6)           37.9302         0.348231   
    154. A(Zr  3,Zr  0,Zr  5)           71.4230         0.252535   
    155. A(O  14,Zr  0,O  15)           74.9265         0.514282   
    156. A(O  11,Zr  0,O  12)           97.5883         0.491636   
    157. A(O   6,Zr  0,O  13)           93.2304         0.515100   
    158. A(Zr  3,Zr  0,O  11)           88.8913         0.325369   
    159. A(O   6,Zr  0,O   9)           68.1232         0.456254   
    160. A(Zr  5,Zr  0,O  12)           72.8788         0.367569   
    161. A(Zr  3,Zr  0,O  13)           71.9014         0.357804   
    162. A(O   9,Zr  0,O  15)           74.0348         0.481399   
    163. A(O  12,Zr  0,O  13)           81.1074         0.546887   
    164. A(O   6,Zr  0,O  12)           82.8991         0.512998   
    165. A(O  12,Zr  0,O  14)           80.7373         0.516723   
    166. A(O   6,Zr  0,O  14)          129.9440         0.487030   
    167. A(Zr  3,Zr  0,O  12)          106.5897         0.356479   
    168. A(Zr  3,Zr  0,O   6)           35.2741         0.337910   
    169. A(O   7,Zr  1,O  16)          141.0626         0.509494   
    170. A(Zr  2,Zr  1,O  19)          105.0632         0.354466   
    171. A(O   7,Zr  1,O  18)           95.6937         0.514275   
    172. A(O  16,Zr  1,O  17)           76.2268         0.512325   
    173. A(Zr  4,Zr  1,O  16)          143.0100         0.370321   
    174. A(Zr  4,Zr  1,O  10)           37.1588         0.341624   
    175. A(O   7,Zr  1,O  10)           65.4612         0.466601   
    176. A(O   8,Zr  1,O  10)           90.4285         0.441091   
    177. A(O  16,Zr  1,O  18)           85.0539         0.550599   
    178. A(Zr  2,Zr  1,O   8)           37.3571         0.318296   
    179. A(O  10,Zr  1,O  16)          106.3918         0.498853   
    180. A(O   7,Zr  1,O  17)          127.9205         0.479013   
    181. A(Zr  4,Zr  1,O   7)           37.5465         0.348183   
    182. A(O  10,Zr  1,O  18)          160.5708         0.503513   
    183. A(Zr  4,Zr  1,O  19)           72.1385         0.368795   
    184. A(Zr  4,Zr  1,O  17)           90.3753         0.349928   
    185. A(Zr  2,Zr  1,O   7)           34.1446         0.334909   
    186. A(Zr  2,Zr  1,O  10)           86.8905         0.328686   
    187. A(O  10,Zr  1,O  19)           98.6594         0.496630   
    188. A(O  18,Zr  1,O  19)           82.5248         0.548095   
    189. A(O   8,Zr  1,O  18)           77.2159         0.485544   
    190. A(O   8,Zr  1,O  19)          141.0466         0.478959   
    191. A(O   8,Zr  1,O  17)          138.3177         0.452664   
    192. A(O  17,Zr  1,O  18)          129.1508         0.517138   
    193. A(O   8,Zr  1,O  16)           74.9343         0.481086   
    194. A(Zr  2,Zr  1,O  18)           74.1649         0.358948   
    195. A(O   7,Zr  1,O  19)           82.1332         0.507214   
    196. A(Zr  4,Zr  1,O  18)          128.0469         0.373519   
    197. A(Zr  2,Zr  1,Zr  4)           70.0436         0.253519   
    198. A(O  10,Zr  1,O  17)           69.7377         0.469143   
    199. A(Zr  2,Zr  1,O  16)          111.6046         0.355913   
    200. A(Zr  2,Zr  1,O  17)          156.6265         0.336565   
    201. A(O   7,Zr  1,O   8)           67.3961         0.450232   
    202. A(O  16,Zr  1,O  19)          136.1364         0.542934   
    203. A(Zr  4,Zr  1,O   8)           94.9175         0.330673   
    204. A(O  17,Zr  1,O  19)           79.6440         0.510029   
    205. A(O   8,Zr  2,O  21)          137.3755         0.462476   
    206. A(O   7,Zr  2,O   8)           68.1186         0.462437   
    207. A(Zr  5,Zr  2,O   8)           37.6325         0.321076   
    208. A(O  11,Zr  2,O  20)           87.3512         0.514913   
    209. A(O  20,Zr  2,O  23)          132.3225         0.519339   
    210. A(O  11,Zr  2,O  23)          123.5556         0.478090   
    211. A(O  22,Zr  2,O  23)           81.7829         0.518325   
    212. A(O  21,Zr  2,O  23)           77.0154         0.486384   
    213. A(Zr  1,Zr  2,Zr  5)           70.1663         0.244597   
    214. A(O   7,Zr  2,O  23)           70.4837         0.486343   
    215. A(Zr  1,Zr  2,O   8)           37.7301         0.321817   
    216. A(Zr  5,Zr  2,O  20)           72.5526         0.359302   
    217. A(Zr  1,Zr  2,O  22)           72.3352         0.359526   
    218. A(O   8,Zr  2,O  22)           83.5137         0.492495   
    219. A(O   7,Zr  2,O  11)           86.9984         0.482256   
    220. A(O   8,Zr  2,O  23)          136.2734         0.458481   
    221. A(Zr  5,Zr  2,O  22)          115.9860         0.358665   
    222. A(Zr  5,Zr  2,O  11)           34.7885         0.333392   
    223. A(O  21,Zr  2,O  22)          135.0231         0.522967   
    224. A(O   8,Zr  2,O  20)           86.4288         0.493449   
    225. A(Zr  5,Zr  2,O   7)           88.7475         0.338576   
    226. A(O  11,Zr  2,O  21)           71.0353         0.482297   
    227. A(Zr  1,Zr  2,O   7)           34.5523         0.339373   
    228. A(O   7,Zr  2,O  21)          120.0730         0.490639   
    229. A(O   8,Zr  2,O  11)           67.6731         0.454681   
    230. A(O  20,Zr  2,O  21)           81.5334         0.523992   
    231. A(Zr  1,Zr  2,O  21)          149.5472         0.339399   
    232. A(O  20,Zr  2,O  22)           84.3304         0.558956   
    233. A(Zr  5,Zr  2,O  21)           99.9583         0.338602   
    234. A(Zr  1,Zr  2,O  11)           87.6731         0.334173   
    235. A(O   7,Zr  2,O  22)           88.2724         0.522922   
    236. A(Zr  5,Zr  2,O  23)          152.7727         0.335932   
    237. A(O   7,Zr  2,O  20)          154.1583         0.523947   
    238. A(O  11,Zr  2,O  22)          150.4473         0.513909   
    239. A(Zr  1,Zr  2,O  20)          120.0014         0.360165   
    240. A(Zr  1,Zr  2,O  23)           98.5520         0.336721   
    241. A(O   6,Zr  3,O  10)           84.3325         0.480898   
    242. A(O  25,Zr  3,O  27)           84.0777         0.555660   
    243. A(O   9,Zr  3,O  10)           68.0935         0.466707   
    244. A(Zr  4,Zr  3,O  10)           35.8231         0.347608   
    245. A(O   6,Zr  3,O  24)           71.2316         0.479831   
    246. A(Zr  4,Zr  3,O  25)          125.9507         0.365825   
    247. A(Zr  4,Zr  3,O  24)          144.0401         0.346904   
    248. A(O  24,Zr  3,O  27)          138.1833         0.523764   
    249. A(O  26,Zr  3,O  27)           81.8252         0.523485   
    250. A(O   9,Zr  3,O  26)          132.9384         0.465437   
    251. A(O   6,Zr  3,O  26)          130.2363         0.479581   
    252. A(O   6,Zr  3,O   9)           67.8655         0.451527   
    253. A(O  10,Zr  3,O  27)           96.5498         0.524950   
    254. A(Zr  0,Zr  3,O  26)          156.1417         0.341357   
    255. A(O  24,Zr  3,O  26)           77.5622         0.494828   
    256. A(O  10,Zr  3,O  26)           71.3173         0.495936   
    257. A(Zr  0,Zr  3,Zr  4)           70.9928         0.249373   
    258. A(Zr  4,Zr  3,O  26)           94.5614         0.346738   
    259. A(Zr  0,Zr  3,O  27)          110.4686         0.359350   
    260. A(O  25,Zr  3,O  26)          130.3109         0.524602   
    261. A(Zr  4,Zr  3,O   9)           38.5272         0.328226   
    262. A(Zr  0,Zr  3,O  25)           72.6146         0.360045   
    263. A(O  24,Zr  3,O  25)           82.2364         0.524881   
    264. A(O  10,Zr  3,O  24)          110.3796         0.496197   
    265. A(Zr  0,Zr  3,O   9)           37.5374         0.323231   
    266. A(O   9,Zr  3,O  27)           80.1492         0.492277   
    267. A(Zr  0,Zr  3,O   6)           34.7229         0.332032   
    268. A(Zr  4,Zr  3,O   6)           89.0856         0.337214   
    269. A(O   9,Zr  3,O  24)          139.0289         0.465679   
    270. A(O   6,Zr  3,O  27)          145.1882         0.507429   
    271. A(Zr  0,Zr  3,O  24)          102.7073         0.341519   
    272. A(Zr  0,Zr  3,O  10)           86.6461         0.342208   
    273. A(O   6,Zr  3,O  25)           82.8097         0.508505   
    274. A(O   9,Zr  3,O  25)           90.3994         0.493314   
    275. A(O  10,Zr  3,O  25)          157.9170         0.526071   
    276. A(Zr  4,Zr  3,O  27)           73.0535         0.365115   
    277. A(Zr  1,Zr  4,Zr  3)           71.6570         0.257528   
    278. A(O   9,Zr  4,O  10)           66.6186         0.441484   
    279. A(O   7,Zr  4,O  10)           64.8373         0.455419   
    280. A(Zr  3,Zr  4,O  10)           34.7707         0.336238   
    281. A(O   9,Zr  4,O  29)           73.7803         0.476302   
    282. A(O  28,Zr  4,O  30)           82.7151         0.551206   
    283. A(O  30,Zr  4,O  31)           80.9690         0.511693   
    284. A(O  29,Zr  4,O  31)           74.4740         0.509899   
    285. A(O   7,Zr  4,O  31)           69.0387         0.465106   
    286. A(O  28,Zr  4,O  31)          124.6042         0.518943   
    287. A(O  10,Zr  4,O  31)          128.8356         0.472060   
    288. A(O   9,Zr  4,O  31)          139.5656         0.450803   
    289. A(Zr  3,Zr  4,O  31)          160.2698         0.342774   
    290. A(Zr  1,Zr  4,O  31)           91.5897         0.350110   
    291. A(O  29,Zr  4,O  30)          139.9246         0.541483   
    292. A(O  10,Zr  4,O  30)           83.0553         0.500806   
    293. A(O   9,Zr  4,O  30)          138.9970         0.477952   
    294. A(O   7,Zr  4,O  30)           96.1415         0.493329   
    295. A(Zr  3,Zr  4,O  30)          102.5046         0.361817   
    296. A(Zr  1,Zr  4,O  30)           71.2028         0.369704   
    297. A(O  28,Zr  4,O  29)           85.7497         0.549244   
    298. A(O  10,Zr  4,O  29)          136.9117         0.499058   
    299. A(O   7,Zr  4,O  29)          103.7770         0.491613   
    300. A(Zr  3,Zr  4,O  29)          111.3204         0.360659   
    301. A(Zr  1,Zr  4,O  29)          139.3745         0.368513   
    302. A(Zr  3,Zr  4,O   9)           37.9218         0.322517   
    303. A(Zr  3,Zr  4,O   7)           91.2391         0.331749   
    304. A(Zr  1,Zr  4,O   9)           96.4732         0.329268   
    305. A(O   7,Zr  4,O  28)          165.6040         0.500264   
    306. A(O   9,Zr  4,O  28)           76.9784         0.484624   
    307. A(Zr  3,Zr  4,O  28)           75.0952         0.366497   
    308. A(O  10,Zr  4,O  28)          100.8223         0.507869   
    309. A(Zr  1,Zr  4,O   7)           36.6332         0.338767   
    310. A(Zr  1,Zr  4,O  28)          131.3379         0.374519   
    311. A(O   7,Zr  4,O   9)           95.1204         0.435084   
    312. A(Zr  1,Zr  4,O  10)           37.3308         0.343385   
    313. A(O  11,Zr  5,O  35)           95.4419         0.511114   
    314. A(O  34,Zr  5,O  35)           83.5197         0.539220   
    315. A(O  33,Zr  5,O  35)           81.6492         0.548789   
    316. A(O  32,Zr  5,O  35)          128.5082         0.518820   
    317. A(O   8,Zr  5,O  35)           77.7816         0.483475   
    318. A(O   6,Zr  5,O  35)          160.9930         0.488101   
    319. A(Zr  2,Zr  5,O  35)           73.2521         0.356574   
    320. A(O  33,Zr  5,O  34)          134.4861         0.537446   
    321. A(O  32,Zr  5,O  34)           74.4484         0.508216   
    322. A(O  11,Zr  5,O  34)          139.8430         0.500700   
    323. A(Zr  0,Zr  5,O  35)          126.2020         0.369391   
    324. A(O  32,Zr  5,O  33)           81.9187         0.517126   
    325. A(O   6,Zr  5,O  34)          111.5203         0.478255   
    326. A(Zr  2,Zr  5,O  34)          109.3561         0.349973   
    327. A(Zr  0,Zr  5,O  34)          146.4596         0.362474   
    328. A(O  11,Zr  5,O  33)           84.4210         0.509451   
    329. A(O   8,Zr  5,O  33)          142.8981         0.481921   
    330. A(O   6,Zr  5,O  33)           94.5586         0.486529   
    331. A(Zr  0,Zr  5,O  33)           71.8345         0.368287   
    332. A(O  11,Zr  5,O  32)          130.8085         0.482046   
    333. A(O   8,Zr  5,O  32)          134.7411         0.456310   
    334. A(O   6,Zr  5,O  32)           68.7133         0.460617   
    335. A(Zr  2,Zr  5,O  32)          158.0475         0.338148   
    336. A(Zr  0,Zr  5,O  32)           93.5028         0.350082   
    337. A(Zr  2,Zr  5,O   6)           90.2949         0.320342   
    338. A(Zr  0,Zr  5,O   6)           36.2806         0.331423   
    339. A(Zr  0,Zr  5,Zr  2)           71.2775         0.251531   
    340. A(O   8,Zr  5,O  34)           73.2664         0.473743   
    341. A(O   8,Zr  5,O  11)           67.3645         0.449725   
    342. A(O   6,Zr  5,O  11)           65.5976         0.453955   
    343. A(Zr  2,Zr  5,O  11)           34.8155         0.333681   
    344. A(Zr  0,Zr  5,O  11)           37.5063         0.345402   
    345. A(O   6,Zr  5,O   8)           95.0173         0.430059   
    346. A(Zr  2,Zr  5,O  33)          107.0100         0.355520   
    347. A(Zr  2,Zr  5,O   8)           37.2708         0.317660   
    348. A(Zr  0,Zr  5,O   8)           96.2266         0.328613   
    349. A(Zr  3,O   6,Zr  5)          137.3660         0.449268   
    350. A(Zr  0,O   6,Zr  5)          105.7892         0.457982   
    351. A(Zr  0,O   6,Zr  3)          110.0030         0.474246   
    352. A(Zr  2,O   7,Zr  4)          136.5643         0.469107   
    353. A(Zr  1,O   7,Zr  4)          105.8203         0.462330   
    354. A(Zr  1,O   7,Zr  2)          111.3030         0.483437   
    355. A(Zr  1,O   8,Zr  2)          104.9127         0.431000   
    356. A(Zr  2,O   8,Zr  5)          105.0967         0.431141   
    357. A(Zr  1,O   8,Zr  5)          130.5216         0.425966   
    358. A(Zr  3,O   9,Zr  4)          103.5510         0.430061   
    359. A(Zr  0,O   9,Zr  4)          131.8361         0.426349   
    360. A(Zr  0,O   9,Zr  3)          105.1925         0.434596   
    361. A(Zr  3,O  10,Zr  4)          109.4062         0.479357   
    362. A(Zr  1,O  10,Zr  4)          105.5104         0.459611   
    363. A(Zr  1,O  10,Zr  3)          143.1884         0.476654   
    364. A(Zr  2,O  11,Zr  5)          110.3960         0.474543   
    365. A(Zr  0,O  11,Zr  5)          105.9873         0.459595   
    366. A(Zr  0,O  11,Zr  2)          139.4806         0.459158   
    367. A(Zr  0,O  12,C  36)          126.4038         0.502697   
    368. A(Zr  0,O  13,C  37)          128.6864         0.504919   
    369. A(C  37,O  13,Al 72)          100.9642         0.223392   
    370. A(Zr  0,O  13,Al 68)           99.7658         0.240935   
    371. A(C  37,O  13,Al 68)          129.1322         0.226329   
    372. A(Al 68,O  13,Al 72)           62.4009         0.138093   
    373. A(Zr  0,O  13,Al 72)          116.8390         0.237686   
    374. A(Zr  0,O  14,C  38)          130.9335         0.478577   
    375. A(Zr  0,O  15,C  39)          136.4905         0.502405   
    376. A(Zr  1,O  16,C  40)          139.1986         0.505088   
    377. A(Zr  1,O  17,C  41)          135.7585         0.474413   
    378. A(Zr  1,O  18,C  42)          129.4455         0.508350   
    379. A(Zr  1,O  19,C  43)          124.8732         0.500276   
    380. A(Zr  2,O  20,C  44)          131.4217         0.510152   
    381. A(Zr  2,O  21,C  38)          138.4544         0.478018   
    382. A(Zr  2,O  22,C  42)          132.5195         0.509187   
    383. A(Zr  2,O  23,C  45)          138.6954         0.473900   
    384. A(Zr  3,O  24,C  46)          137.1659         0.479909   
    385. A(Zr  3,O  25,C  37)          128.9934         0.508300   
    386. A(Zr  3,O  26,C  41)          138.6758         0.480657   
    387. A(Zr  3,O  27,C  47)          132.8333         0.507756   
    388. A(Zr  4,O  28,C  47)          130.0176         0.509948   
    389. A(Zr  4,O  29,C  39)          141.7229         0.502519   
    390. A(Zr  4,O  30,C  43)          125.6033         0.501500   
    391. A(Zr  4,O  31,C  45)          130.2131         0.474331   
    392. A(Zr  5,O  32,C  46)          129.3916         0.477681   
    393. A(Zr  5,O  33,C  36)          127.6674         0.503610   
    394. A(Zr  5,O  34,C  40)          138.6122         0.497182   
    395. A(Zr  5,O  35,C  44)          129.6567         0.505940   
    396. A(O  12,C  36,O  33)          126.7797         0.464486   
    397. A(O  33,C  36,H  58)          116.6245         0.363791   
    398. A(O  12,C  36,H  58)          116.5954         0.363892   
    399. A(O  13,C  37,O  25)          127.2002         0.464857   
    400. A(O  25,C  37,H  51)          116.4443         0.364105   
    401. A(O  13,C  37,H  51)          116.3536         0.364162   
    402. A(O  14,C  38,O  21)          129.7925         0.466368   
    403. A(O  21,C  38,H  50)          115.1323         0.365654   
    404. A(O  14,C  38,H  50)          115.0751         0.366104   
    405. A(O  15,C  39,O  29)          128.9633         0.468467   
    406. A(O  29,C  39,H  54)          115.2578         0.366705   
    407. A(O  15,C  39,H  54)          115.7775         0.366665   
    408. A(O  16,C  40,O  34)          128.8729         0.468379   
    409. A(O  34,C  40,H  56)          115.5541         0.366583   
    410. A(O  16,C  40,H  56)          115.5634         0.366546   
    411. A(O  17,C  41,O  26)          130.1129         0.467271   
    412. A(O  26,C  41,H  48)          114.8977         0.366486   
    413. A(O  17,C  41,H  48)          114.9823         0.366522   
    414. A(O  18,C  42,O  22)          127.6569         0.465630   
    415. A(O  22,C  42,H  49)          116.1704         0.364578   
    416. A(O  18,C  42,H  49)          116.1725         0.364617   
    417. A(O  30,C  43,H  52)          116.7881         0.363263   
    418. A(O  19,C  43,H  52)          116.7454         0.363338   
    419. A(O  19,C  43,O  30)          126.4663         0.463555   
    420. A(O  35,C  44,H  59)          116.2568         0.364565   
    421. A(O  20,C  44,H  59)          116.2867         0.364540   
    422. A(O  20,C  44,O  35)          127.4565         0.465560   
    423. A(O  31,C  45,H  55)          114.9960         0.366062   
    424. A(O  23,C  45,H  55)          114.9352         0.365771   
    425. A(O  23,C  45,O  31)          130.0660         0.466235   
    426. A(O  32,C  46,H  57)          115.0783         0.365772   
    427. A(O  24,C  46,H  57)          115.1848         0.365340   
    428. A(O  24,C  46,O  32)          129.7324         0.465886   
    429. A(O  28,C  47,H  53)          116.1588         0.364763   
    430. A(O  27,C  47,H  53)          116.1824         0.364700   
    431. A(O  27,C  47,O  28)          127.6575         0.465821   
    432. A(H  71,Al 60,Al 72)          115.2621         0.283814   
    433. A(H  65,Al 60,Al 72)          112.4987         0.283778   
    434. A(H  64,Al 60,Al 72)           96.0639         0.272248   
    435. A(Al 61,Al 60,Al 72)           90.2540         0.216811   
    436. A(H  66,Al 60,H  71)          112.1255         0.364773   
    437. A(H  65,Al 60,H  71)          112.1746         0.381994   
    438. A(H  64,Al 60,H  71)          111.4478         0.364649   
    439. A(Al 61,Al 60,H  71)          113.7181         0.281258   
    440. A(H  65,Al 60,H  66)          108.5839         0.364722   
    441. A(H  64,Al 60,H  66)          103.9841         0.348400   
    442. A(Al 61,Al 60,H  66)           98.1830         0.269925   
    443. A(H  64,Al 60,H  65)          108.1244         0.364598   
    444. A(Al 61,Al 60,H  65)          111.1733         0.281223   
    445. A(H  66,Al 60,Al 72)            7.9593         0.272330   
    446. A(Al 61,Al 60,H  64)            5.8441         0.269843   
    447. A(H  67,Al 61,Al 68)          113.9062         0.284743   
    448. A(H  64,Al 61,Al 68)           90.1056         0.273073   
    449. A(H  63,Al 61,Al 68)          119.6732         0.284663   
    450. A(H  62,Al 61,Al 68)            8.7540         0.273103   
    451. A(Al 60,Al 61,Al 68)           84.5448         0.217395   
    452. A(H  64,Al 61,H  67)          111.4477         0.364684   
    453. A(H  63,Al 61,H  67)          111.3257         0.382042   
    454. A(H  62,Al 61,H  67)          111.4954         0.364728   
    455. A(Al 60,Al 61,H  67)          115.4206         0.281295   
    456. A(H  63,Al 61,H  64)          108.1772         0.364571   
    457. A(H  62,Al 61,H  64)           98.7401         0.348289   
    458. A(Al 60,Al 61,H  64)            5.8438         0.269831   
    459. A(H  62,Al 61,H  63)          114.9656         0.364615   
    460. A(Al 60,Al 61,H  63)          109.4529         0.281217   
    461. A(Al 60,Al 61,H  62)           93.1320         0.269860   
    462. A(Al 61,H  62,Al 68)          162.4944         0.348230   
    463. A(Al 60,H  64,Al 61)          168.3122         0.348266   
    464. A(Al 60,H  66,Al 72)          164.0818         0.348499   
    465. A(O  13,Al 68,H  75)          143.5746         0.210308   
    466. A(O  13,Al 68,Al 72)           59.1831         0.168504   
    467. A(O  13,Al 68,H  70)           58.9283         0.210241   
    468. A(O  13,Al 68,H  69)           56.0284         0.202927   
    469. A(O  13,Al 68,H  62)          106.0472         0.203015   
    470. A(O  13,Al 68,Al 61)          106.7101         0.169973   
    471. A(Al 72,Al 68,H  75)          110.3179         0.281249   
    472. A(H  70,Al 68,H  75)          111.1132         0.382175   
    473. A(H  69,Al 68,H  75)          109.4961         0.364488   
    474. A(H  62,Al 68,H  75)          110.0286         0.364703   
    475. A(Al 61,Al 68,H  75)          108.1710         0.284801   
    476. A(H  70,Al 68,Al 72)          116.7919         0.281144   
    477. A(H  69,Al 68,Al 72)            6.1744         0.269552   
    478. A(H  62,Al 68,Al 72)           97.4727         0.269693   
    479. A(Al 61,Al 68,Al 72)           90.3379         0.217326   
    480. A(H  69,Al 68,H  70)          112.3233         0.364337   
    481. A(H  62,Al 68,H  70)          110.2756         0.364551   
    482. A(Al 61,Al 68,H  70)          118.3379         0.284693   
    483. A(H  62,Al 68,H  69)          103.3358         0.347928   
    484. A(Al 61,Al 68,H  69)           96.3527         0.272888   
    485. A(Al 61,Al 68,H  62)            8.7516         0.273031   
    486. A(Al 68,H  69,Al 72)          167.6519         0.347690   
    487. A(O  13,Al 72,H  74)          115.1108         0.207714   
    488. A(O  13,Al 72,H  73)           57.9392         0.207699   
    489. A(O  13,Al 72,H  69)           55.2663         0.200474   
    490. A(O  13,Al 72,Al 68)           58.4160         0.166803   
    491. A(O  13,Al 72,H  66)          129.1501         0.200653   
    492. A(O  13,Al 72,Al 60)          122.2055         0.167880   
    493. A(H  73,Al 72,H  74)          110.8027         0.382303   
    494. A(H  69,Al 72,H  74)          111.2412         0.364451   
    495. A(Al 68,Al 72,H  74)          115.5018         0.281251   
    496. A(H  66,Al 72,H  74)          114.9256         0.364892   
    497. A(Al 60,Al 72,H  74)          120.7424         0.283911   
    498. A(H  69,Al 72,H  73)          110.8444         0.364416   
    499. A(Al 68,Al 72,H  73)          111.9684         0.281226   
    500. A(H  66,Al 72,H  73)          110.4383         0.364857   
    501. A(Al 60,Al 72,H  73)          110.9846         0.283887   
    502. A(Al 68,Al 72,H  69)            6.1737         0.269526   
    503. A(H  66,Al 72,H  69)           97.9736         0.348067   
    504. A(Al 60,Al 72,H  69)           90.5072         0.272025   
    505. A(H  66,Al 72,Al 68)           91.9771         0.269816   
    506. A(Al 60,Al 72,Al 68)           84.4487         0.216742   
    507. A(Al 60,Al 72,H  66)            7.9589         0.272318   
    508. D(Zr  5,Zr  2,Zr  1,O   7)    118.8688         0.010000   
    509. D(Zr  5,Zr  2,Zr  1,Zr  4)    104.2011         0.010000   
    510. D(O   7,Zr  2,Zr  1,Zr  4)    -14.6677         0.010000   
    511. D(Zr  4,Zr  3,Zr  0,O   6)   -117.8667         0.010000   
    512. D(O   6,Zr  3,Zr  0,Zr  5)     15.0303         0.010000   
    513. D(Zr  4,Zr  3,Zr  0,Zr  5)   -102.8365         0.010000   
    514. D(Zr  3,Zr  4,Zr  1,Zr  2)   -105.4654         0.010000   
    515. D(O   7,Zr  4,Zr  3,Zr  0)     72.7847         0.010000   
    516. D(Zr  1,Zr  4,Zr  3,O   6)     74.0277         0.010000   
    517. D(Zr  3,Zr  4,Zr  1,O   7)   -118.9519         0.010000   
    518. D(Zr  1,Zr  4,Zr  3,Zr  0)    104.2675         0.010000   
    519. D(O   7,Zr  4,Zr  1,Zr  2)     13.4866         0.010000   
    520. D(O   6,Zr  5,Zr  0,Zr  3)    -14.1009         0.010000   
    521. D(Zr  2,Zr  5,Zr  0,O   6)    118.0923         0.010000   
    522. D(Zr  2,Zr  5,Zr  0,Zr  3)    103.9915         0.010000   
    523. D(Zr  0,Zr  5,Zr  2,O   7)    -74.9832         0.010000   
    524. D(Zr  0,Zr  5,Zr  2,Zr  1)   -104.7714         0.010000   
    525. D(O   6,Zr  5,Zr  2,Zr  1)    -73.3026         0.010000   
    526. D(Zr  0,O   6,Zr  5,Zr  2)    -56.6699         0.010000   
    527. D(Zr  5,O   6,Zr  0,Zr  3)    156.4283         0.010000   
    528. D(Zr  5,O   6,Zr  3,Zr  0)   -145.3793         0.010000   
    529. D(Zr  3,O   6,Zr  0,O   9)    -23.4638         0.010000   
    530. D(Zr  3,O   6,Zr  5,Zr  0)    146.3030         0.010000   
    531. D(Zr  3,O   6,Zr  0,Zr  5)   -156.4283         0.010000   
    532. D(Zr  0,O   6,Zr  5,O   8)    -93.6922         0.010000   
    533. D(Zr  0,O   6,Zr  3,Zr  4)     56.7143         0.010000   
    534. D(Zr  0,O   6,Zr  3,O   9)     23.6616         0.010000   
    535. D(Zr  1,O   7,Zr  2,Zr  5)    -55.4850         0.010000   
    536. D(Zr  2,O   7,Zr  1,O   8)     23.0598         0.010000   
    537. D(Zr  4,O   7,Zr  1,Zr  2)   -157.0108         0.010000   
    538. D(Zr  2,O   7,Zr  1,Zr  4)    157.0108         0.010000   
    539. D(Zr  2,O   7,Zr  4,Zr  1)   -148.0461         0.010000   
    540. D(Zr  1,O   7,Zr  4,Zr  3)     56.1769         0.010000   
    541. D(Zr  1,O   7,Zr  2,O   8)    -23.1408         0.010000   
    542. D(Zr  1,O   7,Zr  4,O   9)     93.9673         0.010000   
    543. D(Zr  4,O   7,Zr  2,Zr  1)    146.8705         0.010000   
    544. D(Zr  2,O   8,Zr  5,Zr  0)     47.4246         0.010000   
    545. D(Zr  1,O   8,Zr  5,Zr  2)   -125.5362         0.010000   
    546. D(Zr  1,O   8,Zr  2,Zr  5)    140.1977         0.010000   
    547. D(Zr  1,O   8,Zr  5,Zr  0)    -78.1115         0.010000   
    548. D(Zr  1,O   8,Zr  2,O   7)     21.3603         0.010000   
    549. D(Zr  5,O   8,Zr  2,Zr  1)   -140.1977         0.010000   
    550. D(Zr  2,O   8,Zr  1,Zr  4)    -47.3692         0.010000   
    551. D(Zr  2,O   8,Zr  1,O   7)    -21.2429         0.010000   
    552. D(Zr  5,O   8,Zr  1,Zr  2)    125.6051         0.010000   
    553. D(Zr  3,O   9,Zr  4,Zr  1)    -48.6255         0.010000   
    554. D(Zr  0,O   9,Zr  4,Zr  3)    125.2804         0.010000   
    555. D(Zr  0,O   9,Zr  4,Zr  1)     76.6548         0.010000   
    556. D(Zr  4,O   9,Zr  3,Zr  0)    140.9320         0.010000   
    557. D(Zr  0,O   9,Zr  3,O   6)    -22.0369         0.010000   
    558. D(Zr  0,O   9,Zr  3,Zr  4)   -140.9320         0.010000   
    559. D(Zr  4,O   9,Zr  0,Zr  3)   -124.6792         0.010000   
    560. D(Zr  3,O   9,Zr  0,O   6)     22.3153         0.010000   
    561. D(Zr  3,O   9,Zr  0,Zr  5)     49.1785         0.010000   
    562. D(Zr  1,O  10,Zr  4,O   7)    -32.2132         0.010000   
    563. D(Zr  1,O  10,Zr  4,Zr  3)   -168.1477         0.010000   
    564. D(Zr  4,O  10,Zr  3,Zr  0)    -61.5608         0.010000   
    565. D(Zr  1,O  10,Zr  3,Zr  4)    160.7132         0.010000   
    566. D(Zr  1,O  10,Zr  3,Zr  0)     99.1524         0.010000   
    567. D(Zr  4,O  10,Zr  1,Zr  2)     60.3825         0.010000   
    568. D(Zr  3,O  10,Zr  1,Zr  4)   -161.1371         0.010000   
    569. D(Zr  3,O  10,Zr  4,Zr  1)    168.1477         0.010000   
    570. D(Zr  3,O  10,Zr  1,Zr  2)   -100.7545         0.010000   
    571. D(Zr  2,O  11,Zr  5,Zr  0)   -161.8402         0.010000   
    572. D(Zr  0,O  11,Zr  5,Zr  2)    161.8402         0.010000   
    573. D(Zr  5,O  11,Zr  2,Zr  1)     57.5425         0.010000   
    574. D(Zr  0,O  11,Zr  2,Zr  5)   -152.5384         0.010000   
    575. D(Zr  0,O  11,Zr  2,Zr  1)    -94.9959         0.010000   
    576. D(Zr  5,O  11,Zr  0,Zr  3)    -59.3722         0.010000   
    577. D(Zr  0,O  11,Zr  5,O   6)     30.3671         0.010000   
    578. D(Zr  2,O  11,Zr  0,Zr  5)    153.2799         0.010000   
    579. D(Zr  2,O  11,Zr  0,Zr  3)     93.9076         0.010000   
    580. D(C  36,O  12,Zr  0,Zr  5)     30.2495         0.010000   
    581. D(C  36,O  12,Zr  0,Zr  3)     94.1710         0.010000   
    582. D(Al 68,O  13,Zr  0,Zr  3)   -168.2749         0.010000   
    583. D(C  37,O  13,Zr  0,Zr  5)    -21.1722         0.010000   
    584. D(C  37,O  13,Zr  0,Zr  3)     28.3440         0.010000   
    585. D(C  38,O  14,Zr  0,Zr  5)     73.0692         0.010000   
    586. D(C  38,O  14,Zr  0,Zr  3)     33.5446         0.010000   
    587. D(C  39,O  15,Zr  0,Zr  5)     40.8731         0.010000   
    588. D(C  39,O  15,Zr  0,Zr  3)    -45.1125         0.010000   
    589. D(C  40,O  16,Zr  1,Zr  4)    -63.3689         0.010000   
    590. D(C  40,O  16,Zr  1,Zr  2)     21.7900         0.010000   
    591. D(C  41,O  17,Zr  1,Zr  4)    -63.7901         0.010000   
    592. D(C  41,O  17,Zr  1,Zr  2)    -31.4802         0.010000   
    593. D(C  42,O  18,Zr  1,Zr  4)     30.6272         0.010000   
    594. D(C  42,O  18,Zr  1,Zr  2)    -17.1150         0.010000   
    595. D(C  43,O  19,Zr  1,Zr  4)    -34.5337         0.010000   
    596. D(C  43,O  19,Zr  1,Zr  2)    -97.2707         0.010000   
    597. D(C  44,O  20,Zr  2,Zr  5)     19.5356         0.010000   
    598. D(C  44,O  20,Zr  2,Zr  1)    -34.1550         0.010000   
    599. D(C  38,O  21,Zr  2,Zr  5)    -10.1939         0.010000   
    600. D(C  38,O  21,Zr  2,Zr  1)     57.4077         0.010000   
    601. D(C  42,O  22,Zr  2,Zr  5)     40.7664         0.010000   
    602. D(C  42,O  22,Zr  2,Zr  1)    -15.7734         0.010000   
    603. D(C  45,O  23,Zr  2,Zr  5)    -40.8616         0.010000   
    604. D(C  45,O  23,Zr  2,Zr  1)     21.9023         0.010000   
    605. D(C  46,O  24,Zr  3,Zr  4)     74.7346         0.010000   
    606. D(C  46,O  24,Zr  3,Zr  0)     -0.3300         0.010000   
    607. D(C  37,O  25,Zr  3,Zr  0)     25.0444         0.010000   
    608. D(C  37,O  25,Zr  3,Zr  4)    -24.5157         0.010000   
    609. D(C  41,O  26,Zr  3,Zr  4)     39.1921         0.010000   
    610. D(C  41,O  26,Zr  3,Zr  0)    -11.9511         0.010000   
    611. D(C  47,O  27,Zr  3,Zr  4)     -9.1237         0.010000   
    612. D(C  47,O  27,Zr  3,Zr  0)     52.3768         0.010000   
    613. D(C  47,O  28,Zr  4,Zr  3)    -10.3086         0.010000   
    614. D(C  47,O  28,Zr  4,Zr  1)     37.7874         0.010000   
    615. D(C  39,O  29,Zr  4,Zr  3)     22.6451         0.010000   
    616. D(C  39,O  29,Zr  4,Zr  1)    -63.6918         0.010000   
    617. D(C  43,O  30,Zr  4,Zr  3)   -102.2735         0.010000   
    618. D(C  43,O  30,Zr  4,Zr  1)    -36.8558         0.010000   
    619. D(C  45,O  31,Zr  4,Zr  3)    -42.9679         0.010000   
    620. D(C  45,O  31,Zr  4,Zr  1)    -74.1879         0.010000   
    621. D(C  46,O  32,Zr  5,Zr  2)     30.2021         0.010000   
    622. D(C  46,O  32,Zr  5,Zr  0)     75.1004         0.010000   
    623. D(C  36,O  33,Zr  5,Zr  2)     94.7273         0.010000   
    624. D(C  36,O  33,Zr  5,Zr  0)     31.7057         0.010000   
    625. D(C  40,O  34,Zr  5,Zr  2)    -36.9712         0.010000   
    626. D(C  40,O  34,Zr  5,Zr  0)     48.1062         0.010000   
    627. D(C  44,O  35,Zr  5,Zr  2)     20.1597         0.010000   
    628. D(C  44,O  35,Zr  5,Zr  0)    -30.3712         0.010000   
    629. D(H  58,C  36,O  33,Zr  5)    156.5348         0.045867   
    630. D(O  12,C  36,O  33,Zr  5)    -23.6875         0.045867   
    631. D(H  58,C  36,O  12,Zr  0)    158.6641         0.050910   
    632. D(O  33,C  36,O  12,Zr  0)    -21.1137         0.050910   
    633. D(O  25,C  37,O  13,Al 68)    177.8980         0.071596   
    634. D(O  25,C  37,O  13,Zr  0)    -23.4090         0.071596   
    635. D(H  51,C  37,O  25,Zr  3)    163.5187         0.051015   
    636. D(O  13,C  37,O  25,Zr  3)    -15.9533         0.051015   
    637. D(H  51,C  37,O  13,Zr  0)    157.1186         0.071596   
    638. D(H  50,C  38,O  21,Zr  2)    152.2248         0.051671   
    639. D(O  14,C  38,O  21,Zr  2)    -27.7785         0.051671   
    640. D(H  50,C  38,O  14,Zr  0)    164.7661         0.057194   
    641. D(O  21,C  38,O  14,Zr  0)    -15.2305         0.057194   
    642. D(H  54,C  39,O  29,Zr  4)   -178.5726         0.062857   
    643. D(O  15,C  39,O  29,Zr  4)      1.8785         0.062857   
    644. D(H  54,C  39,O  15,Zr  0)   -166.5837         0.074961   
    645. D(O  29,C  39,O  15,Zr  0)     12.9633         0.074961   
    646. D(H  56,C  40,O  34,Zr  5)    177.9835         0.048379   
    647. D(O  16,C  40,O  34,Zr  5)     -3.2054         0.048379   
    648. D(H  56,C  40,O  16,Zr  1)   -167.6897         0.048315   
    649. D(O  34,C  40,O  16,Zr  1)     13.4994         0.048315   
    650. D(H  48,C  41,O  26,Zr  3)   -176.4093         0.047624   
    651. D(O  17,C  41,O  26,Zr  3)      2.5645         0.047624   
    652. D(H  48,C  41,O  17,Zr  1)   -166.6516         0.047685   
    653. D(O  26,C  41,O  17,Zr  1)     14.3753         0.047685   
    654. D(H  49,C  42,O  22,Zr  2)   -169.5044         0.046611   
    655. D(O  18,C  42,O  22,Zr  2)     10.3108         0.046611   
    656. D(H  49,C  42,O  18,Zr  1)   -166.1283         0.046677   
    657. D(O  22,C  42,O  18,Zr  1)     14.0566         0.046677   
    658. D(H  52,C  43,O  30,Zr  4)   -152.2149         0.045332   
    659. D(O  19,C  43,O  30,Zr  4)     27.9378         0.045332   
    660. D(H  52,C  43,O  19,Zr  1)   -156.5484         0.045454   
    661. D(O  30,C  43,O  19,Zr  1)     23.2989         0.045454   
    662. D(H  59,C  44,O  35,Zr  5)    164.3133         0.046622   
    663. D(O  20,C  44,O  35,Zr  5)    -15.7223         0.046622   
    664. D(H  59,C  44,O  20,Zr  2)    166.2686         0.046580   
    665. D(O  35,C  44,O  20,Zr  2)    -13.6957         0.046580   
    666. D(H  55,C  45,O  31,Zr  4)   -161.0607         0.047258   
    667. D(O  23,C  45,O  31,Zr  4)     19.5869         0.047258   
    668. D(H  55,C  45,O  23,Zr  2)   -164.0382         0.046771   
    669. D(O  31,C  45,O  23,Zr  2)     15.3145         0.046771   
    670. D(H  57,C  46,O  32,Zr  5)    162.6583         0.047161   
    671. D(O  24,C  46,O  32,Zr  5)    -16.5266         0.047161   
    672. D(H  57,C  46,O  24,Zr  3)    146.6482         0.046441   
    673. D(O  32,C  46,O  24,Zr  3)    -34.1676         0.046441   
    674. D(H  53,C  47,O  28,Zr  4)   -171.7831         0.056393   
    675. D(O  27,C  47,O  28,Zr  4)      8.6395         0.056393   
    676. D(H  53,C  47,O  27,Zr  3)   -173.9210         0.056265   
    677. D(O  28,C  47,O  27,Zr  3)      5.6563         0.056265   
    678. D(H  63,Al 61,Al 60,H  64)    -78.3757         0.010000   
    679. D(H  62,Al 61,Al 60,H  65)   -136.7852         0.010000   
    680. D(H  62,Al 61,Al 60,H  64)    163.7443         0.010000   
    681. D(Al 68,H  62,Al 61,H  63)   -124.3728         0.010000   
    682. D(Al 68,H  62,Al 61,Al 60)    -11.2077         0.010000   
    683. D(Al 60,H  64,Al 61,H  63)    103.5693         0.010000   
    684. D(Al 60,H  64,Al 61,H  62)    -16.4268         0.010000   
    685. D(Al 61,H  64,Al 60,H  66)     -7.0289         0.010000   
    686. D(Al 61,H  64,Al 60,H  65)   -122.3117         0.010000   
    687. D(Al 72,H  66,Al 60,H  64)      5.7585         0.010000   
    688. D(Al 72,H  66,Al 60,Al 61)      5.0372         0.010000   
    689. D(H  70,Al 68,H  62,Al 61)    157.8289         0.010000   
    690. D(H  69,Al 68,H  62,Al 61)     37.5828         0.010000   
    691. D(H  69,Al 68,Al 61,Al 60)     25.4221         0.010000   
    692. D(H  62,Al 68,Al 61,H  63)     59.4509         0.010000   
    693. D(H  62,Al 68,Al 61,Al 60)    168.7576         0.010000   
    694. D(H  62,Al 68,O  13,Zr  0)     26.0780         0.010000   
    695. D(Al 61,Al 68,O  13,C  37)   -161.5523         0.010000   
    696. D(Al 61,Al 68,O  13,Zr  0)     35.1744         0.010000   
    697. D(Al 72,H  69,Al 68,H  62)    -18.4652         0.010000   
    698. D(Al 72,H  69,Al 68,Al 61)    -13.1076         0.010000   
    699. D(H  66,Al 72,H  69,Al 68)    -13.8388         0.010000   
    700. D(H  66,Al 72,Al 68,Al 61)    -26.7366         0.010000   
    701. D(Al 60,Al 72,Al 68,H  62)    -29.2345         0.010000   
    702. D(Al 60,Al 72,Al 68,Al 61)    -24.1513         0.010000   
    703. D(H  69,Al 72,H  66,Al 60)     20.3942         0.010000   
    704. D(Al 68,Al 72,H  66,Al 60)     18.9193         0.010000   
    705. D(Al 68,Al 72,Al 60,Al 61)     23.9860         0.010000   
    706. D(H  66,Al 72,Al 60,H  64)   -174.3812         0.010000   
    707. D(H  66,Al 72,Al 60,Al 61)   -175.0142         0.010000   
    708. D(H  66,Al 72,O  13,Zr  0)    -23.7694         0.010000   
    709. D(Al 60,Al 72,H  69,Al 68)    -11.0730         0.010000   
    710. D(Al 60,Al 72,O  13,C  37)   -172.8134         0.010000   
    711. D(Al 60,Al 72,O  13,Zr  0)    -28.5638         0.010000   
    -----------------------------------------------------------------

Number of atoms                         .... 76
Number of degrees of freedom            .... 711


         *************************************************************
         *                GEOMETRY OPTIMIZATION CYCLE   1            *
         *************************************************************
---------------------------------
CARTESIAN COORDINATES (ANGSTROEM)
---------------------------------
  Zr    -0.328840    2.309652    1.329611
  Zr     0.302332   -2.078101   -1.441593
  Zr     1.974907   -0.924009    1.323018
  Zr    -1.937813    1.190778   -1.482382
  Zr     1.422075    1.049092   -1.997891
  Zr    -1.411750   -0.841165    1.890932
  O     -1.603040    0.854947    0.569983
  O      1.599253   -0.624833   -0.687488
  O      0.119250   -1.830516    0.709304
  O     -0.093572    2.068144   -0.807914
  O     -0.342410   -0.081535   -1.742306
  O      0.325666    0.306598    1.701649
  O     -1.701639    2.409223    2.768437
  O     -1.421080    3.802503    0.608868
  O      0.914469    2.254302    2.980160
  O      1.256892    3.414600    0.822942
  O     -1.315836   -3.120823   -0.936744
  O     -0.910045   -1.958714   -3.128279
  O      1.309851   -3.625232   -0.735926
  O      1.681767   -2.168770   -2.882296
  O      1.650888   -1.745569    3.085223
  O      2.575341    0.657247    2.511018
  O      2.731053   -2.687155    0.858183
  O      3.709120   -0.265161    0.382648
  O     -3.550438    0.170100   -0.705975
  O     -2.942903    2.752231   -0.809192
  O     -2.391429   -0.137090   -2.992127
  O     -1.540420    2.368377   -3.021561
  O      0.781809    2.465323   -3.212126
  O      2.368523    2.516078   -1.026438
  O      1.555137    0.008521   -3.692181
  O      3.401592    0.429478   -1.845856
  O     -3.397783   -0.348966    1.583187
  O     -1.697625    0.217178    3.549423
  O     -2.260690   -2.488909    1.104891
  O     -0.645727   -2.129114    3.190142
  C     -1.968709    1.486536    3.646090
  C     -2.521924    3.744911   -0.081410
  C      2.034651    1.631070    3.180031
  C      2.232304    3.324755   -0.024278
  C     -2.125551   -3.250115    0.065892
  C     -1.923414   -1.237273   -3.494862
  C      2.308438   -3.650591    0.095175
  C      1.876626   -1.250738   -3.785752
  C      0.576839   -2.252252    3.613328
  C      4.098673    0.099892   -0.801789
  C     -4.024526   -0.109417    0.471846
  C     -0.429893    2.799172   -3.540676
  H     -2.454288   -1.602775   -4.367474
  H      2.854522   -4.592129    0.162362
  H      2.606835    1.975929    4.036369
  H     -3.158591    4.630791   -0.052770
  H      2.355168   -1.569159   -4.715247
  H     -0.525975    3.531921   -4.342208
  H      3.054831    4.017397    0.127339
  H      5.174986    0.123890   -0.942487
  H     -2.795009   -4.104456    0.020640
  H     -5.108230   -0.162272    0.533546
  H     -2.469427    1.811761    4.560391
  H      0.717502   -2.849802    4.514744
  Al     3.293661    6.912906   -0.250486
  Al     2.957710    5.604719    2.784366
  H      1.296574    5.770541    2.771797
  H      3.484449    4.097968    2.775032
  H      3.291601    6.282437    1.295444
  H      4.337323    6.080017   -1.125010
  H      1.755258    6.598614   -0.816284
  H      3.620131    6.443710    3.969088
  Al    -0.256414    6.214700    2.348069
  H     -0.228235    6.169025    0.678088
  H     -1.312644    5.189400    2.964816
  H      3.624251    8.474212   -0.243530
  Al     0.156333    6.138170   -0.947779
  H      0.049331    4.655955   -1.528450
  H     -0.765723    7.140228   -1.778923
  H     -0.550534    7.705161    2.835051

----------------------------
CARTESIAN COORDINATES (A.U.)
----------------------------
  NO LB      ZA    FRAG     MASS         X           Y           Z
   0 Zr   12.0000*   0    91.220   -0.621417    4.364609    2.512601
   1 Zr   12.0000*   0    91.220    0.571325   -3.927042   -2.724215
   2 Zr   12.0000*   0    91.220    3.732033   -1.746125    2.500142
   3 Zr   12.0000*   0    91.220   -3.661936    2.250244   -2.801297
   4 Zr   12.0000*   0    91.220    2.687332    1.982497   -3.775466
   5 Zr   12.0000*   0    91.220   -2.667821   -1.589572    3.573344
   6 O     8.0000    0    15.999   -3.029307    1.615615    1.077111
   7 O     8.0000    0    15.999    3.022150   -1.180764   -1.299164
   8 O     8.0000    0    15.999    0.225349   -3.459174    1.340390
   9 O     8.0000    0    15.999   -0.176826    3.908226   -1.526736
  10 O     8.0000    0    15.999   -0.647062   -0.154080   -3.292482
  11 O     8.0000    0    15.999    0.615420    0.579386    3.215651
  12 O     8.0000    0    15.999   -3.215633    4.552772    5.231588
  13 O     8.0000    0    15.999   -2.685452    7.185690    1.150593
  14 O     8.0000    0    15.999    1.728097    4.260014    5.631686
  15 O     8.0000    0    15.999    2.375181    6.452658    1.555135
  16 O     8.0000    0    15.999   -2.486569   -5.897500   -1.770189
  17 O     8.0000    0    15.999   -1.719736   -3.701433   -5.911590
  18 O     8.0000    0    15.999    2.475261   -6.850696   -1.390698
  19 O     8.0000    0    15.999    3.178079   -4.098382   -5.446750
  20 O     8.0000    0    15.999    3.119727   -3.298647    5.830227
  21 O     8.0000    0    15.999    4.866689    1.242017    4.745137
  22 O     8.0000    0    15.999    5.160942   -5.077987    1.621731
  23 O     8.0000    0    15.999    7.009220   -0.501081    0.723101
  24 O     8.0000    0    15.999   -6.709356    0.321443   -1.334100
  25 O     8.0000    0    15.999   -5.561282    5.200963   -1.529151
  26 O     8.0000    0    15.999   -4.519145   -0.259063   -5.654300
  27 O     8.0000    0    15.999   -2.910972    4.475585   -5.709923
  28 O     8.0000    0    15.999    1.477404    4.658785   -6.070039
  29 O     8.0000    0    15.999    4.475859    4.754699   -1.939686
  30 O     8.0000    0    15.999    2.938783    0.016102   -6.977212
  31 O     8.0000    0    15.999    6.428078    0.811595   -3.488162
  32 O     8.0000    0    15.999   -6.420880   -0.659451    2.991790
  33 O     8.0000    0    15.999   -3.208047    0.410407    6.707437
  34 O     8.0000    0    15.999   -4.272084   -4.703356    2.087941
  35 O     8.0000    0    15.999   -1.220247   -4.023442    6.028495
  36 C     6.0000    0    12.011   -3.720321    2.809146    6.890111
  37 C     6.0000    0    12.011   -4.765746    7.076857   -0.153843
  38 C     6.0000    0    12.011    3.844933    3.082276    6.009388
  39 C     6.0000    0    12.011    4.218444    6.282877   -0.045880
  40 C     6.0000    0    12.011   -4.016710   -6.141826    0.124517
  41 C     6.0000    0    12.011   -3.634726   -2.338107   -6.604333
  42 C     6.0000    0    12.011    4.362315   -6.898616    0.179854
  43 C     6.0000    0    12.011    3.546309   -2.363552   -7.154034
  44 C     6.0000    0    12.011    1.090068   -4.256139    6.828201
  45 C     6.0000    0    12.011    7.745369    0.188768   -1.515161
  46 C     6.0000    0    12.011   -7.605251   -0.206768    0.891659
  47 C     6.0000    0    12.011   -0.812379    5.289668   -6.690907
  48 H     1.0000    0     1.008   -4.637933   -3.028805   -8.253330
  49 H     1.0000    0     1.008    5.394265   -8.677867    0.306819
  50 H     1.0000    0     1.008    4.926205    3.733964    7.627631
  51 H     1.0000    0     1.008   -5.968873    8.750927   -0.099721
  52 H     1.0000    0     1.008    4.450622   -2.965280   -8.910526
  53 H     1.0000    0     1.008   -0.993949    6.674363   -8.205584
  54 H     1.0000    0     1.008    5.772794    7.591780    0.240637
  55 H     1.0000    0     1.008    9.779306    0.234118   -1.781043
  56 H     1.0000    0     1.008   -5.281801   -7.756297    0.039003
  57 H     1.0000    0     1.008   -9.653155   -0.306650    1.008255
  58 H     1.0000    0     1.008   -4.666540    3.423731    8.617890
  59 H     1.0000    0     1.008    1.355882   -5.385345    8.531630
  60 Al   13.0000    0    26.982    6.224118   13.063499   -0.473350
  61 Al   13.0000    0    26.982    5.589261   10.591383    5.261688
  62 H     1.0000    0     1.008    2.450169   10.904742    5.237938
  63 H     1.0000    0     1.008    6.584655    7.744037    5.244050
  64 H     1.0000    0     1.008    6.220225   11.872085    2.448035
  65 H     1.0000    0     1.008    8.196353   11.489566   -2.125960
  66 H     1.0000    0     1.008    3.316956   12.469573   -1.542553
  67 H     1.0000    0     1.008    6.841055   12.176846    7.500490
  68 Al   13.0000    0    26.982   -0.484551   11.744081    4.437207
  69 H     1.0000    0     1.008   -0.431302   11.657768    1.281401
  70 H     1.0000    0     1.008   -2.480538    9.806544    5.602691
  71 H     1.0000    0     1.008    6.848841   16.013940   -0.460205
  72 Al   13.0000    0    26.982    0.295426   11.599460   -1.791044
  73 H     1.0000    0     1.008    0.093222    8.798479   -2.888352
  74 H     1.0000    0     1.008   -1.447007   13.493075   -3.361677
  75 H     1.0000    0     1.008   -1.040359   14.560643    5.357471
* core charge reduced due to ECP

--------------------------------
INTERNAL COORDINATES (ANGSTROEM)
--------------------------------
 Zr     0   0   0     0.000000000000     0.00000000     0.00000000
 Zr     1   0   0     5.227841299396     0.00000000     0.00000000
 Zr     2   1   0     3.431108430336    49.41530462     0.00000000
 Zr     1   2   3     3.427533128184    49.29273554   178.09751440
 Zr     2   1   3     3.367882108829    49.33582417   261.75391111
 Zr     1   2   3     3.378671995674    49.00905794   279.10184727
 O      1   2   3     2.077688427016    44.97565893   226.59713251
 O      3   2   1     2.067064489907    34.55232028   292.33029716
 O      3   2   1     2.154498283110    37.73012840    75.75081115
 O      4   1   2     2.150791577620    37.53739723   284.04419813
 O      4   1   2     2.057097653301    86.64605649   341.55559221
 O      6   1   2     2.090886064987    37.50629809    63.09872140
 O      1   2   3     1.991158790520   120.54757723   264.06016391
 O      1   2   3     1.985211801126   120.33934047   166.16107701
 O      1   2   3     2.067169979820   109.15732117   354.47069958
 O      1   2   3     1.998041079473   103.52733755    72.95831676
 O      2   1   3     1.990127637807   101.95324577   108.31363352
 O      2   1   3     2.080630172360   108.13214913   187.55072329
 O      2   1   3     1.976530965035   121.95521085    16.69841611
 O      2   1   3     1.996668876352   120.26555685   275.95126508
 O      3   2   1     1.971120628506   120.00144480   106.00793990
 O      3   2   1     2.066939478840   149.54719431   335.72147274
 O      3   2   1     1.973958503071    72.33521648   178.33414505
 O      3   2   1     2.079872792244    98.55203323   256.82208311
 O      4   1   2     2.060376174781   102.70726342    91.69952437
 O      4   1   2     1.975228740985    72.61455897   169.24236552
 O      4   1   2     2.061147294737   156.14166124     3.76290483
 O      4   1   2     1.978315944136   110.46856072   245.81135795
 O      5   2   1     1.972312995223   131.33788538   258.36330335
 O      5   2   1     1.997881799608   139.37453346    49.27048747
 O      5   2   1     1.992765920582    71.20280526   196.90669860
 O      5   2   1     2.079789935952    91.58970063   117.00409829
 O      6   1   2     2.069128574016    93.50278439   248.44702152
 O      6   1   2     1.988065615807    71.83445196   168.13685164
 O      6   1   2     2.013360069410   146.45955375   315.25540772
 O      6   1   2     1.983317552575   126.20203214   103.57801040
 C     13   1   2     1.301135188302   126.40383723    42.07751565
 C     14   1   2     1.300637313428   128.68639928    37.83811462
 C     15   1   2     1.297371782582   130.93346377    26.11669524
 C     30   5   2     1.294927461317   141.72289257   296.30815085
 C     35   6   1     1.295073268644   138.61222463    48.10619714
 C     18   2   1     1.296833965560   135.75849977   343.08877361
 C     19   2   1     1.299440437986   129.44551551   329.77493098
 C     20   2   1     1.302684255044   124.87319230   314.19448679
 C     36   6   1     1.299583831728   129.65672733   329.62876077
 C     32   5   2     1.297930664409   130.21307845   285.81213654
 C     33   6   1     1.298179529291   129.39164988    75.10040762
 C     29   5   2     1.299084139388   130.01761754    37.78737335
 H     42  18   2     1.084836225133   114.98232879   193.34842618
 H     43  19   2     1.090512399905   116.17246877   193.87174480
 H     39  15   1     1.086110116178   115.07513977   164.76614471
 H     38  14   1     1.091306023642   116.35361589   157.11862248
 H     44  20   2     1.092865975600   116.74544754   203.45155970
 H     48  29   5     1.090232935309   116.15883845   188.21686937
 H     40  30   5     1.085951567160   115.25776235   181.42743701
 H     46  32   5     1.085735850523   114.99601125   198.93925442
 H     41  35   6     1.086333019017   115.55412653   177.98350198
 H     47  33   6     1.086745230702   115.07829285   162.65834720
 H     37  13   1     1.091986963822   116.59543276   158.66405898
 H     45  36   6     1.090597461862   116.25684083   164.31334689
 Al    55  40  30     2.929806116144   132.38366351   109.33493672
 Al    55  40  30     3.096580643397   115.02366723   190.02676514
 H     62  55  40     1.669439421217    94.33939278   323.18641318
 H     62  55  40     1.596195176796    60.04974393    79.59711440
 H     61  55  40     1.669549765428    60.48057432   109.97971633
 H     61  55  40     1.596159695378    66.93699441   239.00208781
 H     61  55  40     1.669009584059    77.43617599   355.73064485
 H     62  55  40     1.595705227104   153.32321906   157.36244434
 Al    63  62  55     1.669907925459   162.49441430   294.49868610
 H     69  63  62     1.670842720093   103.33579619    37.58280017
[...]
Pressure            ...     1.00 atm
Total Mass          ...  1303.54 AMU
Quasi RRHO          ...     True
Cut-Off Frequency   ...     1.00 cm^-1

Throughout the following assumptions are being made:
  (1) The electronic state is orbitally nondegenerate
  (2) There are no thermally accessible electronically excited states
  (3) Hindered rotations indicated by low frequency modes are not
      treated as such but are treated as vibrations and this may
      cause some error
  (4) All equations used are the standard statistical mechanics
      equations for an ideal gas
  (5) All vibrations are strictly harmonic

freq.      11.12  E(vib)   ...       0.58 
freq.      17.51  E(vib)   ...       0.57 
freq.      19.16  E(vib)   ...       0.57 
freq.      26.81  E(vib)   ...       0.55 
freq.      29.55  E(vib)   ...       0.55 
freq.      37.08  E(vib)   ...       0.54 
freq.      41.75  E(vib)   ...       0.53 
freq.      42.64  E(vib)   ...       0.53 
freq.      51.85  E(vib)   ...       0.52 
freq.      56.35  E(vib)   ...       0.52 
freq.      67.56  E(vib)   ...       0.50 
freq.      78.24  E(vib)   ...       0.49 
freq.      79.68  E(vib)   ...       0.49 
freq.      81.95  E(vib)   ...       0.48 
freq.      93.95  E(vib)   ...       0.47 
freq.      95.39  E(vib)   ...       0.47 
freq.      97.91  E(vib)   ...       0.46 
freq.      99.59  E(vib)   ...       0.46 
freq.     104.75  E(vib)   ...       0.46 
freq.     105.65  E(vib)   ...       0.45 
freq.     107.86  E(vib)   ...       0.45 
freq.     109.34  E(vib)   ...       0.45 
freq.     116.16  E(vib)   ...       0.44 
freq.     119.69  E(vib)   ...       0.44 
freq.     123.47  E(vib)   ...       0.43 
freq.     127.74  E(vib)   ...       0.43 
freq.     141.79  E(vib)   ...       0.41 
freq.     149.26  E(vib)   ...       0.40 
freq.     151.56  E(vib)   ...       0.40 
freq.     152.43  E(vib)   ...       0.40 
freq.     152.99  E(vib)   ...       0.40 
freq.     154.79  E(vib)   ...       0.40 
freq.     157.80  E(vib)   ...       0.40 
freq.     160.67  E(vib)   ...       0.39 
freq.     161.78  E(vib)   ...       0.39 
freq.     163.29  E(vib)   ...       0.39 
freq.     165.41  E(vib)   ...       0.39 
freq.     166.11  E(vib)   ...       0.39 
freq.     168.90  E(vib)   ...       0.38 
freq.     170.08  E(vib)   ...       0.38 
freq.     173.16  E(vib)   ...       0.38 
freq.     186.33  E(vib)   ...       0.37 
freq.     186.76  E(vib)   ...       0.37 
freq.     188.62  E(vib)   ...       0.36 
freq.     192.64  E(vib)   ...       0.36 
freq.     193.38  E(vib)   ...       0.36 
freq.     195.55  E(vib)   ...       0.36 
freq.     203.68  E(vib)   ...       0.35 
freq.     207.00  E(vib)   ...       0.35 
freq.     213.39  E(vib)   ...       0.34 
freq.     214.31  E(vib)   ...       0.34 
freq.     229.15  E(vib)   ...       0.32 
freq.     230.45  E(vib)   ...       0.32 
freq.     235.33  E(vib)   ...       0.32 
freq.     236.61  E(vib)   ...       0.32 
freq.     243.70  E(vib)   ...       0.31 
freq.     249.43  E(vib)   ...       0.31 
freq.     257.44  E(vib)   ...       0.30 
freq.     260.36  E(vib)   ...       0.30 
freq.     261.52  E(vib)   ...       0.30 
freq.     263.33  E(vib)   ...       0.29 
freq.     264.87  E(vib)   ...       0.29 
freq.     264.96  E(vib)   ...       0.29 
freq.     265.73  E(vib)   ...       0.29 
freq.     268.76  E(vib)   ...       0.29 
freq.     271.14  E(vib)   ...       0.29 
freq.     272.92  E(vib)   ...       0.29 
freq.     275.00  E(vib)   ...       0.28 
freq.     277.06  E(vib)   ...       0.28 
freq.     277.69  E(vib)   ...       0.28 
freq.     280.42  E(vib)   ...       0.28 
freq.     282.23  E(vib)   ...       0.28 
freq.     289.17  E(vib)   ...       0.27 
freq.     290.77  E(vib)   ...       0.27 
freq.     291.15  E(vib)   ...       0.27 
freq.     293.62  E(vib)   ...       0.27 
freq.     294.39  E(vib)   ...       0.27 
freq.     299.72  E(vib)   ...       0.26 
freq.     302.36  E(vib)   ...       0.26 
freq.     303.73  E(vib)   ...       0.26 
freq.     304.43  E(vib)   ...       0.26 
freq.     308.59  E(vib)   ...       0.26 
freq.     310.19  E(vib)   ...       0.26 
freq.     312.59  E(vib)   ...       0.25 
freq.     315.78  E(vib)   ...       0.25 
freq.     316.10  E(vib)   ...       0.25 
freq.     321.03  E(vib)   ...       0.25 
freq.     322.93  E(vib)   ...       0.25 
freq.     327.12  E(vib)   ...       0.24 
freq.     340.12  E(vib)   ...       0.23 
freq.     340.77  E(vib)   ...       0.23 
freq.     350.57  E(vib)   ...       0.23 
freq.     352.84  E(vib)   ...       0.22 
freq.     360.65  E(vib)   ...       0.22 
freq.     368.36  E(vib)   ...       0.21 
freq.     384.14  E(vib)   ...       0.20 
freq.     389.76  E(vib)   ...       0.20 
freq.     394.34  E(vib)   ...       0.20 
freq.     398.85  E(vib)   ...       0.19 
freq.     400.24  E(vib)   ...       0.19 
freq.     401.94  E(vib)   ...       0.19 
freq.     414.79  E(vib)   ...       0.19 
freq.     416.54  E(vib)   ...       0.18 
freq.     417.68  E(vib)   ...       0.18 
freq.     420.48  E(vib)   ...       0.18 
freq.     421.68  E(vib)   ...       0.18 
freq.     427.77  E(vib)   ...       0.18 
freq.     446.47  E(vib)   ...       0.17 
freq.     470.25  E(vib)   ...       0.16 
freq.     477.44  E(vib)   ...       0.15 
freq.     478.68  E(vib)   ...       0.15 
freq.     493.76  E(vib)   ...       0.14 
freq.     508.43  E(vib)   ...       0.14 
freq.     525.83  E(vib)   ...       0.13 
freq.     530.06  E(vib)   ...       0.13 
freq.     541.41  E(vib)   ...       0.12 
freq.     618.94  E(vib)   ...       0.09 
freq.     660.13  E(vib)   ...       0.08 
freq.     667.09  E(vib)   ...       0.08 
freq.     669.25  E(vib)   ...       0.08 
freq.     674.65  E(vib)   ...       0.08 
freq.     680.06  E(vib)   ...       0.08 
freq.     683.57  E(vib)   ...       0.07 
freq.     687.04  E(vib)   ...       0.07 
freq.     694.59  E(vib)   ...       0.07 
freq.     697.82  E(vib)   ...       0.07 
freq.     703.92  E(vib)   ...       0.07 
freq.     711.63  E(vib)   ...       0.07 
freq.     722.98  E(vib)   ...       0.07 
freq.     727.89  E(vib)   ...       0.06 
freq.     734.21  E(vib)   ...       0.06 
freq.     734.55  E(vib)   ...       0.06 
freq.     735.48  E(vib)   ...       0.06 
freq.     735.95  E(vib)   ...       0.06 
freq.     736.54  E(vib)   ...       0.06 
freq.     738.74  E(vib)   ...       0.06 
freq.     739.02  E(vib)   ...       0.06 
freq.     739.30  E(vib)   ...       0.06 
freq.     739.50  E(vib)   ...       0.06 
freq.     740.10  E(vib)   ...       0.06 
freq.     741.24  E(vib)   ...       0.06 
freq.     742.50  E(vib)   ...       0.06 
freq.     743.33  E(vib)   ...       0.06 
freq.     760.41  E(vib)   ...       0.06 
freq.     786.82  E(vib)   ...       0.05 
freq.     986.35  E(vib)   ...       0.02 
freq.     996.70  E(vib)   ...       0.02 
freq.     999.22  E(vib)   ...       0.02 
freq.    1000.58  E(vib)   ...       0.02 
freq.    1000.82  E(vib)   ...       0.02 
freq.    1002.36  E(vib)   ...       0.02 
freq.    1004.78  E(vib)   ...       0.02 
freq.    1004.95  E(vib)   ...       0.02 
freq.    1005.58  E(vib)   ...       0.02 
freq.    1005.77  E(vib)   ...       0.02 
freq.    1006.56  E(vib)   ...       0.02 
freq.    1006.96  E(vib)   ...       0.02 
freq.    1350.25  E(vib)   ...       0.01 
freq.    1352.34  E(vib)   ...       0.01 
freq.    1353.90  E(vib)   ...       0.01 
freq.    1354.27  E(vib)   ...       0.01 
freq.    1354.40  E(vib)   ...       0.01 
freq.    1354.77  E(vib)   ...       0.01 
freq.    1355.55  E(vib)   ...       0.01 
freq.    1356.24  E(vib)   ...       0.01 
freq.    1356.81  E(vib)   ...       0.01 
freq.    1357.59  E(vib)   ...       0.01 
freq.    1357.76  E(vib)   ...       0.01 
freq.    1358.06  E(vib)   ...       0.01 
freq.    1360.11  E(vib)   ...       0.01 
freq.    1361.36  E(vib)   ...       0.01 
freq.    1361.48  E(vib)   ...       0.01 
freq.    1363.26  E(vib)   ...       0.01 
freq.    1365.51  E(vib)   ...       0.01 
freq.    1366.31  E(vib)   ...       0.01 
freq.    1368.30  E(vib)   ...       0.01 
freq.    1369.58  E(vib)   ...       0.01 
freq.    1372.33  E(vib)   ...       0.01 
freq.    1373.69  E(vib)   ...       0.01 
freq.    1377.59  E(vib)   ...       0.01 
freq.    1383.91  E(vib)   ...       0.00 
freq.    1540.37  E(vib)   ...       0.00 
freq.    1548.20  E(vib)   ...       0.00 
freq.    1565.00  E(vib)   ...       0.00 
freq.    1568.32  E(vib)   ...       0.00 
freq.    1571.37  E(vib)   ...       0.00 
freq.    1578.13  E(vib)   ...       0.00 
freq.    1580.34  E(vib)   ...       0.00 
freq.    1631.85  E(vib)   ...       0.00 
freq.    1634.64  E(vib)   ...       0.00 
freq.    1638.37  E(vib)   ...       0.00 
freq.    1640.56  E(vib)   ...       0.00 
freq.    1642.00  E(vib)   ...       0.00 
freq.    1832.72  E(vib)   ...       0.00 
freq.    1858.79  E(vib)   ...       0.00 
freq.    1862.94  E(vib)   ...       0.00 
freq.    1865.69  E(vib)   ...       0.00 
freq.    1879.57  E(vib)   ...       0.00 
freq.    1893.03  E(vib)   ...       0.00 
freq.    1900.46  E(vib)   ...       0.00 
freq.    1907.04  E(vib)   ...       0.00 
freq.    1927.68  E(vib)   ...       0.00 
freq.    1961.37  E(vib)   ...       0.00 
freq.    1963.16  E(vib)   ...       0.00 
freq.    1994.41  E(vib)   ...       0.00 
freq.    2885.07  E(vib)   ...       0.00 
freq.    2885.37  E(vib)   ...       0.00 
freq.    2887.58  E(vib)   ...       0.00 
freq.    2889.58  E(vib)   ...       0.00 
freq.    2892.69  E(vib)   ...       0.00 
freq.    2893.98  E(vib)   ...       0.00 
freq.    2899.48  E(vib)   ...       0.00 
freq.    2904.02  E(vib)   ...       0.00 
freq.    2905.54  E(vib)   ...       0.00 
freq.    2906.40  E(vib)   ...       0.00 
freq.    2907.61  E(vib)   ...       0.00 
freq.    2908.93  E(vib)   ...       0.00 

------------
INNER ENERGY
------------

The inner energy is: U= E(el) + E(ZPE) + E(vib) + E(rot) + E(trans)
    E(el)   - is the total energy from the electronic structure calculation
              = E(kin-el) + E(nuc-el) + E(el-el) + E(nuc-nuc)
    E(ZPE)  - the the zero temperature vibrational energy from the frequency calculation
    E(vib)  - the the finite temperature correction to E(ZPE) due to population
              of excited vibrational states
    E(rot)  - is the rotational thermal energy
    E(trans)- is the translational thermal energy

Summary of contributions to the inner energy U:
Electronic energy                ...  -3976.49954176 Eh
Zero point energy                ...      0.38880466 Eh     243.98 kcal/mol
Thermal vibrational correction   ...      0.06408545 Eh      40.21 kcal/mol
Thermal rotational correction    ...      0.00141627 Eh       0.89 kcal/mol
Thermal translational correction ...      0.00141627 Eh       0.89 kcal/mol
-----------------------------------------------------------------------
Total thermal energy                  -3976.04381910 Eh


Summary of corrections to the electronic energy:
(perhaps to be used in another calculation)
Total thermal correction                  0.06691800 Eh      41.99 kcal/mol
Non-thermal (ZPE) correction              0.38880466 Eh     243.98 kcal/mol
-----------------------------------------------------------------------
Total correction                          0.45572266 Eh     285.97 kcal/mol


--------
ENTHALPY
--------

The enthalpy is H = U + kB*T
                kB is Boltzmann's constant
Total thermal energy              ...  -3976.04381910 Eh 
Thermal Enthalpy correction       ...      0.00094421 Eh       0.59 kcal/mol
-----------------------------------------------------------------------
Total Enthalpy                    ...  -3976.04287489 Eh


Note: Only C1 symmetry has been detected, increase convergence thresholds 
      if your molecule has a higher symmetry. Symmetry factor of 1.0 is   
      used for the rotational entropy correction. 
 

Note: Rotational entropy computed according to Herzberg 
Infrared and Raman Spectra, Chapter V,1, Van Nostrand Reinhold, 1945 
Point Group:  C1, Symmetry Number:   1  
Rotational constants in cm-1:     0.001707     0.001106     0.001089 

Vibrational entropy computed according to the QRRHO of S. Grimme
Chem.Eur.J. 2012 18 9955 using a reference frequency of 100.0 cm-1


-------
ENTROPY
-------

The entropy contributions are T*S = T*(S(el)+S(vib)+S(rot)+S(trans))
     S(el)   - electronic entropy
     S(vib)  - vibrational entropy
     S(rot)  - rotational entropy
     S(trans)- translational entropy
The entropies will be listed as multiplied by the temperature to get
units of energy

Electronic entropy                ...      0.00000000 Eh      0.00 kcal/mol
Vibrational entropy               ...      0.11584593 Eh     72.69 kcal/mol
Rotational entropy                ...      0.01895353 Eh     11.89 kcal/mol
Translational entropy             ...      0.02250776 Eh     14.12 kcal/mol
-----------------------------------------------------------------------
Final entropy term                ...      0.15730722 Eh     98.71 kcal/mol

In case the symmetry of your molecule has not been determined correctly
or in case you have a reason to use a different symmetry number we print 
out the resulting rotational entropy values for sn=1,12:

 non-linear molecules -----------------------------------
|  sn= 1 | S(rot)=       0.01895353 Eh     11.89 kcal/mol|
|  sn= 2 | S(rot)=       0.01829907 Eh     11.48 kcal/mol|
|  sn= 3 | S(rot)=       0.01791624 Eh     11.24 kcal/mol|
|  sn= 4 | S(rot)=       0.01764462 Eh     11.07 kcal/mol|
|  sn= 5 | S(rot)=       0.01743393 Eh     10.94 kcal/mol|
|  sn= 6 | S(rot)=       0.01726179 Eh     10.83 kcal/mol|
|  sn= 7 | S(rot)=       0.01711624 Eh     10.74 kcal/mol|
|  sn= 8 | S(rot)=       0.01699016 Eh     10.66 kcal/mol|
|  sn= 9 | S(rot)=       0.01687895 Eh     10.59 kcal/mol|
|  sn=10 | S(rot)=       0.01677947 Eh     10.53 kcal/mol|
|  sn=11 | S(rot)=       0.01668948 Eh     10.47 kcal/mol|
|  sn=12 | S(rot)=       0.01660733 Eh     10.42 kcal/mol|
 linear molecules ---------------------------------------
|  Dinfh | S(rot)=       0.01176710 Eh      7.38 kcal/mol|
|  Cinfv | S(rot)=       0.01242155 Eh      7.79 kcal/mol|
 --------------------------------------------------------


-------------------
GIBBS FREE ENERGY
-------------------

The Gibbs free energy is G = H - T*S

Total enthalpy                    ...  -3976.04287489 Eh 
Total entropy correction          ...     -0.15730722 Eh    -98.71 kcal/mol
-----------------------------------------------------------------------
Final Gibbs free energy         ...  -3976.20018212 Eh

For completeness - the Gibbs free energy minus the electronic energy
G-E(el)                           ...      0.29935965 Eh    187.85 kcal/mol


Maximum memory used throughout the entire PROP-calculation: 150.9 MB

--------------------------------
SUGGESTED CITATIONS FOR THIS RUN
--------------------------------

Below you find a list of papers that are relevant to this ORCA run
We neither can nor want to force you to cite these papers, but we appreciate if you do
You receive ORCA, which is the product of decades of hard work by many enthusiastic individuals, for free
The only thing we kindly ask in return is that you cite our papers,
We deeply appreciate it, if you show your appreciation for ORCA by not just citing the generic ORCA reference.

Please note that relegating all ORCA citations to the supporting information does *not* help us.
SI sections are not indexed - citations you put there will not count into any citation statistics
But we need these citations in order to attract the funding resources that allow us to do what we are doing

Therefore, if you are a happy ORCA user, please consider citing a few of the papers listed below in the main body of your paper

In addition to the list printed below, the program has created the file run.bibtex that contains the list in bibtex format
You can import this file easily into all common literature databanks and citation aid programs


List of essential papers. We consider these as the minimum necessary citations

  1. Neese, F.
     Software update: the ORCA program system, version 6.0
     WIRES Comput. Molec. Sci. 2025 15(1), e70019
     doi.org/10.1002/wcms.7019

List of papers to cite with high priority. The work reported in these papers was absolutely
necessary for this run to complete.
Our perspective: the developers of density functionals and basis sets usually get cited in chemistry papers
Good! But without the algorithms to do something with them, the functionals or basis sets would not do anything.
Hence, in our opinion, the algorithm design and method developments papers are equally worthy of getting cited

  1. Neese, F.
     An improvement of the resolution of the identity approximation for the formation of the Coulomb matrix
     J. Comp. Chem. 2003 24(14), 1740-1747
     doi.org/10.1002/jcc.10318
  2. Grimme, S.; Antony, J.; Ehrlich, S.; Krieg, H.
     A consistent and accurate ab initio parametrization of density functional dispersion correction (DFT-D) for the 94 elements H-Pu
     J. Chem. Phys. 2010 132 , 154104
     doi.org/10.1063/1.3382344
  3. Grimme, S.; Ehrlich, S.; Goerigk, L.
     Effect of the damping function in dispersion corrected density functional theory
     J. Comput. Chem. 2011 32(7), 1456-1465
     doi.org/10.1002/jcc.21759
  4. Bykov, D.; Petrenko, T.; Izsak, R.; Kossmann, S.; Becker, U.; Valeev, E.; Neese, F.
     Efficient implementation of the analytic second derivatives of Hartree-Fock and hybrid DFT energies: a detailed analysis of different approximations
     Molec. Phys. 2015 113 , 1961-1977
     doi.org/10.1080/00268976.2015.1025114
  5. Helmich-Paris, B.
     A trust-region augmented Hessian implementation for restricted and unrestricted Hartree–Fock and Kohn–Sham methods
     J. Chem. Phys. 2021 154 , 164104
     doi.org/10.1063/5.0040798
  6. Neese, F.
     The SHARK Integral Generation and Digestion System
     J. Comp. Chem. 2022 44(3), 381
     doi.org/10.1002/jcc.26942

List of suggested additional citations. These are papers that are important in the 'surrounding' of 
of this run, or papers that preceded the highly important papers. If you like your results we are grateful for a citation.

  1. Neese, F.
     The ORCA program system
     WIRES Comput. Molec. Sci. 2012 2(1), 73-78
     doi.org/10.1002/wcms.81
  2. Neese, F.
     Software update: the ORCA program system, version 4.0
     WIRES Comput. Molec. Sci. 2018 8(1), 1-6
     doi.org/10.1002/wcms.1327
  3. Neese, F.; Wennmohs, F.; Becker, U.; Riplinger, C.
     The ORCA quantum chemistry program package
     J. Chem. Phys. 2020 152(22), 224108
     doi.org/10.1063/5.0004608
  4. Neese, F.
     Software update: The ORCA program system—Version 5.0
     WIRES Comput. Molec. Sci. 2022 12(1), e1606
     doi.org/10.1002/wcms.1606

List of optional additional citations

  1. Neese, F.
     Approximate second-order SCF convergence for spin unrestricted wavefunctions
     Chem. Phys. Lett. 2000 325(1-3), 93-98
     doi.org/10.1016/s0009-2614(00)00662-x

Timings for individual modules:

Sum of individual times          ...    10351.648 sec (= 172.527 min)
Startup calculation              ...      458.508 sec (=   7.642 min)   4.4 %
SCF iterations                   ...     3018.686 sec (=  50.311 min)  29.2 %
Property integrals               ...     2278.471 sec (=  37.975 min)  22.0 %
SCF Response                     ...     1484.324 sec (=  24.739 min)  14.3 %
Property calculations            ...     1989.567 sec (=  33.159 min)  19.2 %
SCF Gradient evaluation          ...     1108.389 sec (=  18.473 min)  10.7 %
Geometry relaxation              ...       13.702 sec (=   0.228 min)   0.1 %
                             ****ORCA TERMINATED NORMALLY****
TOTAL RUN TIME: 0 days 2 hours 53 minutes 1 seconds 180 msec
