
                                 *****************
                                 * O   R   C   A *
                                 *****************

                                            #,                                       
                                            ###                                      
                                            ####                                     
                                            #####                                    
                                            ######                                   
                                           ########,                                 
                                     ,,################,,,,,                         
                               ,,#################################,,                 
                          ,,##########################################,,             
                       ,#########################################, ''#####,          
                    ,#############################################,,   '####,        
                  ,##################################################,,,,####,       
                ,###########''''           ''''###############################       
              ,#####''   ,,,,##########,,,,          '''####'''          '####       
            ,##' ,,,,###########################,,,                        '##       
           ' ,,###''''                  '''############,,,                           
         ,,##''                                '''############,,,,        ,,,,,,###''
      ,#''                                            '''#######################'''  
     '                                                          ''''####''''         
             ,#######,   #######,   ,#######,      ##                                
            ,#'     '#,  ##    ##  ,#'     '#,    #''#        ,####,    ,#,          
            ##       ##  ##   ,#'  ##            #'  '#       #'       ,# #          
            ##       ##  #######   ##           ,######,      #####,      #          
            '#,     ,#'  ##    ##  '#,     ,#' ,#      #,     #,   #      #          
             '#######'   ##     ##  '#######'  #'      '#     '####' #    #          



                #########################################################
                #                        -***-                          #
                #          Department of theory and spectroscopy        #
                #                                                       #
                #                      Frank Neese                      #
                #                                                       #
                #     Directorship, Architecture, Infrastructure        #
                #                    SHARK, DRIVERS                     #
                #        Core code/Algorithms in most modules           #
                #                                                       #
                #        Max Planck Institute fuer Kohlenforschung      #
                #                Kaiser Wilhelm Platz 1                 #
                #                 D-45470 Muelheim/Ruhr                 #
                #                      Germany                          #
                #                                                       #
                #                  All rights reserved                  #
                #                        -***-                          #
                #########################################################


                         Program Version 6.1.0  -  RELEASE   -
                                (GIT: $679e74b$)
                          ($2025-06-10 18:02:51 +0200$)


 With contributions from (in alphabetic order):
[Max-Planck-Institut fuer Kohlenforschung]                               
  Daniel Aravena         : Magnetic Suceptibility                        
  Michael Atanasov       : Ab Initio Ligand Field Theory (pilot matlab implementation)
  Alexander A. Auer      : GIAO ZORA, VPT2 properties, NMR spectrum      
  Ute Becker             : All parallelization in ORCA, NUMFREQ, NUMCALC 
  Giovanni Bistoni       : ED, misc. LED, open-shell LED, HFLD           
  Dmytro Bykov           : pre 5.0 version of the SCF Hessian            
  Marcos Casanova-Páez   : Triplet and SCS-CIS(D). UHF-(DLPNO)-IP/EA/STEOM-CCSD. UHF-CVS-IP/STEOM-CCSD   
  Vijay G. Chilkuri      : MRCI spin determinant printing, contributions to CSF-ICE 
  Pauline Colinet        : FMM embedding                                 
  Dipayan Datta          : RHF DLPNO-CCSD density                        
  Achintya Kumar Dutta   : EOM-CC, STEOM-CC                              
  Nicolas Foglia         : Exact transition moments, OPA infrastructure, MCD improvements    
  Dmitry Ganyushin       : Spin-Orbit,Spin-Spin,Magnetic field MRCI      
  Miquel Garcia-Rates    : C-PCM and meta-GGA Hessian, CCSD/C-PCM, Gaussian charge scheme 
  Tiago L. C. Gouveia    : GS-ROHF, GS-ROCIS                             
  Yang Guo               : DLPNO-NEVPT2, F12-NEVPT2, CIM, IAO-localization        
  Andreas Hansen         : Spin unrestricted coupled pair/coupled cluster methods 
  Ingolf Harden          : AUTO-CI MPn and infrastructure                
  Benjamin Helmich-Paris : MC-RPA, TRAH-(SCF,CASSCF), AVAS, COSX integrals, SCF dyn. polar., MC-PDFT, srDFT 
  Lee Huntington         : MR-EOM, pCC                                   
  Robert Izsak           : Overlap fitted RIJCOSX, COSX-SCS-MP3, EOM     
  Riya Kayal             : Wick's Theorem for AUTO-CI, AUTO-CI UHF-CCSDT 
  Emily Kempfer          : AUTO-CI RHF CISDT and CCSDT, approximate NEVPT4
  Christian Kollmar      : KDIIS, OOCD, Brueckner-CCSD(T), CCSD density, CASPT2, CASPT2-K, improved NEVPT2 
  Axel Koslowski         : Symmetry handling                             
  Simone Kossmann        : meta-GGA functionals, TD-DFT gradient, OOMP2, (MP2 Hessian; deprecated post 5.0) 
  Lucas Lang             : DCDCAS, Hyperfine gauge corrections, ICE-SOC+SSC
  Marvin Lechner         : AUTO-CI (C++ implementation), FIC-MRCC        
  Spencer Leger          : CASSCF response                               
  Dagmar Lenk            : GEPOL surface, SMD, ORCA-2-JSON               
  Dimitrios Liakos       : Extrapolation schemes; Compound Job, Property file
  Dimitrios Manganas     : Further ROCIS development; embedding schemes. LFT, Crystal Embedding 
  Dimitrios Pantazis     : SARC Basis sets                               
  Anastasios Papadopoulos: AUTO-CI, single reference methods and gradients 
  Taras Petrenko         : pre 6.0 DFT Hessian and TD-DFT gradient,  ECA, NRVS 
  Petra Pikulova         : Analytic Raman intensities                    
  Peter Pinski           : DLPNO-MP2, DLPNO-MP2 Gradient                 
  Shashank Vittal Rao    : ES-AILFT, MagRelax                            
  Christoph Reimann      : Effective Core Potentials                     
  Marius Retegan         : Local ZFS, SOC                                
  Christoph Riplinger    : Optimizer, TS searches, QM/MM, DLPNO-CCSD(T), (RO)-DLPNO pert. Triples 
  Michael Roemelt        : Original ROCIS implementation, recursive CI coupling coefficients
  Masaaki Saitow         : Open-shell DLPNO-CCSD energy and density      
  Barbara Sandhoefer     : DKH picture change effects                    
  Yorick L. A. Schmerwitz: GMF and freeze-and-release deltaSCF, NEB S-IDPP initial path                    
  Kantharuban Sivalingam : CASSCF convergence/infrastructure, NEVPT2, NEVPT3, NEVPT4(SD), FIC-MRCI and CEPA variants
  Bernardo de Souza      : ESD, SOC TD-DFT                               
  Georgi L. Stoychev     : AutoAux, RI-MP2 NMR, DLPNO-MP2 response, X2C  
  Van Anh Tran           : RI-MP2 g-tensors                              
  Willem Van den Heuvel  : Paramagnetic NMR                              
  Zikuan Wang            : NOTCH, Electric field optimization            
  Frank Wennmohs         : Technical directorship and infrastructure     
  Hang Xu                : AUTO-CI-Response properties                   
                                                                         
[FACCTs GmbH]                                                            
  Markus Bursch, Nicolas Foglia, Miquel Garcia-Rates, Ingolf Harden, Hagen Neugebauer, Anastasios Papadopoulos, 
  Christoph Riplinger, Bernardo de Souza, Georgi L. Stoychev                                                    
                                                                 
  APM, various basis sets, CI-OPT, improved COSX, DLPNO-Multilevel,           
  DOCKER, DRACO, updates on ESD, Fragmentator, GOAT, IRC, LR-CPCM, L-BFGS, MBIS, meta-GGA TD-DFT gradient, ML-optimized integration grids, 
  MM, NACMEs, nearIR, NEB, NEB-TS, NL-DFT gradient (VV10), 2- and 3-layer-ONIOM, interface openCOSMO-RS, QMMM,   
  Crystal-QMMM, RESP, rigid body optimization, SF, symmetry and pop. for TD-DFT, various functionals, SOLVATOR                                   
                                                                         
[Other institutions]                                                     
  V. Asgeirsson          : NEB                                           
  Christoph Bannwarth    : sTDA-DFT, sTD-DFT, PBEh-3c, B97-3c, D3        
  Giovanni Bistoni       : ETS/NOCV, ADLD/ADEX, COVALED                  
  Martin Brehm           : Molecular dynamics                            
  Ronald Cardenas        : ETS/NOCV                                      
  Martina Colucci        : COVALED                                       
  Sebastian Ehlert       : rSCAN, r2SCAN, r2SCAN-3c, D4, dhf basis sets  
  Marvin Friede          : D4 for Fr, Ra, Ac-Lr                          
  Lars Goerigk           : TD-DFT with DH, B97 family of functionals     
  Stefan Grimme          : VdW corrections, initial TS optimization, DFT functionals, gCP, sTDA/sTD-DF 
  Waldemar Hujo          : DFT-NL                                        
  H. Jonsson             : NEB                                           
  Holger Kruse           : gCP                                           
  Marcel Mueller         : wB97X-3c, vDZP basis set                      
  Hagen Neugebauer       : wr2SCAN, Native XTB                           
  Gianluca Regni         : ADLD/ADEX                                     
  Tobias Risthaus        : pre 6.0 range-separated hybrid DFT and stability analysis
  Lukas Wittmann         : regularized MP2, r2SCAN double-hybrids, wr2SCAN        
                                                                         
We gratefully acknowledge several colleagues who have allowed us to      
interface, adapt or use parts of their codes:                            
  Ed Valeev, F. Pavosevic, A. Kumar             : LibInt (2-el integral package), F12 methods 
  Garnet Chan, S. Sharma, J. Yang, R. Olivares  : DMRG                   
  Ulf Ekstrom                                   : XCFun DFT Library      
  Mihaly Kallay                                 : mrcc  (arbitrary order and MRCC methods)
  Frank Weinhold                                : gennbo (NPA and NBO analysis)           
  Simon Mueller                                 : openCOSMO-RS                            
  Christopher J. Cramer and Donald G. Truhlar   : smd solvation model                     
  S Lehtola, MJT Oliveira, MAL Marques          : LibXC Library                           
  Liviu Ungur et al                             : ANISO software                          


 Your calculation uses the libint2 library for the computation of 2-el integrals
 For citations please refer to: http://libint.valeyev.net

 Your ORCA version has been built with support for libXC version: 7.0.0
 For citations please refer to: https://libxc.gitlab.io

 This ORCA versions uses:
   CBLAS   interface :  Fast vector & matrix operations
   LAPACKE interface :  Fast linear algebra routines
   SCALAPACK package :  Parallel linear algebra routines
   Shared memory     :  Shared parallel matrices
   BLAS/LAPACK       :  OpenBLAS 0.3.29  USE64BITINT DYNAMIC_ARCH NO_AFFINITY Bulldozer SINGLE_THREADED
        Core in use  :  Bulldozer
   Copyright (c) 2011-2014, The OpenBLAS Project


  ***********************************
  * Starting time: Fri Aug  8 17:18:43 2025
  * Host name:     chromium03
  * Process ID:    117079
  * Working dir.:  /local/scratch/mehlhorn/61802
  ***********************************



***************************************
The coordinates will be read from file: start.xyz
***************************************


Your calculation utilizes the geometrical counterpoise correction gCP
Please cite in your paper:
H.Kruse, S. Grimme J.Chem.Phys., 136, (2012), 154101 
   

Your calculation utilizes the atom-pairwise dispersion correction
with the Becke-Johnson damping scheme (D3BJ)


Warning: RI is on but no J-basis has been assigned. Assigning Def2/J (nothing to worry about!)
================================================================================

cite the ECPs for Zr [Def2-ECP] as follows:
Ce-Yb(ecp-28): M. Dolg, H. Stoll, H.Preuss, J. Chem. Phys., 1989, 90, 1730-1734.
Y-Cd(ecp-28), Hf-Hg(ecp-46): D. Andrae,U. Haeussermann, M. Dolg, H. Stoll, H. Preuss, Theor. Chim. Acta, 1990, 77, 123-141.
In-Sb(ecp-28), Tl-Bi(ecp-46): B. Metz, H. Stoll, M. Dolg, J. Chem. Phys., 2000, 113, 2563-2569.
Te-Xe(ecp-28), Po-Rn(ecp-46): K. A. Peterson, D. Figgen, E. Goll, H. Stoll, M. Dolg, J. Chem. Phys., 2003, 119, 11113-11123.
Rb(ecp-28), Cs(ecp-46): T. Leininger, A. Nicklass, W. Kuechle, H. Stoll, M. Dolg, A. Bergner, Chem. Phys. Lett., 1996, 255, 274-280.
Sr(ecp-28), Ba(ecp-46): M. Kaupp, P. V. Schleyer, H. Stoll and H. Preuss, J. Chem. Phys., 1991, 94, 1360-1366.
La(ecp-46): M. Dolg, H. Stoll, A. Savin, H. Preuss, Theor. Chim. Acta, 1989, 75, 173-194.
Lu(ecp-28): X. Cao, M. Dolg, J. Chem. Phys., 2001, 115, 7348-7355.

ECP parameters for Zr [Def2-ECP] have been obtained from:
TURBOMOLE (7.0.2)

----- Orbital basis set information -----
Your calculation utilizes the basis: def2-SV(P)
   F. Weigend and R. Ahlrichs, Phys. Chem. Chem. Phys. 7, 3297 (2005).

----- AuxJ basis set information -----
Your calculation utilizes the auxiliary basis: def2/J
   H-Rn: F. Weigend, Phys. Chem. Chem. Phys. 8, 1057 (2006).
   Fr-Lr: K. Eichkorn, F. Weigend, O. Treutler, R. Ahlrichs; Theor. Chem. Acc. 97, 119 (1997).

================================================================================
                                        WARNINGS
                       Please study these warnings very carefully!
================================================================================


WARNING: Gradients are needed
  ===> : At least TightSCF should be used for SCF convergence

WARNING: Geometry Optimization
  ===> : Switching off AutoStart
         For restart on a previous wavefunction, please use MOREAD

================================================================================
                                       INPUT FILE
================================================================================
NAME = run.inp
|  1> # Geometry optimization for (AlH3)n cluster
|  2> 
|  3> %pal nprocs 24  end
|  4> 
|  5> %geom MaxIter 500 end
|  6> 
|  7> 
|  8> ! PBE def2-SV(P)
|  9> ! RKS	# closed shell for AlH3
| 10> ! D3    #  dispersion correction
| 11> ! gCP(DFT/SV(P))
| 12> ! Freq 	# Frequency analysis to check the stabiltity of the structures
| 13> 
| 14> ! NoPop # population analysis not necessary	
| 15> 
| 16> ! DEFGRID2
| 17> ! NormalSCF
| 18> ! SloppyOpt
| 19> 
| 20> ! SmallPrint
| 21> 
| 22> 
| 23> * xyzFile 0 1 start.xyz # only maingroup elements H and Al so there should be no net spin
| 24> 
| 25>                          ****END OF INPUT****
================================================================================

                       *****************************
                       * Geometry Optimization Run *
                       *****************************

Geometry optimization settings:
Update method            Update   .... BFGS
Choice of coordinates    CoordSys .... (2022) Redundant Internals
Initial Hessian          InHess   .... Almloef's Model
Max. no of cycles        MaxIter  .... 500

Convergence Tolerances:
Energy Change            TolE     ....  8.0000e-05 Eh
Max. Gradient            TolMAXG  ....  5.0000e-03 Eh/bohr
RMS Gradient             TolRMSG  ....  1.0000e-03 Eh/bohr
Max. Displacement        TolMAXD  ....  3.0000e-02 bohr
RMS Displacement         TolRMSD  ....  2.0000e-02 bohr
Strict Convergence                .... False

------------------------------------------------------------------------------
                        ORCA OPTIMIZATION COORDINATE SETUP
------------------------------------------------------------------------------

The optimization will be done in redundant internal coordinates (2022)
Making redundant internal coordinates   ...  (2022 redundants) done
Evaluating the initial hessian          ...  (Almloef) done
Evaluating the coordinates              ...  done
Calculating the B-matrix                .... done
Calculating the G-matrix                .... done
The number of degrees of freedom        ....  712

    -----------------------------------------------------------------
                    Redundant Internal Coordinates


    -----------------------------------------------------------------
         Definition                    Initial Value    Approx d2E/dq
    -----------------------------------------------------------------
      1. B(Zr  2,Zr  1)                  3.4243         0.036344   
      2. B(Zr  3,Zr  0)                  3.4141         0.037724   
      3. B(Zr  4,Zr  1)                  3.4239         0.036392   
      4. B(Zr  4,Zr  3)                  3.4137         0.037787   
      5. B(Zr  5,Zr  0)                  3.4240         0.036382   
      6. B(Zr  5,Zr  2)                  3.4212         0.036753   
      7. B(O   6,Zr  0)                  2.0965         0.422422   
      8. B(O   6,Zr  3)                  2.1381         0.362593   
      9. B(O   6,Zr  5)                  2.1282         0.376017   
     10. B(O   7,Zr  1)                  2.0988         0.418899   
     11. B(O   7,Zr  2)                  2.1448         0.353863   
     12. B(O   7,Zr  4)                  2.1335         0.368739   
     13. B(O   8,Zr  5)                  2.1467         0.351409   
     14. B(O   8,Zr  2)                  2.0997         0.417510   
     15. B(O   8,Zr  1)                  2.1319         0.370972   
     16. B(O   9,Zr  4)                  2.1429         0.356234   
     17. B(O   9,Zr  3)                  2.0942         0.426065   
     18. B(O   9,Zr  0)                  2.1289         0.375067   
     19. B(O  10,Zr  3)                  2.1232         0.383026   
     20. B(O  10,Zr  4)                  2.0972         0.421456   
     21. B(O  10,Zr  1)                  2.1410         0.358832   
     22. B(O  11,Zr  0)                  2.1458         0.352547   
     23. B(O  11,Zr  2)                  2.1285         0.375579   
     24. B(O  11,Zr  5)                  2.0986         0.419271   
     25. B(O  12,Zr  0)                  1.9675         0.678652   
     26. B(O  13,Zr  0)                  1.9800         0.648088   
     27. B(O  14,Zr  0)                  2.0704         0.464941   
     28. B(O  15,Zr  0)                  2.0370         0.525661   
     29. B(O  16,Zr  1)                  2.0368         0.526160   
     30. B(O  17,Zr  1)                  2.0746         0.457952   
     31. B(O  18,Zr  1)                  1.9776         0.654007   
     32. B(O  19,Zr  1)                  1.9680         0.677277   
     33. B(O  20,Zr  2)                  1.9774         0.654325   
     34. B(O  21,Zr  2)                  2.0396         0.520722   
     35. B(O  22,Zr  2)                  1.9688         0.675445   
     36. B(O  23,Zr  2)                  2.0717         0.462809   
     37. B(O  24,Zr  3)                  2.0736         0.459503   
     38. B(O  25,Zr  3)                  1.9689         0.675196   
     39. B(O  26,Zr  3)                  2.0400         0.519993   
     40. B(O  27,Zr  3)                  1.9759         0.658039   
     41. B(O  28,Zr  4)                  1.9701         0.672221   
     42. B(O  29,Zr  4)                  2.0710         0.463977   
     43. B(O  30,Zr  4)                  1.9764         0.656866   
     44. B(O  31,Zr  4)                  2.0375         0.524756   
     45. B(O  32,Zr  5)                  2.0412         0.517677   
     46. B(O  33,Zr  5)                  1.9761         0.657576   
     47. B(O  34,Zr  5)                  2.0687         0.467974   
     48. B(O  35,Zr  5)                  1.9685         0.676213   
     49. B(C  36,O  12)                  1.2981         0.784468   
     50. B(C  36,O  33)                  1.2982         0.784047   
     51. B(C  37,O  25)                  1.2979         0.784983   
     52. B(C  37,O  13)                  1.2984         0.783338   
     53. B(C  38,O  21)                  1.2970         0.787469   
     54. B(C  38,O  14)                  1.2991         0.781329   
     55. B(C  39,O  29)                  1.2990         0.781622   
     56. B(C  39,O  15)                  1.2969         0.787764   
     57. B(C  40,O  34)                  1.2990         0.781619   
     58. B(C  40,O  16)                  1.2969         0.787727   
     59. B(C  41,O  26)                  1.2968         0.788013   
     60. B(C  41,O  17)                  1.2992         0.781255   
     61. B(C  42,O  22)                  1.2980         0.784482   
     62. B(C  42,O  18)                  1.2982         0.783954   
     63. B(C  43,O  19)                  1.2980         0.784567   
     64. B(C  43,O  30)                  1.2982         0.784145   
     65. B(C  44,O  35)                  1.2981         0.784416   
     66. B(C  44,O  20)                  1.2983         0.783872   
     67. B(C  45,O  31)                  1.2970         0.787425   
     68. B(C  45,O  23)                  1.2992         0.781100   
     69. B(C  46,O  32)                  1.2973         0.786696   
     70. B(C  46,O  24)                  1.2995         0.780212   
     71. B(C  47,O  28)                  1.2982         0.783997   
     72. B(C  47,O  27)                  1.2980         0.784519   
     73. B(H  48,C  41)                  1.0868         0.364408   
     74. B(H  49,C  42)                  1.0898         0.360309   
     75. B(H  50,C  38)                  1.0867         0.364514   
     76. B(H  51,C  37)                  1.0899         0.360253   
     77. B(H  52,C  43)                  1.0898         0.360301   
     78. B(H  53,C  47)                  1.0898         0.360300   
     79. B(H  54,C  39)                  1.0867         0.364545   
     80. B(H  55,C  45)                  1.0868         0.364396   
     81. B(H  56,C  40)                  1.0868         0.364415   
     82. B(H  57,C  46)                  1.0870         0.364131   
     83. B(H  58,C  36)                  1.0899         0.360280   
     84. B(H  59,C  44)                  1.0899         0.360285   
     85. B(Al 61,Al 60)                  2.6313         0.320945   
     86. B(H  62,O  27)                  3.0944         0.010000   
     87. B(H  62,Zr  3)                  2.9872         0.010000   
     88. B(H  62,O  25)                  2.8618         0.010000   
     89. B(H  62,O  24)                  2.7683         0.010000   
     90. B(H  62,O  26)                  2.5158         0.010000   
     91. B(H  62,Al 61)                  1.6718         0.297749   
     92. B(H  62,Al 60)                  1.6718         0.297750   
     93. B(H  63,O  24)                  3.1640         0.010000   
     94. B(H  63,H  57)                  2.7401         0.010000   
     95. B(H  63,Al 61)                  1.6043         0.381418   
     96. B(H  64,Al 61)                  1.6750         0.294268   
     97. B(H  64,Al 60)                  1.6737         0.295581   
     98. B(H  65,Al 60)                  1.6048         0.380806   
     99. B(H  66,H  51)                  3.1560         0.010000   
    100. B(H  66,O  25)                  2.8977         0.010000   
    101. B(H  66,Al 60)                  1.6050         0.380562   
    102. B(H  67,O  26)                  3.2283         0.010000   
    103. B(H  67,H  48)                  2.8920         0.010000   
    104. B(H  67,Al 61)                  1.6046         0.381030   
    105. A(Zr  3,Zr  0,O   6)           36.6854         0.336784   
    106. A(Zr  3,Zr  0,O  15)           98.4938         0.349355   
    107. A(O  14,Zr  0,O  15)           74.7624         0.499597   
    108. A(Zr  3,Zr  0,O   9)           35.7152         0.330205   
    109. A(O  13,Zr  0,O  15)           82.5247         0.531652   
    110. A(O   6,Zr  0,O  13)           82.3737         0.510279   
    111. A(Zr  5,Zr  0,O  14)          104.1995         0.340153   
    112. A(O   6,Zr  0,O  12)           94.9639         0.514696   
    113. A(O   6,Zr  0,O   9)           67.4590         0.461228   
    114. A(Zr  3,Zr  0,Zr  5)           70.1258         0.248253   
    115. A(Zr  3,Zr  0,O  12)          127.1582         0.364852   
    116. A(Zr  3,Zr  0,O  11)           90.7535         0.326848   
    117. A(Zr  5,Zr  0,O  13)          109.0298         0.359760   
    118. A(O  11,Zr  0,O  12)           82.4055         0.497625   
    119. A(Zr  5,Zr  0,O   6)           36.1713         0.334760   
    120. A(Zr  5,Zr  0,O  11)           35.7597         0.324905   
    121. A(O   9,Zr  0,O  12)          162.2969         0.503392   
    122. A(O   6,Zr  0,O  15)          135.1790         0.490781   
    123. A(Zr  5,Zr  0,O   9)           90.9713         0.328235   
    124. A(Zr  3,Zr  0,O  13)           72.9145         0.361990   
    125. A(O  13,Zr  0,O  14)          137.8995         0.519523   
    126. A(O   6,Zr  0,O  14)          137.7718         0.479772   
    127. A(Zr  5,Zr  0,O  15)          159.4339         0.347229   
    128. A(O   9,Zr  0,O  15)           71.2099         0.480112   
    129. A(O   9,Zr  0,O  14)          112.7074         0.469396   
    130. A(O  12,Zr  0,O  13)           83.1377         0.558000   
    131. A(O   9,Zr  0,O  13)           92.0587         0.499093   
    132. A(O  12,Zr  0,O  14)           81.4274         0.524037   
    133. A(O  11,Zr  0,O  13)          144.6089         0.493385   
    134. A(Zr  3,Zr  0,O  14)          144.5488         0.342221   
    135. A(O  11,Zr  0,O  15)          131.7570         0.474669   
    136. A(O   6,Zr  0,O  11)           66.9578         0.456047   
    137. A(O   9,Zr  0,O  11)           92.0389         0.446301   
    138. A(O  11,Zr  0,O  14)           70.8703         0.464102   
    139. A(Zr  5,Zr  0,O  12)           74.6893         0.362599   
    140. A(O  12,Zr  0,O  15)          124.6077         0.536293   
    141. A(Zr  4,Zr  1,O  19)           74.6776         0.362490   
    142. A(O  10,Zr  1,O  19)           82.3789         0.499074   
    143. A(O   7,Zr  1,O  17)          137.9263         0.477697   
    144. A(Zr  2,Zr  1,O  10)           91.0104         0.325794   
    145. A(O  10,Zr  1,O  17)           70.8841         0.464316   
    146. A(Zr  4,Zr  1,O  10)           35.6807         0.325865   
    147. A(O   8,Zr  1,O  10)           92.3214         0.446843   
    148. A(O   7,Zr  1,O  16)          135.2673         0.490106   
    149. A(Zr  2,Zr  1,O  16)           98.6085         0.347223   
    150. A(Zr  2,Zr  1,O   8)           35.6663         0.327584   
    151. A(Zr  2,Zr  1,O   7)           36.6593         0.334237   
    152. A(O   8,Zr  1,O  18)           91.8390         0.498918   
    153. A(O  18,Zr  1,O  19)           83.1041         0.558750   
    154. A(Zr  2,Zr  1,O  17)          145.0570         0.339234   
    155. A(O   8,Zr  1,O  16)           71.2130         0.479226   
    156. A(Zr  4,Zr  1,O   8)           91.0765         0.327655   
    157. A(O  10,Zr  1,O  18)          144.8501         0.495842   
    158. A(O   7,Zr  1,O  10)           67.0861         0.456820   
    159. A(O  16,Zr  1,O  17)           74.6023         0.498280   
    160. A(Zr  4,Zr  1,O   7)           36.3463         0.334309   
    161. A(O  16,Zr  1,O  18)           82.6340         0.532659   
    162. A(O  17,Zr  1,O  19)           81.1795         0.522349   
    163. A(Zr  2,Zr  1,O  19)          127.0220         0.362408   
    164. A(Zr  2,Zr  1,Zr  4)           70.3047         0.246924   
    165. A(O  17,Zr  1,O  18)          137.4942         0.518934   
    166. A(O  10,Zr  1,O  16)          131.4642         0.476298   
    167. A(O   7,Zr  1,O  19)           94.9675         0.513695   
    168. A(Zr  4,Zr  1,O  18)          109.3627         0.360334   
    169. A(Zr  4,Zr  1,O  17)          104.0836         0.339309   
    170. A(Zr  2,Zr  1,O  18)           72.8544         0.360254   
    171. A(O   7,Zr  1,O   8)           67.3649         0.459601   
    172. A(O   8,Zr  1,O  17)          113.2530         0.467153   
    173. A(O  16,Zr  1,O  19)          124.6389         0.536184   
    174. A(O   7,Zr  1,O  18)           82.5411         0.510347   
    175. A(Zr  4,Zr  1,O  16)          159.2659         0.347299   
    176. A(O   8,Zr  1,O  19)          162.1686         0.502174   
    177. A(Zr  1,Zr  2,O  20)          108.7469         0.360283   
    178. A(O   8,Zr  2,O  20)           82.3975         0.510077   
    179. A(O   7,Zr  2,O  22)           81.8592         0.497532   
    180. A(Zr  5,Zr  2,O   8)           36.7919         0.334673   
    181. A(O   8,Zr  2,O  21)          134.9688         0.488863   
    182. A(O   8,Zr  2,O  22)           95.5960         0.513115   
    183. A(O  11,Zr  2,O  20)           92.2959         0.500110   
    184. A(Zr  5,Zr  2,O  22)          127.7771         0.362933   
    185. A(Zr  5,Zr  2,O  23)          144.4427         0.340468   
    186. A(O  20,Zr  2,O  22)           83.0124         0.558514   
    187. A(O   7,Zr  2,O  20)          144.2220         0.494605   
    188. A(Zr  5,Zr  2,O   7)           91.4271         0.325646   
    189. A(Zr  1,Zr  2,O  22)           74.8074         0.362241   
    190. A(Zr  1,Zr  2,O  21)          159.7544         0.346616   
    191. A(O   8,Zr  2,O  11)           67.4007         0.460358   
    192. A(O   8,Zr  2,O  23)          137.9492         0.478334   
    193. A(O  11,Zr  2,O  23)          112.4229         0.469118   
    194. A(Zr  5,Zr  2,O  11)           35.6739         0.328858   
    195. A(Zr  1,Zr  2,O  23)          104.4812         0.339833   
    196. A(O   7,Zr  2,O  23)           70.9509         0.464028   
    197. A(O  22,Zr  2,O  23)           81.2950         0.523119   
    198. A(O   7,Zr  2,O   8)           67.1131         0.455386   
    199. A(Zr  1,Zr  2,O   7)           35.7515         0.325048   
    200. A(Zr  1,Zr  2,O   8)           36.2988         0.334052   
    201. A(O  11,Zr  2,O  21)           71.0839         0.479398   
    202. A(O   7,Zr  2,O  11)           92.7568         0.446713   
    203. A(O  21,Zr  2,O  22)          124.2015         0.534860   
    204. A(Zr  5,Zr  2,O  21)           98.1769         0.347269   
    205. A(Zr  1,Zr  2,O  11)           91.3016         0.328252   
    206. A(O  21,Zr  2,O  23)           74.5904         0.498295   
    207. A(O  11,Zr  2,O  22)          162.8718         0.503076   
    208. A(O  20,Zr  2,O  21)           82.5874         0.531666   
    209. A(Zr  1,Zr  2,Zr  5)           70.5155         0.247278   
    210. A(Zr  5,Zr  2,O  20)           72.9253         0.360971   
    211. A(O  20,Zr  2,O  23)          137.7813         0.520009   
    212. A(O   7,Zr  2,O  21)          132.2851         0.474171   
    213. A(Zr  4,Zr  3,O  24)          144.4131         0.341642   
    214. A(O  25,Zr  3,O  27)           82.8311         0.559076   
    215. A(O   9,Zr  3,O  10)           67.6015         0.463729   
    216. A(Zr  4,Zr  3,O  10)           35.7595         0.331444   
    217. A(Zr  0,Zr  3,O  10)           91.7619         0.331354   
    218. A(O  24,Zr  3,O  25)           80.8527         0.522379   
    219. A(O  10,Zr  3,O  25)          163.7061         0.504886   
    220. A(O  25,Zr  3,O  26)          123.2656         0.534682   
    221. A(Zr  0,Zr  3,O  27)          108.5920         0.362933   
    222. A(O  24,Zr  3,O  26)           74.5824         0.497502   
    223. A(O  26,Zr  3,O  27)           82.2115         0.532093   
    224. A(O   9,Zr  3,O  27)           82.5246         0.512557   
    225. A(Zr  4,Zr  3,O  27)           73.3248         0.363035   
    226. A(O  26,Zr  3,H  62)           56.3387         0.211966   
    227. A(Zr  0,Zr  3,O  25)           75.0370         0.364533   
    228. A(O  27,Zr  3,H  62)           74.0087         0.218697   
    229. A(O  10,Zr  3,H  62)          126.9007         0.203746   
    230. A(O  10,Zr  3,O  26)           71.1929         0.481013   
    231. A(O   9,Zr  3,O  26)          135.0559         0.490576   
    232. A(Zr  0,Zr  3,H  62)          141.3328         0.165021   
    233. A(O   6,Zr  3,O  26)          133.0243         0.476179   
    234. A(O  24,Zr  3,O  27)          137.3441         0.519862   
    235. A(O  25,Zr  3,H  62)           66.9271         0.219455   
    236. A(O   6,Zr  3,O  27)          144.0777         0.497371   
    237. A(O  10,Zr  3,O  24)          112.2773         0.470192   
    238. A(Zr  4,Zr  3,O   6)           91.7716         0.328455   
    239. A(O  10,Zr  3,O  27)           92.6547         0.502470   
    240. A(O   6,Zr  3,O  25)           81.5687         0.499757   
    241. A(O   6,Zr  3,H  62)          127.3232         0.202331   
    242. A(Zr  4,Zr  3,H  62)          140.8945         0.165050   
    243. A(Zr  4,Zr  3,O   9)           36.8138         0.337359   
    244. A(O   9,Zr  3,O  25)           96.2309         0.515031   
    245. A(Zr  4,Zr  3,O  26)           98.2462         0.348814   
    246. A(O  24,Zr  3,H  62)           63.3355         0.208572   
    247. A(Zr  0,Zr  3,O  26)          160.5534         0.348717   
    248. A(O   6,Zr  3,O  24)           71.0427         0.465491   
    249. A(O   9,Zr  3,H  62)          152.3717         0.206545   
    250. A(O   6,Zr  3,O  10)           93.3742         0.450294   
    251. A(Zr  4,Zr  3,O  25)          128.4762         0.364636   
    252. A(Zr  0,Zr  3,Zr  4)           70.6846         0.249625   
    253. A(Zr  0,Zr  3,O   9)           36.4008         0.337266   
    254. A(O   6,Zr  3,O   9)           67.3306         0.459108   
    255. A(Zr  0,Zr  3,O  24)          104.7619         0.341548   
    256. A(Zr  0,Zr  3,O   6)           35.8599         0.328365   
    257. A(O   9,Zr  3,O  24)          138.2264         0.479491   
    258. A(Zr  1,Zr  4,Zr  3)           70.1288         0.248322   
    259. A(O   9,Zr  4,O  10)           67.1852         0.456722   
    260. A(O   7,Zr  4,O  10)           67.2513         0.459605   
    261. A(Zr  3,Zr  4,O  10)           36.2733         0.336748   
    262. A(O  28,Zr  4,O  30)           83.0271         0.558417   
    263. A(O  29,Zr  4,O  31)           74.6773         0.499245   
    264. A(O  30,Zr  4,O  31)           82.6700         0.532829   
    265. A(O   7,Zr  4,O  31)           71.0824         0.478457   
    266. A(O  28,Zr  4,O  31)          124.7801         0.535156   
    267. A(O  10,Zr  4,O  31)          134.8999         0.490416   
    268. A(O   9,Zr  4,O  31)          131.6611         0.475428   
    269. A(Zr  3,Zr  4,O  31)          159.2363         0.349351   
    270. A(Zr  1,Zr  4,O  31)           98.3554         0.347143   
    271. A(O  29,Zr  4,O  30)          137.5428         0.520634   
    272. A(O  10,Zr  4,O  30)           82.4313         0.511344   
    273. A(O   9,Zr  4,O  30)          144.6398         0.495575   
    274. A(O   7,Zr  4,O  30)           92.2001         0.498762   
    275. A(Zr  3,Zr  4,O  30)          109.0243         0.362925   
    276. A(Zr  1,Zr  4,O  30)           73.0397         0.360602   
    277. A(O  28,Zr  4,O  29)           81.2689         0.522897   
    278. A(O  10,Zr  4,O  29)          138.0471         0.479386   
    279. A(O   9,Zr  4,O  29)           70.9271         0.464810   
    280. A(O   7,Zr  4,O  29)          112.9057         0.467756   
    281. A(Zr  3,Zr  4,O  29)          104.3914         0.342197   
    282. A(Zr  1,Zr  4,O  29)          144.7771         0.340050   
    283. A(O   7,Zr  4,O   9)           92.2625         0.445767   
    284. A(Zr  3,Zr  4,O  28)           74.7042         0.364361   
    285. A(Zr  1,Zr  4,O  10)           36.5444         0.334647   
    286. A(Zr  3,Zr  4,O   9)           35.8448         0.327498   
    287. A(Zr  1,Zr  4,O   9)           91.0062         0.325475   
    288. A(O   9,Zr  4,O  28)           82.1776         0.497707   
    289. A(Zr  1,Zr  4,O   7)           35.6632         0.327329   
    290. A(O  10,Zr  4,O  28)           95.1470         0.513559   
    291. A(Zr  1,Zr  4,O  28)          127.1996         0.362026   
    292. A(O   7,Zr  4,O  28)          162.2765         0.500911   
    293. A(Zr  3,Zr  4,O   7)           90.9201         0.329367   
    294. A(O  34,Zr  5,O  35)           81.3643         0.524323   
    295. A(O  33,Zr  5,O  35)           83.1509         0.559162   
    296. A(O  32,Zr  5,O  35)          124.3090         0.534383   
    297. A(O   8,Zr  5,O  35)           81.9388         0.496994   
    298. A(O   6,Zr  5,O  35)          162.9279         0.503292   
    299. A(Zr  2,Zr  5,O  35)           74.8475         0.363004   
    300. A(Zr  0,Zr  5,O  35)          128.0144         0.362376   
    301. A(O  33,Zr  5,O  34)          137.9762         0.521578   
    302. A(O  32,Zr  5,O  34)           74.6217         0.498780   
    303. A(O  11,Zr  5,O  34)          137.9981         0.479685   
    304. A(O   6,Zr  5,O  34)          112.1399         0.470174   
    305. A(Zr  2,Zr  5,O  34)          104.6748         0.341101   
    306. A(Zr  0,Zr  5,O  34)          144.0588         0.340523   
    307. A(O  11,Zr  5,O  33)           82.2505         0.510951   
    308. A(O   8,Zr  5,O  33)          144.1256         0.494421   
    309. A(O   6,Zr  5,O  33)           92.4036         0.500680   
    310. A(Zr  0,Zr  5,O  33)           73.0343         0.360652   
    311. A(O  11,Zr  5,O  32)          134.6845         0.488713   
    312. A(O   8,Zr  5,O  32)          132.2838         0.473054   
    313. A(O   6,Zr  5,O  32)           71.0350         0.478983   
    314. A(Zr  2,Zr  5,O  32)          159.6832         0.346927   
    315. A(Zr  0,Zr  5,O  32)           97.9923         0.346336   
    316. A(Zr  2,Zr  5,O   6)           91.1238         0.328921   
    317. A(Zr  0,Zr  5,O   6)           35.5502         0.328372   
    318. A(Zr  2,Zr  5,O  33)          108.5146         0.361276   
    319. A(Zr  0,Zr  5,Zr  2)           70.3548         0.247315   
    320. A(O  11,Zr  5,O  35)           95.7762         0.513629   
    321. A(O   8,Zr  5,O  11)           67.0885         0.455158   
    322. A(O  32,Zr  5,O  33)           82.5996         0.531575   
    323. A(O   6,Zr  5,O  11)           67.2436         0.460810   
    324. A(Zr  2,Zr  5,O  11)           36.2632         0.334907   
    325. A(Zr  0,Zr  5,O  11)           36.6930         0.334344   
    326. A(O   8,Zr  5,O  34)           71.0401         0.464380   
    327. A(O   6,Zr  5,O   8)           92.4214         0.446244   
    328. A(Zr  2,Zr  5,O   8)           35.8610         0.325274   
    329. A(Zr  0,Zr  5,O   8)           91.1389         0.324733   
    330. A(Zr  3,O   6,Zr  5)          134.0784         0.448787   
    331. A(Zr  0,O   6,Zr  5)          108.2785         0.461441   
    332. A(Zr  0,O   6,Zr  3)          107.4547         0.458389   
    333. A(Zr  2,O   7,Zr  4)          134.3209         0.445228   
    334. A(Zr  1,O   7,Zr  4)          107.9905         0.459095   
    335. A(Zr  1,O   7,Zr  2)          107.5892         0.455661   
    336. A(Zr  1,O   8,Zr  2)          108.0349         0.459322   
    337. A(Zr  2,O   8,Zr  5)          107.3470         0.454809   
    338. A(Zr  1,O   8,Zr  5)          134.9118         0.445154   
    339. A(Zr  3,O   9,Zr  4)          107.3414         0.457629   
    340. A(Zr  0,O   9,Zr  4)          135.2057         0.447144   
    341. A(Zr  0,O   9,Zr  3)          107.8840         0.461952   
    342. A(Zr  3,O  10,Zr  4)          107.9672         0.462807   
    343. A(Zr  1,O  10,Zr  4)          107.7749         0.457327   
    344. A(Zr  1,O  10,Zr  3)          134.2067         0.449442   
    345. A(Zr  2,O  11,Zr  5)          108.0630         0.460712   
    346. A(Zr  0,O  11,Zr  5)          107.5473         0.455426   
    347. A(Zr  0,O  11,Zr  2)          134.6263         0.446411   
    348. A(Zr  0,O  12,C  36)          131.3266         0.512001   
    349. A(Zr  0,O  13,C  37)          133.4258         0.507476   
    350. A(Zr  0,O  14,C  38)          140.2372         0.476947   
    351. A(Zr  0,O  15,C  39)          129.4115         0.488617   
    352. A(Zr  1,O  16,C  40)          129.1992         0.488698   
    353. A(Zr  1,O  17,C  41)          140.0622         0.475611   
    354. A(Zr  1,O  18,C  42)          133.5349         0.508412   
    355. A(Zr  1,O  19,C  43)          131.3272         0.511819   
    356. A(Zr  2,O  20,C  44)          133.4848         0.508449   
    357. A(Zr  2,O  21,C  38)          129.0698         0.487730   
    358. A(Zr  2,O  22,C  42)          131.0285         0.511550   
    359. A(Zr  2,O  23,C  45)          140.0072         0.476518   
    360. A(H  62,O  24,H  63)           48.3843         0.097283   
    361. A(C  46,O  24,H  63)           87.0360         0.136381   
    362. A(Zr  3,O  24,H  63)          120.3355         0.137660   
    363. A(C  46,O  24,H  62)          134.4136         0.154838   
    364. A(Zr  3,O  24,H  62)           74.6442         0.156614   
    365. A(Zr  3,O  24,C  46)          139.2050         0.475790   
    366. A(Zr  3,O  25,C  37)          130.8154         0.511576   
    367. A(H  62,O  25,H  66)           50.6622         0.098563   
    368. A(C  37,O  25,H  66)          105.9078         0.148207   
    369. A(Zr  3,O  25,H  66)          122.0525         0.155247   
    370. A(C  37,O  25,H  62)          155.3407         0.149999   
    371. A(Zr  3,O  25,H  62)           73.8047         0.157252   
    372. A(Zr  3,O  26,C  41)          128.8961         0.487666   
    373. A(H  62,O  26,H  67)           48.4670         0.098685   
    374. A(C  41,O  26,H  67)           89.1281         0.134014   
    375. A(Zr  3,O  26,H  67)          128.0868         0.136434   
    376. A(C  41,O  26,H  62)          133.6609         0.170401   
    377. A(Zr  3,O  26,H  62)           81.2152         0.174777   
    378. A(C  47,O  27,H  62)          152.8507         0.139265   
    379. A(Zr  3,O  27,H  62)           68.1246         0.144923   
    380. A(Zr  3,O  27,C  47)          133.0954         0.509065   
    381. A(Zr  4,O  28,C  47)          131.2798         0.511034   
    382. A(Zr  4,O  29,C  39)          140.1495         0.476797   
    383. A(Zr  4,O  30,C  43)          133.3689         0.508850   
    384. A(Zr  4,O  31,C  45)          128.9775         0.488422   
    385. A(Zr  5,O  32,C  46)          128.3561         0.487113   
    386. A(Zr  5,O  33,C  36)          133.3794         0.508941   
    387. A(Zr  5,O  34,C  40)          140.2260         0.477550   
    388. A(Zr  5,O  35,C  44)          131.0392         0.511651   
    389. A(O  12,C  36,O  33)          127.4965         0.466510   
    390. A(O  33,C  36,H  58)          116.2411         0.365052   
    391. A(O  12,C  36,H  58)          116.2622         0.365085   
    392. A(O  13,C  37,O  25)          127.4314         0.466489   
    393. A(O  25,C  37,H  51)          116.2904         0.365121   
    394. A(O  13,C  37,H  51)          116.2781         0.364990   
    395. A(O  14,C  38,O  21)          129.3543         0.466540   
    396. A(O  21,C  38,H  50)          115.3259         0.366055   
    397. A(O  14,C  38,H  50)          115.3194         0.365565   
    398. A(O  15,C  39,O  29)          129.3664         0.466604   
    399. A(O  29,C  39,H  54)          115.3193         0.365594   
    400. A(O  15,C  39,H  54)          115.3139         0.366084   
    401. A(O  16,C  40,O  34)          129.3121         0.466599   
    402. A(O  34,C  40,H  56)          115.3428         0.365571   
    403. A(O  16,C  40,H  56)          115.3447         0.366059   
    404. A(O  17,C  41,O  26)          129.3486         0.466591   
    405. A(O  26,C  41,H  48)          115.3089         0.366080   
    406. A(O  17,C  41,H  48)          115.3424         0.365541   
    407. A(O  18,C  42,O  22)          127.4772         0.466501   
    408. A(O  22,C  42,H  49)          116.2722         0.365091   
    409. A(O  18,C  42,H  49)          116.2505         0.365049   
    410. A(O  30,C  43,H  52)          116.2477         0.365063   
    411. A(O  19,C  43,H  52)          116.2678         0.365097   
    412. A(O  19,C  43,O  30)          127.4844         0.466532   
    413. A(O  35,C  44,H  59)          116.2729         0.365082   
    414. A(O  20,C  44,H  59)          116.2521         0.365038   
    415. A(O  20,C  44,O  35)          127.4749         0.466485   
    416. A(O  31,C  45,H  55)          115.3384         0.366032   
    417. A(O  23,C  45,H  55)          115.3449         0.365526   
    418. A(O  23,C  45,O  31)          129.3163         0.466510   
    419. A(O  32,C  46,H  57)          115.3217         0.365928   
    420. A(O  24,C  46,H  57)          115.4064         0.365410   
    421. A(O  24,C  46,O  32)          129.2705         0.466334   
    422. A(O  28,C  47,H  53)          116.2922         0.365051   
    423. A(O  27,C  47,H  53)          116.2545         0.365093   
    424. A(O  27,C  47,O  28)          127.4524         0.466510   
    425. A(C  41,H  48,H  67)          112.7610         0.113880   
    426. A(C  37,H  51,H  66)           98.3083         0.108923   
    427. A(C  46,H  57,H  63)          115.7171         0.117224   
    428. A(H  65,Al 60,H  66)          156.9391         0.377728   
    429. A(H  64,Al 60,H  66)          100.1108         0.361637   
    430. A(H  62,Al 60,H  66)           97.5233         0.362089   
    431. A(Al 61,Al 60,H  66)          100.6669         0.427821   
    432. A(H  64,Al 60,H  65)          101.2732         0.361677   
    433. A(H  62,Al 60,H  65)           95.8245         0.362129   
    434. A(Al 61,Al 60,H  65)          101.4465         0.427870   
    435. A(H  62,Al 60,H  64)           76.3107         0.346907   
    436. A(Al 61,Al 60,H  64)           38.2237         0.408985   
    437. A(Al 61,Al 60,H  62)           38.0942         0.409515   
    438. A(H  64,Al 61,H  67)          101.5190         0.361439   
    439. A(H  63,Al 61,H  67)          155.4641         0.377913   
    440. A(H  62,Al 61,H  67)           96.5436         0.362165   
    441. A(Al 60,Al 61,H  67)          102.0649         0.427915   
    442. A(H  63,Al 61,H  64)          101.4373         0.361501   
    443. A(H  62,Al 61,H  64)           76.2780         0.346647   
    444. A(Al 60,Al 61,H  64)           38.1910         0.408663   
    445. A(H  62,Al 61,H  63)           97.1923         0.362227   
    446. A(Al 60,Al 61,H  63)          101.2974         0.427993   
    447. A(Al 60,Al 61,H  62)           38.0942         0.409515   
    448. A(Zr  3,H  62,O  27)           37.8666         0.104520   
    449. A(O  25,H  62,O  27)           51.7880         0.097120   
    450. A(O  26,H  62,O  27)           54.9954         0.099826   
    451. A(O  27,H  62,Al 61)          164.5085         0.130578   
    452. A(O  27,H  62,Al 60)           86.3522         0.130578   
    453. A(Zr  3,H  62,O  25)           39.2682         0.107831   
    454. A(Zr  3,H  62,O  24)           42.0204         0.109353   
    455. A(Zr  3,H  62,O  26)           42.4461         0.114108   
    456. A(Zr  3,H  62,Al 61)          136.2330         0.185428   
    457. A(Zr  3,H  62,Al 60)          119.3469         0.185428   
    458. A(O  24,H  62,O  25)           55.4974         0.099648   
    459. A(O  25,H  62,O  26)           81.7142         0.102136   
    460. A(O  25,H  62,Al 61)          136.9777         0.139450   
    461. A(O  25,H  62,Al 60)           94.1875         0.139450   
    462. A(O  24,H  62,O  27)           79.8870         0.097776   
    463. A(O  24,H  62,O  26)           56.0415         0.103198   
    464. A(O  24,H  62,Al 61)           96.1444         0.143527   
    465. A(O  24,H  62,Al 60)          148.8581         0.143527   
    466. A(O  26,H  62,Al 61)          110.3921         0.156265   
    467. A(O  26,H  62,Al 60)          133.5951         0.156265   
    468. A(Al 60,H  62,Al 61)          103.8116         0.347334   
    469. A(O  24,H  63,H  57)           39.2020         0.093838   
    470. A(O  24,H  63,Al 61)           83.5780         0.130503   
    471. A(H  57,H  63,Al 61)          115.8749         0.122687   
    472. A(Al 60,H  64,Al 61)          103.5853         0.346222   
    473. A(O  25,H  66,H  51)           38.9130         0.093272   
    474. A(H  51,H  66,Al 60)          131.0849         0.112825   
    475. A(O  25,H  66,Al 60)           94.3846         0.140765   
    476. A(O  26,H  67,H  48)           37.9816         0.093042   
    477. A(O  26,H  67,Al 61)           84.7857         0.128333   
    478. A(H  48,H  67,Al 61)          114.3589         0.118684   
    479. D(O   7,Zr  2,Zr  1,Zr  4)    -17.8410         0.010000   
    480. D(Zr  5,Zr  2,Zr  1,O   7)    122.4570         0.010000   
    481. D(Zr  5,Zr  2,Zr  1,Zr  4)    104.6159         0.010000   
    482. D(O   6,Zr  3,Zr  0,Zr  5)     17.9025         0.010000   
    483. D(Zr  4,Zr  3,Zr  0,O   6)   -122.7402         0.010000   
    484. D(Zr  4,Zr  3,Zr  0,Zr  5)   -104.8377         0.010000   
    485. D(Zr  3,Zr  4,Zr  1,O   7)   -122.2047         0.010000   
    486. D(Zr  3,Zr  4,Zr  1,Zr  2)   -104.2270         0.010000   
    487. D(Zr  1,Zr  4,Zr  3,O   6)     75.3756         0.010000   
    488. D(O   7,Zr  4,Zr  1,Zr  2)     17.9777         0.010000   
    489. D(Zr  1,Zr  4,Zr  3,Zr  0)    104.9118         0.010000   
    490. D(O   7,Zr  4,Zr  3,Zr  0)     75.3485         0.010000   
    491. D(O   6,Zr  5,Zr  0,Zr  3)    -18.1291         0.010000   
    492. D(Zr  2,Zr  5,Zr  0,O   6)    122.3676         0.010000   
    493. D(Zr  0,Zr  5,Zr  2,O   7)    -75.0660         0.010000   
    494. D(Zr  2,Zr  5,Zr  0,Zr  3)    104.2385         0.010000   
    495. D(Zr  0,Zr  5,Zr  2,Zr  1)   -104.6143         0.010000   
    496. D(O   6,Zr  5,Zr  2,Zr  1)    -75.1963         0.010000   
    497. D(Zr  0,O   6,Zr  5,O   8)    -88.5700         0.010000   
    498. D(Zr  5,O   6,Zr  3,Zr  0)   -139.6524         0.010000   
    499. D(Zr  3,O   6,Zr  5,Zr  0)    139.4259         0.010000   
    500. D(Zr  0,O   6,Zr  3,Zr  4)     52.5765         0.010000   
    501. D(Zr  0,O   6,Zr  3,O   9)     24.3336         0.010000   
    502. D(Zr  3,O   6,Zr  0,O   9)    -23.8882         0.010000   
    503. D(Zr  0,O   6,Zr  5,Zr  2)    -52.7139         0.010000   
    504. D(Zr  3,O   6,Zr  0,Zr  5)   -150.6715         0.010000   
    505. D(Zr  5,O   6,Zr  0,Zr  3)    150.6715         0.010000   
    506. D(Zr  1,O   7,Zr  2,Zr  5)    -52.7232         0.010000   
    507. D(Zr  2,O   7,Zr  1,O   8)     23.9318         0.010000   
    508. D(Zr  4,O   7,Zr  1,Zr  2)   -150.8756         0.010000   
    509. D(Zr  2,O   7,Zr  1,Zr  4)    150.8756         0.010000   
    510. D(Zr  1,O   7,Zr  4,O   9)     88.5724         0.010000   
    511. D(Zr  1,O   7,Zr  4,Zr  3)     52.7376         0.010000   
    512. D(Zr  4,O   7,Zr  2,Zr  1)    139.6819         0.010000   
    513. D(Zr  2,O   7,Zr  4,Zr  1)   -139.5724         0.010000   
    514. D(Zr  1,O   7,Zr  2,O   8)    -24.3698         0.010000   
    515. D(Zr  1,O   8,Zr  5,Zr  2)   -140.3000         0.010000   
    516. D(Zr  1,O   8,Zr  5,Zr  0)    -87.2775         0.010000   
    517. D(Zr  1,O   8,Zr  2,O   7)     24.0315         0.010000   
    518. D(Zr  1,O   8,Zr  2,Zr  5)    151.5920         0.010000   
    519. D(Zr  2,O   8,Zr  5,Zr  0)     53.0225         0.010000   
    520. D(Zr  5,O   8,Zr  2,Zr  1)   -151.5920         0.010000   
    521. D(Zr  2,O   8,Zr  1,O   7)    -24.5435         0.010000   
    522. D(Zr  2,O   8,Zr  1,Zr  4)    -52.8218         0.010000   
    523. D(Zr  5,O   8,Zr  1,Zr  2)    140.1172         0.010000   
    524. D(Zr  3,O   9,Zr  0,Zr  5)     52.6974         0.010000   
    525. D(Zr  0,O   9,Zr  4,Zr  3)    140.4548         0.010000   
    526. D(Zr  3,O   9,Zr  4,Zr  1)    -52.7818         0.010000   
    527. D(Zr  4,O   9,Zr  3,Zr  0)    151.8773         0.010000   
    528. D(Zr  3,O   9,Zr  0,O   6)     24.4836         0.010000   
    529. D(Zr  0,O   9,Zr  3,Zr  4)   -151.8773         0.010000   
    530. D(Zr  0,O   9,Zr  4,Zr  1)     87.6730         0.010000   
    531. D(Zr  4,O   9,Zr  0,Zr  3)   -140.3122         0.010000   
    532. D(Zr  0,O   9,Zr  3,O   6)    -24.0010         0.010000   
    533. D(Zr  1,O  10,Zr  4,O   7)    -23.9638         0.010000   
    534. D(Zr  3,O  10,Zr  4,Zr  1)    150.8916         0.010000   
    535. D(Zr  4,O  10,Zr  3,Zr  0)    -52.4832         0.010000   
    536. D(Zr  1,O  10,Zr  3,Zr  4)    139.7414         0.010000   
    537. D(Zr  1,O  10,Zr  3,Zr  0)     87.2582         0.010000   
    538. D(Zr  1,O  10,Zr  4,Zr  3)   -150.8916         0.010000   
    539. D(Zr  4,O  10,Zr  1,Zr  2)     52.9537         0.010000   
    540. D(Zr  3,O  10,Zr  1,Zr  2)    -86.8402         0.010000   
    541. D(Zr  3,O  10,Zr  1,Zr  4)   -139.7939         0.010000   
    542. D(Zr  2,O  11,Zr  5,Zr  0)   -151.4118         0.010000   
    543. D(Zr  0,O  11,Zr  5,Zr  2)    151.4118         0.010000   
    544. D(Zr  5,O  11,Zr  2,Zr  1)     52.8605         0.010000   
    545. D(Zr  0,O  11,Zr  2,Zr  5)   -140.1291         0.010000   
    546. D(Zr  0,O  11,Zr  2,Zr  1)    -87.2686         0.010000   
    547. D(Zr  5,O  11,Zr  0,Zr  3)    -53.1268         0.010000   
    548. D(Zr  0,O  11,Zr  5,O   6)     23.9839         0.010000   
    549. D(Zr  2,O  11,Zr  0,Zr  5)    140.2671         0.010000   
    550. D(Zr  2,O  11,Zr  0,Zr  3)     87.1402         0.010000   
    551. D(C  36,O  12,Zr  0,Zr  5)     -2.7649         0.010000   
    552. D(C  36,O  12,Zr  0,Zr  3)     46.7127         0.010000   
    553. D(C  37,O  13,Zr  0,Zr  5)    -56.3408         0.010000   
    554. D(C  37,O  13,Zr  0,Zr  3)      4.8284         0.010000   
    555. D(C  38,O  14,Zr  0,Zr  5)      6.3213         0.010000   
    556. D(C  38,O  14,Zr  0,Zr  3)    -69.2474         0.010000   
    557. D(C  39,O  15,Zr  0,Zr  5)    -16.1802         0.010000   
    558. D(C  39,O  15,Zr  0,Zr  3)    -70.6983         0.010000   
    559. D(C  40,O  16,Zr  1,Zr  4)     15.5278         0.010000   
    560. D(C  40,O  16,Zr  1,Zr  2)     71.2730         0.010000   
    561. D(C  41,O  17,Zr  1,Zr  4)     -7.0541         0.010000   
    562. D(C  41,O  17,Zr  1,Zr  2)     68.6109         0.010000   
    563. D(C  42,O  18,Zr  1,Zr  4)     57.2041         0.010000   
    564. D(C  42,O  18,Zr  1,Zr  2)     -3.9631         0.010000   
    565. D(C  43,O  19,Zr  1,Zr  4)      3.1587         0.010000   
    566. D(C  43,O  19,Zr  1,Zr  2)    -46.7279         0.010000   
    567. D(C  44,O  20,Zr  2,Zr  5)      3.3255         0.010000   
    568. D(C  44,O  20,Zr  2,Zr  1)    -58.4630         0.010000   
    569. D(C  38,O  21,Zr  2,Zr  5)    -71.5709         0.010000   
    570. D(C  38,O  21,Zr  2,Zr  1)    -17.3182         0.010000   
    571. D(C  42,O  22,Zr  2,Zr  5)     44.5184         0.010000   
    572. D(C  42,O  22,Zr  2,Zr  1)     -5.1094         0.010000   
    573. D(C  45,O  23,Zr  2,Zr  5)    -71.7746         0.010000   
    574. D(C  45,O  23,Zr  2,Zr  1)      4.8638         0.010000   
    575. D(H  62,O  24,Zr  3,Zr  0)    140.4624         0.010000   
    576. D(C  46,O  24,Zr  3,Zr  4)     75.3509         0.010000   
    577. D(C  46,O  24,Zr  3,Zr  0)     -1.9658         0.010000   
    578. D(C  37,O  25,Zr  3,Zr  0)      5.5058         0.010000   
    579. D(C  37,O  25,Zr  3,Zr  4)    -43.9719         0.010000   
    580. D(H  62,O  25,Zr  3,Zr  0)   -172.8891         0.010000   
    581. D(H  62,O  26,Zr  3,Zr  0)    158.6709         0.010000   
    582. D(C  41,O  26,Zr  3,Zr  4)     71.6541         0.010000   
    583. D(C  41,O  26,Zr  3,Zr  0)     18.0544         0.010000   
    584. D(H  62,O  27,Zr  3,Zr  0)   -139.5117         0.010000   
    585. D(C  47,O  27,Zr  3,Zr  0)     60.8584         0.010000   
    586. D(C  47,O  27,Zr  3,Zr  4)     -1.4274         0.010000   
    587. D(C  47,O  28,Zr  4,Zr  3)     -3.8939         0.010000   
    588. D(C  47,O  28,Zr  4,Zr  1)     45.5652         0.010000   
    589. D(C  39,O  29,Zr  4,Zr  3)      5.7846         0.010000   
    590. D(C  39,O  29,Zr  4,Zr  1)    -70.0340         0.010000   
    591. D(C  43,O  30,Zr  4,Zr  3)    -59.2807         0.010000   
    592. D(C  43,O  30,Zr  4,Zr  1)      1.9653         0.010000   
    593. D(C  45,O  31,Zr  4,Zr  3)    -17.1778         0.010000   
    594. D(C  45,O  31,Zr  4,Zr  1)    -71.6078         0.010000   
    595. D(C  46,O  32,Zr  5,Zr  2)     18.8022         0.010000   
    596. D(C  46,O  32,Zr  5,Zr  0)     72.0361         0.010000   
    597. D(C  36,O  33,Zr  5,Zr  2)     60.4192         0.010000   
    598. D(C  36,O  33,Zr  5,Zr  0)     -1.3620         0.010000   
    599. D(C  40,O  34,Zr  5,Zr  2)     -4.9262         0.010000   
    600. D(C  40,O  34,Zr  5,Zr  0)     71.7253         0.010000   
    601. D(C  44,O  35,Zr  5,Zr  2)      4.5526         0.010000   
    602. D(C  44,O  35,Zr  5,Zr  0)    -44.6206         0.010000   
    603. D(O  12,C  36,O  33,Zr  5)     -0.0283         0.047155   
    604. D(H  58,C  36,O  12,Zr  0)   -177.0922         0.047211   
    605. D(O  33,C  36,O  12,Zr  0)      3.0769         0.047211   
    606. D(H  58,C  36,O  33,Zr  5)   -179.8593         0.047155   
    607. D(H  51,C  37,O  25,Zr  3)    175.4892         0.056959   
    608. D(O  13,C  37,O  25,H  62)    171.6590         0.056959   
    609. D(O  13,C  37,O  25,Zr  3)     -4.6444         0.056959   
    610. D(H  51,C  37,O  13,Zr  0)    176.8755         0.047060   
    611. D(O  25,C  37,O  13,Zr  0)     -2.9909         0.047060   
    612. D(H  50,C  38,O  21,Zr  2)   -160.9707         0.047615   
    613. D(O  14,C  38,O  21,Zr  2)     18.8346         0.047615   
    614. D(H  50,C  38,O  14,Zr  0)   -155.1946         0.046791   
    615. D(O  21,C  38,O  14,Zr  0)     25.0001         0.046791   
    616. D(H  54,C  39,O  29,Zr  4)   -154.7112         0.046830   
    617. D(O  15,C  39,O  29,Zr  4)     25.5097         0.046830   
    618. D(H  54,C  39,O  15,Zr  0)   -161.5993         0.047655   
    619. D(O  29,C  39,O  15,Zr  0)     18.1798         0.047655   
    620. D(H  56,C  40,O  34,Zr  5)    154.5740         0.046830   
    621. D(O  16,C  40,O  34,Zr  5)    -25.6706         0.046830   
    622. D(H  56,C  40,O  16,Zr  1)    160.7976         0.047650   
    623. D(O  34,C  40,O  16,Zr  1)    -18.9578         0.047650   
    624. D(H  48,C  41,O  26,Zr  3)    161.4747         0.057454   
    625. D(O  17,C  41,O  26,H  62)   -138.3190         0.057454   
    626. D(O  17,C  41,O  26,Zr  3)    -18.4061         0.057454   
    627. D(H  48,C  41,O  17,Zr  1)    155.3644         0.046781   
    628. D(O  26,C  41,O  17,Zr  1)    -24.7548         0.046781   
    629. D(H  49,C  42,O  22,Zr  2)   -175.4592         0.047213   
    630. D(O  18,C  42,O  22,Zr  2)      4.6837         0.047213   
    631. D(H  49,C  42,O  18,Zr  1)   -177.8228         0.047142   
    632. D(O  22,C  42,O  18,Zr  1)      2.0344         0.047142   
    633. D(H  52,C  43,O  30,Zr  4)    179.2899         0.047168   
    634. D(O  19,C  43,O  30,Zr  4)     -0.5637         0.047168   
    635. D(H  52,C  43,O  19,Zr  1)    176.9190         0.047225   
    636. D(O  30,C  43,O  19,Zr  1)     -3.2275         0.047225   
    637. D(H  59,C  44,O  35,Zr  5)    175.8423         0.047204   
    638. D(O  20,C  44,O  35,Zr  5)     -4.3130         0.047204   
    639. D(H  59,C  44,O  20,Zr  2)    178.3312         0.047131   
    640. D(O  35,C  44,O  20,Zr  2)     -1.5135         0.047131   
    641. D(H  55,C  45,O  31,Zr  4)   -161.3665         0.047610   
    642. D(O  23,C  45,O  31,Zr  4)     18.3877         0.047610   
    643. D(H  55,C  45,O  23,Zr  2)   -153.8034         0.046760   
    644. D(O  31,C  45,O  23,Zr  2)     26.4424         0.046760   
    645. D(H  57,C  46,O  32,Zr  5)    162.8253         0.047511   
    646. D(O  24,C  46,O  32,Zr  5)    -16.7193         0.047511   
    647. D(H  57,C  46,O  24,Zr  3)    150.0616         0.056186   
    648. D(O  32,C  46,O  24,H  62)   -154.9921         0.056186   
    649. D(O  32,C  46,O  24,Zr  3)    -30.3942         0.056186   
    650. D(H  53,C  47,O  28,Zr  4)   -175.6898         0.047148   
    651. D(O  27,C  47,O  28,Zr  4)      4.6704         0.047148   
    652. D(H  53,C  47,O  27,Zr  3)    179.6035         0.052225   
    653. D(O  28,C  47,O  27,H  62)   -135.6928         0.052225   
    654. D(O  28,C  47,O  27,Zr  3)     -0.7565         0.052225   
    655. D(H  67,H  48,C  41,O  26)    -24.6785         0.112846   
    656. D(H  67,H  48,C  41,O  17)    155.2196         0.112846   
    657. D(H  66,H  51,C  37,O  25)     -7.3600         0.109741   
    658. D(H  66,H  51,C  37,O  13)    172.7583         0.109741   
    659. D(H  63,H  57,C  46,O  32)    161.7058         0.112638   
    660. D(H  63,H  57,C  46,O  24)    -18.6845         0.112638   
    661. D(H  63,Al 61,Al 60,H  62)     87.2549         0.010000   
    662. D(H  62,Al 61,Al 60,H  65)     84.8100         0.010000   
    663. D(H  62,Al 61,Al 60,H  64)    178.5525         0.010000   
    664. D(O  26,H  62,Al 61,Al 60)   -148.0982         0.010000   
    665. D(Al 60,H  62,Al 61,H  64)      0.9212         0.010000   
    666. D(Al 60,H  62,Al 61,H  63)    -99.1532         0.010000   
    667. D(Al 61,H  62,Al 60,H  65)   -101.1401         0.010000   
    668. D(Al 61,H  62,Al 60,H  64)     -0.9217         0.010000   
    669. D(Al 61,H  62,O  27,Zr  3)    -76.3817         0.010000   
    670. D(Al 60,H  62,O  27,Zr  3)    151.8900         0.010000   
    671. D(Al 61,H  62,O  26,Zr  3)   -137.3175         0.010000   
    672. D(Al 60,H  62,O  26,C  41)   -135.2451         0.010000   
    673. D(Al 60,H  62,O  26,Zr  3)     87.8031         0.010000   
    674. D(Al 61,H  62,O  25,Zr  3)    111.1984         0.010000   
    675. D(Al 60,H  62,O  25,C  37)     49.5334         0.010000   
    676. D(Al 60,H  62,O  27,C  47)    -61.9602         0.010000   
    677. D(Al 60,H  62,O  25,Zr  3)   -133.3791         0.010000   
    678. D(Al 61,H  62,O  24,Zr  3)    164.9239         0.010000   
    679. D(Al 60,H  62,O  24,C  46)     81.0002         0.010000   
    680. D(O  26,H  62,Al 60,Al 61)    136.8460         0.010000   
    681. D(Al 60,H  62,O  24,Zr  3)    -65.1012         0.010000   
    682. D(Al 61,H  62,Zr  3,Zr  0)   -102.0964         0.010000   
    683. D(Al 60,H  62,Zr  3,Zr  4)    -66.9748         0.010000   
    684. D(Al 60,H  62,Zr  3,Zr  0)     67.2994         0.010000   
    685. D(O  24,H  63,Al 61,Al 60)    -85.4693         0.010000   
    686. D(H  57,H  63,Al 61,H  62)    -69.9538         0.010000   
    687. D(H  57,H  63,Al 61,Al 60)   -108.3529         0.010000   
    688. D(O  24,H  63,H  57,C  46)     10.8386         0.010000   
    689. D(Al 61,H  63,H  57,C  46)     48.5271         0.010000   
    690. D(H  57,H  63,O  24,Zr  3)   -156.1549         0.010000   
    691. D(Al 61,H  63,O  24,C  46)   -154.5465         0.010000   
    692. D(Al 61,H  63,O  24,Zr  3)     57.4562         0.010000   
    693. D(Al 60,H  64,Al 61,H  63)     93.7894         0.010000   
    694. D(Al 60,H  64,Al 61,H  62)     -0.9192         0.010000   
    695. D(Al 61,H  64,Al 60,H  65)     94.2413         0.010000   
    696. D(Al 61,H  64,Al 60,H  62)      0.9191         0.010000   
    697. D(H  51,H  66,Al 60,Al 61)     95.1510         0.010000   
    698. D(O  25,H  66,Al 60,H  62)     42.2604         0.010000   
    699. D(O  25,H  66,Al 60,Al 61)     80.7321         0.010000   
    700. D(O  25,H  66,H  51,C  37)      4.6976         0.010000   
    701. D(Al 60,H  66,H  51,C  37)    -18.5847         0.010000   
    702. D(H  51,H  66,O  25,Zr  3)   -172.6790         0.010000   
    703. D(Al 60,H  66,O  25,C  37)    158.5568         0.010000   
    704. D(Al 60,H  66,O  25,Zr  3)    -10.0645         0.010000   
    705. D(O  26,H  67,Al 61,Al 60)     70.5958         0.010000   
    706. D(H  48,H  67,Al 61,H  62)     56.8406         0.010000   
    707. D(H  48,H  67,Al 61,Al 60)     95.0705         0.010000   
    708. D(O  26,H  67,H  48,C  41)     14.2632         0.010000   
    709. D(Al 61,H  67,H  48,C  41)    -27.8355         0.010000   
    710. D(H  48,H  67,O  26,Zr  3)   -152.7845         0.010000   
    711. D(Al 61,H  67,O  26,C  41)    131.1970         0.010000   
    712. D(Al 61,H  67,O  26,Zr  3)    -10.6107         0.010000   
    -----------------------------------------------------------------

Number of atoms                         .... 68
Number of degrees of freedom            .... 712


         *************************************************************
         *                GEOMETRY OPTIMIZATION CYCLE   1            *
         *************************************************************
---------------------------------
CARTESIAN COORDINATES (ANGSTROEM)
---------------------------------
  Zr    -0.329997    2.153968    1.425833
  Zr     0.334953   -2.182256   -1.420214
  Zr     1.672079   -1.239759    1.588016
  Zr    -1.659496    1.198619   -1.570164
  Zr     1.740641    0.926734   -1.705584
  Zr    -1.734955   -0.955148    1.714256
  O     -1.672841    0.814105    0.533056
  O      1.680468   -0.846270   -0.520318
  O     -0.101759   -1.839973    0.638216
  O      0.109765    1.804496   -0.627642
  O     -0.051099   -0.139431   -1.931623
  O      0.061194    0.107045    1.937111
  O     -1.223865    2.148348    3.178544
  O     -1.745454    3.462644    0.973729
  O      1.352035    2.064889    2.629812
  O      0.888977    3.641124    0.753552
  O     -0.896761   -3.662205   -0.756085
  O     -1.341363   -2.092170   -2.639095
  O      1.740325   -3.498323   -0.968939
  O      1.234525   -2.176917   -3.170627
  O      1.036605   -2.487049    2.984680
  O      2.120329   -0.077171    3.202769
  O      2.731874   -2.797904    1.017823
  O      3.427938   -0.259464    1.090125
  O     -3.412337    0.206019   -1.077924
  O     -2.743430    2.740807   -1.001619
  O     -2.109618    0.053560   -3.197355
  O     -1.044963    2.458673   -2.962555
  O      1.278837    2.327392   -3.011772
  O      2.430903    2.574072   -0.657306
  O      2.242003   -0.083830   -3.328376
  O      3.637674    0.447229   -1.137484
  O     -3.636266   -0.459858    1.160917
  O     -2.220650    0.050573    3.344446
  O     -2.436660   -2.581632    0.645815
  O     -1.288777   -2.372028    3.005868
  C     -1.945830    1.245973    3.769662
  C     -2.613331    3.541894    0.011201
  C      2.033035    1.210376    3.332534
  C      1.981763    3.559666    0.059897
  C     -1.995472   -3.569447   -0.073269
  C     -2.019667   -1.232459   -3.338121
  C      2.597708   -3.593776    0.001206
  C      1.963695   -1.277211   -3.756874
  C     -0.142022   -2.826080    3.410553
  C      4.082904    0.137999    0.040831
  C     -4.076582   -0.151512   -0.019751
  C      0.129813    2.781431   -3.410459
  H     -2.596484   -1.651519   -4.158319
  H      3.285258   -4.438137   -0.044458
  H      2.616011    1.636313    4.144690
  H     -3.313907    4.375322    0.060588
  H      2.389611   -1.554697   -4.720911
  H      0.154371    3.522585   -4.209119
  H      2.614844    4.442512    0.084869
  H      5.158232    0.227726    0.170019
  H     -2.641721   -4.442363   -0.110970
  H     -5.155160   -0.206714   -0.142738
  H     -2.367984    1.522764    4.735568
  H     -0.172011   -3.580379    4.196637
  Al    -4.204634    3.182708   -4.059891
  Al    -5.442347    0.889111   -3.697395
  H     -4.018083    1.686873   -3.337093
  H     -6.177292    1.146822   -2.294768
  H     -5.620804    2.377655   -4.444303
  H     -3.299852    2.856778   -5.344594
  H     -4.683071    3.987718   -2.756458
  H     -4.854720   -0.002122   -4.895396

----------------------------
CARTESIAN COORDINATES (A.U.)
----------------------------
  NO LB      ZA    FRAG     MASS         X           Y           Z
   0 Zr   12.0000*   0    91.220   -0.623603    4.070410    2.694434
   1 Zr   12.0000*   0    91.220    0.632970   -4.123867   -2.683816
   2 Zr   12.0000*   0    91.220    3.159771   -2.342805    3.000916
   3 Zr   12.0000*   0    91.220   -3.135994    2.265062   -2.967180
   4 Zr   12.0000*   0    91.220    3.289334    1.751273   -3.223086
   5 Zr   12.0000*   0    91.220   -3.278590   -1.804968    3.239474
   6 O     8.0000    0    15.999   -3.161211    1.538435    1.007330
   7 O     8.0000    0    15.999    3.175624   -1.599219   -0.983259
   8 O     8.0000    0    15.999   -0.192297   -3.477045    1.206053
   9 O     8.0000    0    15.999    0.207425    3.410004   -1.186071
  10 O     8.0000    0    15.999   -0.096563   -0.263487   -3.650239
  11 O     8.0000    0    15.999    0.115639    0.202285    3.660609
  12 O     8.0000    0    15.999   -2.312769    4.059790    6.006578
  13 O     8.0000    0    15.999   -3.298429    6.543448    1.840082
  14 O     8.0000    0    15.999    2.554976    3.902074    4.969625
  15 O     8.0000    0    15.999    1.679923    6.880727    1.424007
  16 O     8.0000    0    15.999   -1.694633   -6.920565   -1.428793
  17 O     8.0000    0    15.999   -2.534808   -3.953628   -4.987168
  18 O     8.0000    0    15.999    3.288738   -6.610873   -1.831029
  19 O     8.0000    0    15.999    2.332914   -4.113777   -5.991617
  20 O     8.0000    0    15.999    1.958900   -4.699842    5.640227
  21 O     8.0000    0    15.999    4.006841   -0.145832    6.052357
  22 O     8.0000    0    15.999    5.162493   -5.287273    1.923407
  23 O     8.0000    0    15.999    6.477863   -0.490316    2.060038
  24 O     8.0000    0    15.999   -6.448381    0.389320   -2.036981
  25 O     8.0000    0    15.999   -5.184332    5.179375   -1.892786
  26 O     8.0000    0    15.999   -3.986600    0.101213   -6.042125
  27 O     8.0000    0    15.999   -1.974693    4.646218   -5.598417
  28 O     8.0000    0    15.999    2.416652    4.398133   -5.691425
  29 O     8.0000    0    15.999    4.593742    4.864290   -1.242128
  30 O     8.0000    0    15.999    4.236772   -0.158415   -6.289719
  31 O     8.0000    0    15.999    6.874208    0.845140   -2.149533
  32 O     8.0000    0    15.999   -6.871547   -0.869005    2.193815
  33 O     8.0000    0    15.999   -4.196420    0.095570    6.320087
  34 O     8.0000    0    15.999   -4.604619   -4.878578    1.220413
  35 O     8.0000    0    15.999   -2.435436   -4.482482    5.680268
  36 C     6.0000    0    12.011   -3.677086    2.354548    7.123628
  37 C     6.0000    0    12.011   -4.938481    6.693210    0.021167
  38 C     6.0000    0    12.011    3.841879    2.287280    6.297577
  39 C     6.0000    0    12.011    3.744989    6.726795    0.113188
  40 C     6.0000    0    12.011   -3.770895   -6.745278   -0.138459
  41 C     6.0000    0    12.011   -3.816617   -2.329010   -6.308135
  42 C     6.0000    0    12.011    4.908958   -6.791253    0.002279
  43 C     6.0000    0    12.011    3.710846   -2.413579   -7.099464
  44 C     6.0000    0    12.011   -0.268383   -5.340518    6.445011
  45 C     6.0000    0    12.011    7.715570    0.260781    0.077159
  46 C     6.0000    0    12.011   -7.703624   -0.286316   -0.037323
  47 C     6.0000    0    12.011    0.245311    5.256142   -6.444834
  48 H     1.0000    0     1.008   -4.906643   -3.120919   -7.858084
  49 H     1.0000    0     1.008    6.208237   -8.386864   -0.084013
  50 H     1.0000    0     1.008    4.943544    3.092184    7.832330
  51 H     1.0000    0     1.008   -6.262377    8.268161    0.114495
  52 H     1.0000    0     1.008    4.515711   -2.937952   -8.921228
  53 H     1.0000    0     1.008    0.291718    6.656721   -7.954081
  54 H     1.0000    0     1.008    4.941339    8.395131    0.160379
  55 H     1.0000    0     1.008    9.747646    0.430341    0.321289
  56 H     1.0000    0     1.008   -4.992129   -8.394850   -0.209702
  57 H     1.0000    0     1.008   -9.741841   -0.390633   -0.269737
  58 H     1.0000    0     1.008   -4.474841    2.877607    8.948927
  59 H     1.0000    0     1.008   -0.325053   -6.765936    7.930495
  60 Al   13.0000    0    26.982   -7.945606    6.014447   -7.672083
  61 Al   13.0000    0    26.982  -10.284545    1.680177   -6.987064
  62 H     1.0000    0     1.008   -7.593076    3.187728   -6.306192
  63 H     1.0000    0     1.008  -11.673390    2.167180   -4.336484
  64 H     1.0000    0     1.008  -10.621780    4.493116   -8.398515
  65 H     1.0000    0     1.008   -6.235816    5.398527  -10.099820
  66 H     1.0000    0     1.008   -8.849722    7.535694   -5.208950
  67 H     1.0000    0     1.008   -9.174091   -0.004010   -9.250958
* core charge reduced due to ECP

--------------------------------
INTERNAL COORDINATES (ANGSTROEM)
--------------------------------
 Zr     0   0   0     0.000000000000     0.00000000     0.00000000
 Zr     1   0   0     5.229243793007     0.00000000     0.00000000
 Zr     2   1   0     3.424274857997    48.95040631     0.00000000
 Zr     1   2   3     3.414126583649    48.69103023   180.12275033
 Zr     4   1   2     3.413677067553    70.68456047   307.61203468
 Zr     3   2   1     3.421230854570    70.51554840    52.30229179
 O      1   2   3     2.096548631104    47.13622559   230.26247886
 O      2   1   3     2.098828650347    47.18206050   310.03746697
 O      3   2   1     2.099733065794    36.29880933    69.89440062
 O      4   1   2     2.094211240920    36.40081758   290.19678876
 O      5   4   1     2.097172306041    36.27325229   122.85067831
 O      6   3   2     2.098587150564    36.26317134   237.71209151
 O      1   2   3     1.967492974804   122.70029430   293.16291158
 O      1   2   3     1.980037120700   120.97712659   190.46593071
 O      1   2   3     2.070442392827   100.22460898    19.48217681
 O      1   2   3     2.037029899204   110.46720804    96.90601041
 O      2   1   3     2.036771321491   110.37506990    83.58710382
 O      2   1   3     2.074565581962   100.42870348   160.89924632
 O      2   1   3     1.977562103117   121.19945325   349.85828562
 O      2   1   3     1.968045124566   122.67982729   247.04779756
 O      3   2   1     1.977429638459   108.74694128   115.62359646
 O      3   2   1     2.039599295124   159.75436942   353.85581938
 O      3   2   1     1.968782234617    74.80744107   192.60378908
 O      3   2   1     2.071693416289   104.48122910   269.18255948
 O      4   1   2     2.073645193409   104.76194429    90.62745074
 O      4   1   2     1.968882831063    75.03695835   166.70599340
 O      4   1   2     2.039980483019   160.55337576     5.18564408
 O      4   1   2     1.975889156874   108.59198909   243.63324857
 O      5   4   1     1.970084555410    74.70422361   244.84779394
 O      5   4   1     2.071007198896   104.39136859   321.39485930
 O      5   4   1     1.976374945064   109.02429807   167.99360473
 O      5   4   1     2.037498559161   159.23626988    46.07218603
 O      6   3   2     2.041195711585   159.68315866   312.77321637
 O      6   3   2     1.976080774298   108.51460020   191.89149087
 O      6   3   2     2.068672568486   104.67478993    38.05653612
 O      6   3   2     1.968472799170    74.84751188   114.65805735
 C     13   1   2     1.298050473703   131.32656605   346.56219086
 C     26   4   1     1.297871890196   130.81536674     5.50583674
 C     22   3   2     1.297010992046   129.06976592   342.68179146
 C     16   1   2     1.296909161837   129.41149903   338.25502448
 C     17   2   1     1.296921767701   129.19921450    21.98815478
 C     27   4   1     1.296822954400   128.89611155    18.05440547
 C     23   3   2     1.298045357067   131.02853953   354.89062390
 C     20   2   1     1.298015956772   131.32716912    13.70517105
 C     36   6   3     1.298068471136   131.03923733     4.55257498
 C     32   5   4     1.297026198508   128.97754281   342.82218493
 C     33   6   3     1.297278356650   128.35610453    18.80219515
 C     28   4   1     1.298032688604   133.09540982    60.85841733
 H     42  27   4     1.086762977816   115.30891240   161.47471206
 H     43  23   3     1.089841680179   116.27216133   184.54082380
 H     39  22   3     1.086683779845   115.32594967   199.02934126
 H     38  26   4     1.089884158194   116.29037566   175.48915342
 H     44  20   2     1.089848174045   116.26778497   176.91904042
 H     48  28   4     1.089848650053   116.25445119   179.60345890
 H     40  16   1     1.086660829405   115.31392971   198.40072269
 H     46  32   5     1.086771479755   115.33842371   198.63347287
 H     41  17   2     1.086757616902   115.34465927   160.79755979
 H     47  33   6     1.086969768919   115.32171718   162.82526498
 H     37  13   1     1.089863599233   116.26219660   182.90783608
 H     45  36   6     1.089860201790   116.27287606   175.84234433
 Al    26   4   1     3.418101842893    94.48770306   166.27928900
 Al    61  26   4     2.631334927324    88.00182689    67.49992457
 H     61  26   4     1.671754263418    56.61749864    44.43737587
 H     62  61  26     1.604344295541   101.29742187    55.23645580
 H     61  26   4     1.673744771647   120.33220042    88.88290499
 H     61  26   4     1.604781230441   116.67918507   325.68789303
 H     61  26   4     1.604955401151    57.69973696   171.45581865
 H     62  61  26     1.604621014130   102.06494051   242.78672812

---------------------------
INTERNAL COORDINATES (A.U.)
---------------------------
 Zr     0   0   0     0.000000000000     0.00000000     0.00000000
 Zr     1   0   0     9.881838656292     0.00000000     0.00000000
 Zr     2   1   0     6.470941688886    48.95040631     0.00000000
 Zr     1   2   3     6.451764229636    48.69103023   180.12275033
 Zr     4   1   2     6.450914767322    70.68456047   307.61203468
 Zr     3   2   1     6.465189356058    70.51554840    52.30229179
 O      1   2   3     3.961902739234    47.13622559   230.26247886
 O      2   1   3     3.966211351184    47.18206050   310.03746697
 O      3   2   1     3.967920448689    36.29880933    69.89440062
 O      4   1   2     3.957485711919    36.40081758   290.19678876
 O      5   4   1     3.963081314062    36.27325229   122.85067831
 O      6   3   2     3.965754982733    36.26317134   237.71209151
 O      1   2   3     3.718022892794   122.70029430   293.16291158
[...]
197:   2899.62   0.013921   70.35  0.001498  ( 0.038296  0.002370  0.005108)
198:   2908.24   0.006144   31.05  0.000659  ( 0.018517 -0.013044 -0.012094)
199:   2908.96   0.023795  120.25  0.002553  (-0.020245  0.043699 -0.015270)
200:   2909.92   0.040637  205.36  0.004358  (-0.021152 -0.003681  0.062426)
201:   2910.69   0.015539   78.53  0.001666  ( 0.023193 -0.032163 -0.009675)
202:   2912.93   0.012767   64.52  0.001368  (-0.015559 -0.004045  0.033305)
203:   2914.13   0.017037   86.10  0.001824  (-0.019012  0.036661 -0.010907)

* The epsilon (eps) is given for a Dirac delta lineshape.
** The dipole moment derivative (T) already includes vibrational overlap.

The first frequency considered to be a vibration is 8
The total number of vibrations considered is 196


--------------------------
THERMOCHEMISTRY AT 298.15K
--------------------------

Temperature         ...   298.15 K
Pressure            ...     1.00 atm
Total Mass          ...  1243.53 AMU
Quasi RRHO          ...     True
Cut-Off Frequency   ...     1.00 cm^-1

Throughout the following assumptions are being made:
  (1) The electronic state is orbitally nondegenerate
  (2) There are no thermally accessible electronically excited states
  (3) Hindered rotations indicated by low frequency modes are not
      treated as such but are treated as vibrations and this may
      cause some error
  (4) All equations used are the standard statistical mechanics
      equations for an ideal gas
  (5) All vibrations are strictly harmonic

freq.      24.67  E(vib)   ...       0.56 
freq.      45.86  E(vib)   ...       0.53 
freq.      46.43  E(vib)   ...       0.53 
freq.      46.65  E(vib)   ...       0.53 
freq.      59.33  E(vib)   ...       0.51 
freq.      61.21  E(vib)   ...       0.51 
freq.      67.77  E(vib)   ...       0.50 
freq.      69.39  E(vib)   ...       0.50 
freq.      77.87  E(vib)   ...       0.49 
freq.      81.08  E(vib)   ...       0.48 
freq.      85.97  E(vib)   ...       0.48 
freq.      97.01  E(vib)   ...       0.46 
freq.      99.05  E(vib)   ...       0.46 
freq.      99.92  E(vib)   ...       0.46 
freq.     100.95  E(vib)   ...       0.46 
freq.     104.95  E(vib)   ...       0.46 
freq.     105.84  E(vib)   ...       0.45 
freq.     107.57  E(vib)   ...       0.45 
freq.     109.02  E(vib)   ...       0.45 
freq.     117.62  E(vib)   ...       0.44 
freq.     126.11  E(vib)   ...       0.43 
freq.     129.62  E(vib)   ...       0.43 
freq.     134.96  E(vib)   ...       0.42 
freq.     148.33  E(vib)   ...       0.41 
freq.     151.18  E(vib)   ...       0.40 
freq.     151.44  E(vib)   ...       0.40 
freq.     152.94  E(vib)   ...       0.40 
freq.     156.13  E(vib)   ...       0.40 
freq.     157.72  E(vib)   ...       0.40 
freq.     160.45  E(vib)   ...       0.39 
freq.     161.19  E(vib)   ...       0.39 
freq.     163.37  E(vib)   ...       0.39 
freq.     167.09  E(vib)   ...       0.39 
freq.     168.17  E(vib)   ...       0.38 
freq.     172.05  E(vib)   ...       0.38 
freq.     173.83  E(vib)   ...       0.38 
freq.     174.51  E(vib)   ...       0.38 
freq.     187.29  E(vib)   ...       0.36 
freq.     188.68  E(vib)   ...       0.36 
freq.     189.69  E(vib)   ...       0.36 
freq.     190.89  E(vib)   ...       0.36 
freq.     192.69  E(vib)   ...       0.36 
freq.     194.25  E(vib)   ...       0.36 
freq.     205.75  E(vib)   ...       0.35 
freq.     208.60  E(vib)   ...       0.34 
freq.     211.84  E(vib)   ...       0.34 
freq.     213.03  E(vib)   ...       0.34 
freq.     221.62  E(vib)   ...       0.33 
freq.     224.73  E(vib)   ...       0.33 
freq.     228.10  E(vib)   ...       0.33 
freq.     233.77  E(vib)   ...       0.32 
freq.     234.33  E(vib)   ...       0.32 
freq.     246.79  E(vib)   ...       0.31 
freq.     259.32  E(vib)   ...       0.30 
freq.     260.25  E(vib)   ...       0.30 
freq.     262.63  E(vib)   ...       0.29 
freq.     264.37  E(vib)   ...       0.29 
freq.     264.73  E(vib)   ...       0.29 
freq.     265.69  E(vib)   ...       0.29 
freq.     271.79  E(vib)   ...       0.29 
freq.     272.10  E(vib)   ...       0.29 
freq.     273.30  E(vib)   ...       0.29 
freq.     273.99  E(vib)   ...       0.28 
freq.     275.45  E(vib)   ...       0.28 
freq.     276.06  E(vib)   ...       0.28 
freq.     286.07  E(vib)   ...       0.27 
freq.     288.37  E(vib)   ...       0.27 
freq.     289.65  E(vib)   ...       0.27 
freq.     290.60  E(vib)   ...       0.27 
freq.     294.62  E(vib)   ...       0.27 
freq.     299.16  E(vib)   ...       0.26 
freq.     305.60  E(vib)   ...       0.26 
freq.     307.01  E(vib)   ...       0.26 
freq.     309.86  E(vib)   ...       0.26 
freq.     311.55  E(vib)   ...       0.25 
freq.     312.18  E(vib)   ...       0.25 
freq.     313.78  E(vib)   ...       0.25 
freq.     315.58  E(vib)   ...       0.25 
freq.     316.70  E(vib)   ...       0.25 
freq.     320.98  E(vib)   ...       0.25 
freq.     322.50  E(vib)   ...       0.25 
freq.     326.32  E(vib)   ...       0.24 
freq.     340.20  E(vib)   ...       0.23 
freq.     341.25  E(vib)   ...       0.23 
freq.     350.82  E(vib)   ...       0.23 
freq.     353.85  E(vib)   ...       0.22 
freq.     357.58  E(vib)   ...       0.22 
freq.     365.47  E(vib)   ...       0.22 
freq.     369.56  E(vib)   ...       0.21 
freq.     383.30  E(vib)   ...       0.20 
freq.     393.28  E(vib)   ...       0.20 
freq.     400.97  E(vib)   ...       0.19 
freq.     402.46  E(vib)   ...       0.19 
freq.     404.46  E(vib)   ...       0.19 
freq.     417.21  E(vib)   ...       0.18 
freq.     418.99  E(vib)   ...       0.18 
freq.     424.05  E(vib)   ...       0.18 
freq.     426.85  E(vib)   ...       0.18 
freq.     435.85  E(vib)   ...       0.17 
freq.     446.55  E(vib)   ...       0.17 
freq.     466.71  E(vib)   ...       0.16 
freq.     479.72  E(vib)   ...       0.15 
freq.     481.61  E(vib)   ...       0.15 
freq.     493.80  E(vib)   ...       0.14 
freq.     535.65  E(vib)   ...       0.12 
freq.     543.34  E(vib)   ...       0.12 
freq.     614.13  E(vib)   ...       0.10 
freq.     620.16  E(vib)   ...       0.09 
freq.     667.30  E(vib)   ...       0.08 
freq.     670.19  E(vib)   ...       0.08 
freq.     674.01  E(vib)   ...       0.08 
freq.     681.54  E(vib)   ...       0.08 
freq.     682.80  E(vib)   ...       0.08 
freq.     690.69  E(vib)   ...       0.07 
freq.     708.37  E(vib)   ...       0.07 
freq.     736.42  E(vib)   ...       0.06 
freq.     736.64  E(vib)   ...       0.06 
freq.     736.90  E(vib)   ...       0.06 
freq.     737.36  E(vib)   ...       0.06 
freq.     738.20  E(vib)   ...       0.06 
freq.     739.37  E(vib)   ...       0.06 
freq.     739.65  E(vib)   ...       0.06 
freq.     740.13  E(vib)   ...       0.06 
freq.     740.63  E(vib)   ...       0.06 
freq.     741.28  E(vib)   ...       0.06 
freq.     741.77  E(vib)   ...       0.06 
freq.     742.71  E(vib)   ...       0.06 
freq.     789.84  E(vib)   ...       0.05 
freq.    1000.62  E(vib)   ...       0.02 
freq.    1001.10  E(vib)   ...       0.02 
freq.    1001.14  E(vib)   ...       0.02 
freq.    1002.50  E(vib)   ...       0.02 
freq.    1003.34  E(vib)   ...       0.02 
freq.    1004.68  E(vib)   ...       0.02 
freq.    1004.98  E(vib)   ...       0.02 
freq.    1005.28  E(vib)   ...       0.02 
freq.    1005.65  E(vib)   ...       0.02 
freq.    1005.93  E(vib)   ...       0.02 
freq.    1006.91  E(vib)   ...       0.02 
freq.    1007.24  E(vib)   ...       0.02 
freq.    1287.76  E(vib)   ...       0.01 
freq.    1323.77  E(vib)   ...       0.01 
freq.    1345.61  E(vib)   ...       0.01 
freq.    1348.31  E(vib)   ...       0.01 
freq.    1348.90  E(vib)   ...       0.01 
freq.    1349.13  E(vib)   ...       0.01 
freq.    1349.37  E(vib)   ...       0.01 
freq.    1349.43  E(vib)   ...       0.01 
freq.    1350.11  E(vib)   ...       0.01 
freq.    1351.99  E(vib)   ...       0.01 
freq.    1352.74  E(vib)   ...       0.01 
freq.    1353.22  E(vib)   ...       0.01 
freq.    1353.67  E(vib)   ...       0.01 
freq.    1354.37  E(vib)   ...       0.01 
freq.    1360.26  E(vib)   ...       0.01 
freq.    1361.81  E(vib)   ...       0.01 
freq.    1361.92  E(vib)   ...       0.01 
freq.    1362.19  E(vib)   ...       0.01 
freq.    1365.14  E(vib)   ...       0.01 
freq.    1365.52  E(vib)   ...       0.01 
freq.    1367.85  E(vib)   ...       0.01 
freq.    1369.70  E(vib)   ...       0.01 
freq.    1370.27  E(vib)   ...       0.01 
freq.    1373.75  E(vib)   ...       0.01 
freq.    1374.51  E(vib)   ...       0.01 
freq.    1382.12  E(vib)   ...       0.01 
freq.    1455.02  E(vib)   ...       0.00 
freq.    1520.79  E(vib)   ...       0.00 
freq.    1543.34  E(vib)   ...       0.00 
freq.    1553.36  E(vib)   ...       0.00 
freq.    1562.35  E(vib)   ...       0.00 
freq.    1563.45  E(vib)   ...       0.00 
freq.    1569.16  E(vib)   ...       0.00 
freq.    1575.10  E(vib)   ...       0.00 
freq.    1576.06  E(vib)   ...       0.00 
freq.    1626.95  E(vib)   ...       0.00 
freq.    1629.96  E(vib)   ...       0.00 
freq.    1633.27  E(vib)   ...       0.00 
freq.    1635.79  E(vib)   ...       0.00 
freq.    1635.98  E(vib)   ...       0.00 
freq.    1868.67  E(vib)   ...       0.00 
freq.    1876.26  E(vib)   ...       0.00 
freq.    1883.02  E(vib)   ...       0.00 
freq.    1891.00  E(vib)   ...       0.00 
freq.    2889.39  E(vib)   ...       0.00 
freq.    2889.81  E(vib)   ...       0.00 
freq.    2890.70  E(vib)   ...       0.00 
freq.    2891.95  E(vib)   ...       0.00 
freq.    2893.61  E(vib)   ...       0.00 
freq.    2899.62  E(vib)   ...       0.00 
freq.    2908.24  E(vib)   ...       0.00 
freq.    2908.96  E(vib)   ...       0.00 
freq.    2909.92  E(vib)   ...       0.00 
freq.    2910.69  E(vib)   ...       0.00 
freq.    2912.93  E(vib)   ...       0.00 
freq.    2914.13  E(vib)   ...       0.00 

------------
INNER ENERGY
------------

The inner energy is: U= E(el) + E(ZPE) + E(vib) + E(rot) + E(trans)
    E(el)   - is the total energy from the electronic structure calculation
              = E(kin-el) + E(nuc-el) + E(el-el) + E(nuc-nuc)
    E(ZPE)  - the the zero temperature vibrational energy from the frequency calculation
    E(vib)  - the the finite temperature correction to E(ZPE) due to population
              of excited vibrational states
    E(rot)  - is the rotational thermal energy
    E(trans)- is the translational thermal energy

Summary of contributions to the inner energy U:
Electronic energy                ...  -3488.53087342 Eh
Zero point energy                ...      0.34961990 Eh     219.39 kcal/mol
Thermal vibrational correction   ...      0.05774368 Eh      36.23 kcal/mol
Thermal rotational correction    ...      0.00141627 Eh       0.89 kcal/mol
Thermal translational correction ...      0.00141627 Eh       0.89 kcal/mol
-----------------------------------------------------------------------
Total thermal energy                  -3488.12067730 Eh


Summary of corrections to the electronic energy:
(perhaps to be used in another calculation)
Total thermal correction                  0.06057622 Eh      38.01 kcal/mol
Non-thermal (ZPE) correction              0.34961990 Eh     219.39 kcal/mol
-----------------------------------------------------------------------
Total correction                          0.41019612 Eh     257.40 kcal/mol


--------
ENTHALPY
--------

The enthalpy is H = U + kB*T
                kB is Boltzmann's constant
Total thermal energy              ...  -3488.12067730 Eh 
Thermal Enthalpy correction       ...      0.00094421 Eh       0.59 kcal/mol
-----------------------------------------------------------------------
Total Enthalpy                    ...  -3488.11973309 Eh


Note: Only C1 symmetry has been detected, increase convergence thresholds 
      if your molecule has a higher symmetry. Symmetry factor of 1.0 is   
      used for the rotational entropy correction. 
 

Note: Rotational entropy computed according to Herzberg 
Infrared and Raman Spectra, Chapter V,1, Van Nostrand Reinhold, 1945 
Point Group:  C1, Symmetry Number:   1  
Rotational constants in cm-1:     0.001823     0.001447     0.001420 

Vibrational entropy computed according to the QRRHO of S. Grimme
Chem.Eur.J. 2012 18 9955 using a reference frequency of 100.0 cm-1


-------
ENTROPY
-------

The entropy contributions are T*S = T*(S(el)+S(vib)+S(rot)+S(trans))
     S(el)   - electronic entropy
     S(vib)  - vibrational entropy
     S(rot)  - rotational entropy
     S(trans)- translational entropy
The entropies will be listed as multiplied by the temperature to get
units of energy

Electronic entropy                ...      0.00000000 Eh      0.00 kcal/mol
Vibrational entropy               ...      0.10305308 Eh     64.67 kcal/mol
Rotational entropy                ...      0.01867079 Eh     11.72 kcal/mol
Translational entropy             ...      0.02244101 Eh     14.08 kcal/mol
-----------------------------------------------------------------------
Final entropy term                ...      0.14416488 Eh     90.46 kcal/mol

In case the symmetry of your molecule has not been determined correctly
or in case you have a reason to use a different symmetry number we print 
out the resulting rotational entropy values for sn=1,12:

 non-linear molecules -----------------------------------
|  sn= 1 | S(rot)=       0.01867079 Eh     11.72 kcal/mol|
|  sn= 2 | S(rot)=       0.01801634 Eh     11.31 kcal/mol|
|  sn= 3 | S(rot)=       0.01763350 Eh     11.07 kcal/mol|
|  sn= 4 | S(rot)=       0.01736188 Eh     10.89 kcal/mol|
|  sn= 5 | S(rot)=       0.01715119 Eh     10.76 kcal/mol|
|  sn= 6 | S(rot)=       0.01697905 Eh     10.65 kcal/mol|
|  sn= 7 | S(rot)=       0.01683350 Eh     10.56 kcal/mol|
|  sn= 8 | S(rot)=       0.01670742 Eh     10.48 kcal/mol|
|  sn= 9 | S(rot)=       0.01659622 Eh     10.41 kcal/mol|
|  sn=10 | S(rot)=       0.01649674 Eh     10.35 kcal/mol|
|  sn=11 | S(rot)=       0.01640675 Eh     10.30 kcal/mol|
|  sn=12 | S(rot)=       0.01632459 Eh     10.24 kcal/mol|
 linear molecules ---------------------------------------
|  Dinfh | S(rot)=       0.01151682 Eh      7.23 kcal/mol|
|  Cinfv | S(rot)=       0.01217128 Eh      7.64 kcal/mol|
 --------------------------------------------------------


-------------------
GIBBS FREE ENERGY
-------------------

The Gibbs free energy is G = H - T*S

Total enthalpy                    ...  -3488.11973309 Eh 
Total entropy correction          ...     -0.14416488 Eh    -90.46 kcal/mol
-----------------------------------------------------------------------
Final Gibbs free energy         ...  -3488.26389797 Eh

For completeness - the Gibbs free energy minus the electronic energy
G-E(el)                           ...      0.26697545 Eh    167.53 kcal/mol


Maximum memory used throughout the entire PROP-calculation: 138.9 MB

--------------------------------
SUGGESTED CITATIONS FOR THIS RUN
--------------------------------

Below you find a list of papers that are relevant to this ORCA run
We neither can nor want to force you to cite these papers, but we appreciate if you do
You receive ORCA, which is the product of decades of hard work by many enthusiastic individuals, for free
The only thing we kindly ask in return is that you cite our papers,
We deeply appreciate it, if you show your appreciation for ORCA by not just citing the generic ORCA reference.

Please note that relegating all ORCA citations to the supporting information does *not* help us.
SI sections are not indexed - citations you put there will not count into any citation statistics
But we need these citations in order to attract the funding resources that allow us to do what we are doing

Therefore, if you are a happy ORCA user, please consider citing a few of the papers listed below in the main body of your paper

In addition to the list printed below, the program has created the file run.bibtex that contains the list in bibtex format
You can import this file easily into all common literature databanks and citation aid programs


List of essential papers. We consider these as the minimum necessary citations

  1. Neese, F.
     Software update: the ORCA program system, version 6.0
     WIRES Comput. Molec. Sci. 2025 15(1), e70019
     doi.org/10.1002/wcms.7019

List of papers to cite with high priority. The work reported in these papers was absolutely
necessary for this run to complete.
Our perspective: the developers of density functionals and basis sets usually get cited in chemistry papers
Good! But without the algorithms to do something with them, the functionals or basis sets would not do anything.
Hence, in our opinion, the algorithm design and method developments papers are equally worthy of getting cited

  1. Neese, F.
     An improvement of the resolution of the identity approximation for the formation of the Coulomb matrix
     J. Comp. Chem. 2003 24(14), 1740-1747
     doi.org/10.1002/jcc.10318
  2. Grimme, S.; Antony, J.; Ehrlich, S.; Krieg, H.
     A consistent and accurate ab initio parametrization of density functional dispersion correction (DFT-D) for the 94 elements H-Pu
     J. Chem. Phys. 2010 132 , 154104
     doi.org/10.1063/1.3382344
  3. Grimme, S.; Ehrlich, S.; Goerigk, L.
     Effect of the damping function in dispersion corrected density functional theory
     J. Comput. Chem. 2011 32(7), 1456-1465
     doi.org/10.1002/jcc.21759
  4. Bykov, D.; Petrenko, T.; Izsak, R.; Kossmann, S.; Becker, U.; Valeev, E.; Neese, F.
     Efficient implementation of the analytic second derivatives of Hartree-Fock and hybrid DFT energies: a detailed analysis of different approximations
     Molec. Phys. 2015 113 , 1961-1977
     doi.org/10.1080/00268976.2015.1025114
  5. Helmich-Paris, B.
     A trust-region augmented Hessian implementation for restricted and unrestricted Hartree–Fock and Kohn–Sham methods
     J. Chem. Phys. 2021 154 , 164104
     doi.org/10.1063/5.0040798
  6. Neese, F.
     The SHARK Integral Generation and Digestion System
     J. Comp. Chem. 2022 44(3), 381
     doi.org/10.1002/jcc.26942

List of suggested additional citations. These are papers that are important in the 'surrounding' of 
of this run, or papers that preceded the highly important papers. If you like your results we are grateful for a citation.

  1. Neese, F.
     The ORCA program system
     WIRES Comput. Molec. Sci. 2012 2(1), 73-78
     doi.org/10.1002/wcms.81
  2. Neese, F.
     Software update: the ORCA program system, version 4.0
     WIRES Comput. Molec. Sci. 2018 8(1), 1-6
     doi.org/10.1002/wcms.1327
  3. Neese, F.; Wennmohs, F.; Becker, U.; Riplinger, C.
     The ORCA quantum chemistry program package
     J. Chem. Phys. 2020 152(22), 224108
     doi.org/10.1063/5.0004608
  4. Neese, F.
     Software update: The ORCA program system—Version 5.0
     WIRES Comput. Molec. Sci. 2022 12(1), e1606
     doi.org/10.1002/wcms.1606

List of optional additional citations

  1. Neese, F.
     Approximate second-order SCF convergence for spin unrestricted wavefunctions
     Chem. Phys. Lett. 2000 325(1-3), 93-98
     doi.org/10.1016/s0009-2614(00)00662-x

Timings for individual modules:

Sum of individual times          ...     7027.677 sec (= 117.128 min)
Startup calculation              ...      245.085 sec (=   4.085 min)   3.5 %
SCF iterations                   ...     1582.339 sec (=  26.372 min)  22.5 %
Property integrals               ...     1812.416 sec (=  30.207 min)  25.8 %
SCF Response                     ...     1122.148 sec (=  18.702 min)  16.0 %
Property calculations            ...     1679.665 sec (=  27.994 min)  23.9 %
SCF Gradient evaluation          ...      578.155 sec (=   9.636 min)   8.2 %
Geometry relaxation              ...        7.868 sec (=   0.131 min)   0.1 %
                             ****ORCA TERMINATED NORMALLY****
TOTAL RUN TIME: 0 days 1 hours 57 minutes 23 seconds 408 msec
