
                                 *****************
                                 * O   R   C   A *
                                 *****************

                                            #,                                       
                                            ###                                      
                                            ####                                     
                                            #####                                    
                                            ######                                   
                                           ########,                                 
                                     ,,################,,,,,                         
                               ,,#################################,,                 
                          ,,##########################################,,             
                       ,#########################################, ''#####,          
                    ,#############################################,,   '####,        
                  ,##################################################,,,,####,       
                ,###########''''           ''''###############################       
              ,#####''   ,,,,##########,,,,          '''####'''          '####       
            ,##' ,,,,###########################,,,                        '##       
           ' ,,###''''                  '''############,,,                           
         ,,##''                                '''############,,,,        ,,,,,,###''
      ,#''                                            '''#######################'''  
     '                                                          ''''####''''         
             ,#######,   #######,   ,#######,      ##                                
            ,#'     '#,  ##    ##  ,#'     '#,    #''#        ,####,    ,#,          
            ##       ##  ##   ,#'  ##            #'  '#       #'       ,# #          
            ##       ##  #######   ##           ,######,      #####,      #          
            '#,     ,#'  ##    ##  '#,     ,#' ,#      #,     #,   #      #          
             '#######'   ##     ##  '#######'  #'      '#     '####' #    #          



                #########################################################
                #                        -***-                          #
                #          Department of theory and spectroscopy        #
                #                                                       #
                #                      Frank Neese                      #
                #                                                       #
                #     Directorship, Architecture, Infrastructure        #
                #                    SHARK, DRIVERS                     #
                #        Core code/Algorithms in most modules           #
                #                                                       #
                #        Max Planck Institute fuer Kohlenforschung      #
                #                Kaiser Wilhelm Platz 1                 #
                #                 D-45470 Muelheim/Ruhr                 #
                #                      Germany                          #
                #                                                       #
                #                  All rights reserved                  #
                #                        -***-                          #
                #########################################################


                         Program Version 6.1.0  -  RELEASE   -
                                (GIT: $679e74b$)
                          ($2025-06-10 18:02:51 +0200$)


 With contributions from (in alphabetic order):
[Max-Planck-Institut fuer Kohlenforschung]                               
  Daniel Aravena         : Magnetic Suceptibility                        
  Michael Atanasov       : Ab Initio Ligand Field Theory (pilot matlab implementation)
  Alexander A. Auer      : GIAO ZORA, VPT2 properties, NMR spectrum      
  Ute Becker             : All parallelization in ORCA, NUMFREQ, NUMCALC 
  Giovanni Bistoni       : ED, misc. LED, open-shell LED, HFLD           
  Dmytro Bykov           : pre 5.0 version of the SCF Hessian            
  Marcos Casanova-Páez   : Triplet and SCS-CIS(D). UHF-(DLPNO)-IP/EA/STEOM-CCSD. UHF-CVS-IP/STEOM-CCSD   
  Vijay G. Chilkuri      : MRCI spin determinant printing, contributions to CSF-ICE 
  Pauline Colinet        : FMM embedding                                 
  Dipayan Datta          : RHF DLPNO-CCSD density                        
  Achintya Kumar Dutta   : EOM-CC, STEOM-CC                              
  Nicolas Foglia         : Exact transition moments, OPA infrastructure, MCD improvements    
  Dmitry Ganyushin       : Spin-Orbit,Spin-Spin,Magnetic field MRCI      
  Miquel Garcia-Rates    : C-PCM and meta-GGA Hessian, CCSD/C-PCM, Gaussian charge scheme 
  Tiago L. C. Gouveia    : GS-ROHF, GS-ROCIS                             
  Yang Guo               : DLPNO-NEVPT2, F12-NEVPT2, CIM, IAO-localization        
  Andreas Hansen         : Spin unrestricted coupled pair/coupled cluster methods 
  Ingolf Harden          : AUTO-CI MPn and infrastructure                
  Benjamin Helmich-Paris : MC-RPA, TRAH-(SCF,CASSCF), AVAS, COSX integrals, SCF dyn. polar., MC-PDFT, srDFT 
  Lee Huntington         : MR-EOM, pCC                                   
  Robert Izsak           : Overlap fitted RIJCOSX, COSX-SCS-MP3, EOM     
  Riya Kayal             : Wick's Theorem for AUTO-CI, AUTO-CI UHF-CCSDT 
  Emily Kempfer          : AUTO-CI RHF CISDT and CCSDT, approximate NEVPT4
  Christian Kollmar      : KDIIS, OOCD, Brueckner-CCSD(T), CCSD density, CASPT2, CASPT2-K, improved NEVPT2 
  Axel Koslowski         : Symmetry handling                             
  Simone Kossmann        : meta-GGA functionals, TD-DFT gradient, OOMP2, (MP2 Hessian; deprecated post 5.0) 
  Lucas Lang             : DCDCAS, Hyperfine gauge corrections, ICE-SOC+SSC
  Marvin Lechner         : AUTO-CI (C++ implementation), FIC-MRCC        
  Spencer Leger          : CASSCF response                               
  Dagmar Lenk            : GEPOL surface, SMD, ORCA-2-JSON               
  Dimitrios Liakos       : Extrapolation schemes; Compound Job, Property file
  Dimitrios Manganas     : Further ROCIS development; embedding schemes. LFT, Crystal Embedding 
  Dimitrios Pantazis     : SARC Basis sets                               
  Anastasios Papadopoulos: AUTO-CI, single reference methods and gradients 
  Taras Petrenko         : pre 6.0 DFT Hessian and TD-DFT gradient,  ECA, NRVS 
  Petra Pikulova         : Analytic Raman intensities                    
  Peter Pinski           : DLPNO-MP2, DLPNO-MP2 Gradient                 
  Shashank Vittal Rao    : ES-AILFT, MagRelax                            
  Christoph Reimann      : Effective Core Potentials                     
  Marius Retegan         : Local ZFS, SOC                                
  Christoph Riplinger    : Optimizer, TS searches, QM/MM, DLPNO-CCSD(T), (RO)-DLPNO pert. Triples 
  Michael Roemelt        : Original ROCIS implementation, recursive CI coupling coefficients
  Masaaki Saitow         : Open-shell DLPNO-CCSD energy and density      
  Barbara Sandhoefer     : DKH picture change effects                    
  Yorick L. A. Schmerwitz: GMF and freeze-and-release deltaSCF, NEB S-IDPP initial path                    
  Kantharuban Sivalingam : CASSCF convergence/infrastructure, NEVPT2, NEVPT3, NEVPT4(SD), FIC-MRCI and CEPA variants
  Bernardo de Souza      : ESD, SOC TD-DFT                               
  Georgi L. Stoychev     : AutoAux, RI-MP2 NMR, DLPNO-MP2 response, X2C  
  Van Anh Tran           : RI-MP2 g-tensors                              
  Willem Van den Heuvel  : Paramagnetic NMR                              
  Zikuan Wang            : NOTCH, Electric field optimization            
  Frank Wennmohs         : Technical directorship and infrastructure     
  Hang Xu                : AUTO-CI-Response properties                   
                                                                         
[FACCTs GmbH]                                                            
  Markus Bursch, Nicolas Foglia, Miquel Garcia-Rates, Ingolf Harden, Hagen Neugebauer, Anastasios Papadopoulos, 
  Christoph Riplinger, Bernardo de Souza, Georgi L. Stoychev                                                    
                                                                 
  APM, various basis sets, CI-OPT, improved COSX, DLPNO-Multilevel,           
  DOCKER, DRACO, updates on ESD, Fragmentator, GOAT, IRC, LR-CPCM, L-BFGS, MBIS, meta-GGA TD-DFT gradient, ML-optimized integration grids, 
  MM, NACMEs, nearIR, NEB, NEB-TS, NL-DFT gradient (VV10), 2- and 3-layer-ONIOM, interface openCOSMO-RS, QMMM,   
  Crystal-QMMM, RESP, rigid body optimization, SF, symmetry and pop. for TD-DFT, various functionals, SOLVATOR                                   
                                                                         
[Other institutions]                                                     
  V. Asgeirsson          : NEB                                           
  Christoph Bannwarth    : sTDA-DFT, sTD-DFT, PBEh-3c, B97-3c, D3        
  Giovanni Bistoni       : ETS/NOCV, ADLD/ADEX, COVALED                  
  Martin Brehm           : Molecular dynamics                            
  Ronald Cardenas        : ETS/NOCV                                      
  Martina Colucci        : COVALED                                       
  Sebastian Ehlert       : rSCAN, r2SCAN, r2SCAN-3c, D4, dhf basis sets  
  Marvin Friede          : D4 for Fr, Ra, Ac-Lr                          
  Lars Goerigk           : TD-DFT with DH, B97 family of functionals     
  Stefan Grimme          : VdW corrections, initial TS optimization, DFT functionals, gCP, sTDA/sTD-DF 
  Waldemar Hujo          : DFT-NL                                        
  H. Jonsson             : NEB                                           
  Holger Kruse           : gCP                                           
  Marcel Mueller         : wB97X-3c, vDZP basis set                      
  Hagen Neugebauer       : wr2SCAN, Native XTB                           
  Gianluca Regni         : ADLD/ADEX                                     
  Tobias Risthaus        : pre 6.0 range-separated hybrid DFT and stability analysis
  Lukas Wittmann         : regularized MP2, r2SCAN double-hybrids, wr2SCAN        
                                                                         
We gratefully acknowledge several colleagues who have allowed us to      
interface, adapt or use parts of their codes:                            
  Ed Valeev, F. Pavosevic, A. Kumar             : LibInt (2-el integral package), F12 methods 
  Garnet Chan, S. Sharma, J. Yang, R. Olivares  : DMRG                   
  Ulf Ekstrom                                   : XCFun DFT Library      
  Mihaly Kallay                                 : mrcc  (arbitrary order and MRCC methods)
  Frank Weinhold                                : gennbo (NPA and NBO analysis)           
  Simon Mueller                                 : openCOSMO-RS                            
  Christopher J. Cramer and Donald G. Truhlar   : smd solvation model                     
  S Lehtola, MJT Oliveira, MAL Marques          : LibXC Library                           
  Liviu Ungur et al                             : ANISO software                          


 Your calculation uses the libint2 library for the computation of 2-el integrals
 For citations please refer to: http://libint.valeyev.net

 Your ORCA version has been built with support for libXC version: 7.0.0
 For citations please refer to: https://libxc.gitlab.io

 This ORCA versions uses:
   CBLAS   interface :  Fast vector & matrix operations
   LAPACKE interface :  Fast linear algebra routines
   SCALAPACK package :  Parallel linear algebra routines
   Shared memory     :  Shared parallel matrices
   BLAS/LAPACK       :  OpenBLAS 0.3.29  USE64BITINT DYNAMIC_ARCH NO_AFFINITY Bulldozer SINGLE_THREADED
        Core in use  :  Bulldozer
   Copyright (c) 2011-2014, The OpenBLAS Project


  ***********************************
  * Starting time: Thu Aug 14 15:36:23 2025
  * Host name:     chromium08
  * Process ID:    246699
  * Working dir.:  /local/scratch/mehlhorn/61912
  ***********************************



***************************************
The coordinates will be read from file: start.xyz
***************************************


Your calculation utilizes the atom-pairwise dispersion correction
with the Becke-Johnson damping scheme (D3BJ)


Warning: RI is on but no J-basis has been assigned. Assigning Def2/J (nothing to worry about!)
================================================================================

----- Orbital basis set information -----
Your calculation utilizes the basis: def2-TZVP
   F. Weigend and R. Ahlrichs, Phys. Chem. Chem. Phys. 7, 3297 (2005).

----- AuxJ basis set information -----
Your calculation utilizes the auxiliary basis: def2/J
   H-Rn: F. Weigend, Phys. Chem. Chem. Phys. 8, 1057 (2006).
   Fr-Lr: K. Eichkorn, F. Weigend, O. Treutler, R. Ahlrichs; Theor. Chem. Acc. 97, 119 (1997).

================================================================================
                                        WARNINGS
                       Please study these warnings very carefully!
================================================================================


WARNING: Geometry Optimization
  ===> : Switching off AutoStart
         For restart on a previous wavefunction, please use MOREAD

================================================================================
                                       INPUT FILE
================================================================================
NAME = run.inp
|  1> # Geometry optimization for (AlH3)n cluster
|  2> 
|  3> %pal nprocs 24  end
|  4> 
|  5> %geom MaxIter 500 end
|  6> 
|  7> 
|  8> ! PBE def2-TZVP
|  9> ! RKS	# closed shell for AlH3
| 10> ! D3    #  dispersion correction
| 11> ! Freq 	# Frequency analysis to check the stabiltity of the structures
| 12> 
| 13> ! NoPop # population analysis not necessary	
| 14> 
| 15> ! DEFGRID3
| 16> ! TightSCF
| 17> ! TightOpt
| 18> 
| 19> ! SmallPrint
| 20> 
| 21> 
| 22> * xyzFile 0 1 start.xyz # only maingroup elements H and Al so there should be no net spin
| 23> 
| 24>                          ****END OF INPUT****
================================================================================

                       *****************************
                       * Geometry Optimization Run *
                       *****************************

Geometry optimization settings:
Update method            Update   .... BFGS
Choice of coordinates    CoordSys .... (2022) Redundant Internals
Initial Hessian          InHess   .... Almloef's Model
Max. no of cycles        MaxIter  .... 500

Convergence Tolerances:
Energy Change            TolE     ....  1.0000e-06 Eh
Max. Gradient            TolMAXG  ....  1.0000e-04 Eh/bohr
RMS Gradient             TolRMSG  ....  3.0000e-05 Eh/bohr
Max. Displacement        TolMAXD  ....  1.0000e-03 bohr
RMS Displacement         TolRMSD  ....  6.0000e-04 bohr
Strict Convergence                .... False

------------------------------------------------------------------------------
                        ORCA OPTIMIZATION COORDINATE SETUP
------------------------------------------------------------------------------

The optimization will be done in redundant internal coordinates (2022)
Making redundant internal coordinates   ...  (2022 redundants) done
Evaluating the initial hessian          ...  (Almloef) done
Evaluating the coordinates              ...  done
Calculating the B-matrix                .... done
Calculating the G-matrix                .... done
The number of degrees of freedom        ....  329

    -----------------------------------------------------------------
                    Redundant Internal Coordinates


    -----------------------------------------------------------------
         Definition                    Initial Value    Approx d2E/dq
    -----------------------------------------------------------------
      1. B(Al  1,Al  0)                  3.0910         0.059309   
      2. B(H   2,Al  1)                  1.7136         0.255315   
      3. B(H   3,Al  1)                  1.5934         0.397024   
      4. B(H   4,Al  0)                  1.7202         0.249216   
      5. B(H   4,Al  1)                  1.7138         0.255181   
      6. B(H   5,Al  0)                  1.5944         0.395619   
      7. B(H   6,Al  0)                  1.7029         0.265525   
      8. B(H   7,Al  1)                  1.5898         0.402397   
      9. B(Al  8,H   2)                  1.7201         0.249341   
     10. B(Al  8,Al  1)                  3.0901         0.059491   
     11. B(H   9,Al  8)                  1.7032         0.265300   
     12. B(H  10,Al  8)                  1.5944         0.395552   
     13. B(H  11,Al  0)                  1.5930         0.397666   
     14. B(Al 12,H   6)                  1.7429         0.229232   
     15. B(Al 12,Al  0)                  3.1038         0.056581   
     16. B(Al 12,H   9)                  1.7434         0.228886   
     17. B(Al 12,Al  8)                  3.1033         0.056688   
     18. B(H  13,Al 12)                  1.7989         0.186622   
     19. B(H  14,Al 12)                  1.5985         0.389702   
     20. B(H  15,Al  8)                  1.5930         0.397599   
     21. B(Al 16,H  13)                  1.6810         0.287755   
     22. B(Al 16,Al 12)                  3.3175         0.025803   
     23. B(H  17,Al 16)                  1.5915         0.399860   
     24. B(H  18,Al 16)                  1.5915         0.399815   
     25. B(Al 19,Al 16)                  3.0244         0.075728   
     26. B(Al 19,Al 12)                  2.6351         0.316526   
     27. B(H  20,Al 19)                  1.5808         0.415880   
     28. B(H  21,Al 19)                  1.6672         0.302765   
     29. B(H  21,Al 12)                  1.9028         0.127413   
     30. B(H  22,Al 19)                  1.6665         0.303510   
     31. B(H  22,Al 12)                  1.9046         0.126597   
     32. B(H  23,Al 19)                  1.6830         0.285652   
     33. B(H  23,Al 16)                  1.7714         0.206506   
     34. A(H   5,Al  0,Al 12)          131.7220         0.319770   
     35. A(H   4,Al  0,H   6)           98.3204         0.330787   
     36. A(Al  1,Al  0,H   4)           25.7740         0.299079   
     37. A(H   6,Al  0,H  11)          109.0296         0.357761   
     38. A(H   4,Al  0,H   5)          108.1054         0.353623   
     39. A(Al  1,Al  0,H   5)           92.4538         0.322243   
     40. A(H   5,Al  0,H   6)          106.0952         0.357447   
     41. A(H   4,Al  0,H  11)          104.7121         0.353932   
     42. A(H   4,Al  0,Al 12)           84.5625         0.296852   
     43. A(H   5,Al  0,H  11)          126.9344         0.383145   
     44. A(Al  1,Al  0,Al 12)           79.5737         0.272204   
     45. A(Al  1,Al  0,H  11)          129.7165         0.322516   
     46. A(H   6,Al  0,Al 12)           26.0693         0.299855   
     47. A(Al  1,Al  0,H   6)           83.3230         0.302115   
     48. A(H  11,Al  0,Al 12)           91.4498         0.320040   
     49. A(Al  0,Al  1,H   2)          102.3736         0.300232   
     50. A(H   2,Al  1,H   3)          108.7364         0.355289   
     51. A(Al  0,Al  1,H   7)          124.7604         0.323142   
     52. A(H   3,Al  1,H   4)          108.7398         0.355257   
     53. A(H   2,Al  1,H   4)           92.8323         0.329937   
     54. A(H   7,Al  1,Al  8)          124.7455         0.323304   
     55. A(H   2,Al  1,H   7)          106.4796         0.356100   
     56. A(H   4,Al  1,H   7)          106.4190         0.356069   
     57. A(H   4,Al  1,Al  8)          102.5089         0.300353   
     58. A(H   2,Al  1,Al  8)           25.9004         0.300378   
     59. A(Al  0,Al  1,Al  8)          100.6527         0.274296   
     60. A(H   3,Al  1,Al  8)           82.8562         0.322592   
     61. A(H   3,Al  1,H   7)          127.9763         0.384170   
     62. A(Al  0,Al  1,H   4)           25.8780         0.300207   
     63. A(Al  0,Al  1,H   3)           82.8771         0.322430   
     64. A(Al  1,H   2,Al  8)          128.3035         0.328678   
     65. A(Al  0,H   4,Al  1)          128.3480         0.328622   
     66. A(Al  0,H   6,Al 12)          128.5030         0.326256   
     67. A(H   2,Al  8,H  15)          104.7437         0.353952   
     68. A(H   2,Al  8,H  10)          108.1198         0.353643   
     69. A(Al  1,Al  8,H   2)           25.7962         0.299249   
     70. A(H   9,Al  8,H  10)          106.1118         0.357385   
     71. A(H   9,Al  8,H  15)          108.9850         0.357699   
     72. A(Al 12,Al  8,H  15)           91.4383         0.320131   
     73. A(Al  1,Al  8,H  15)          129.7978         0.322669   
     74. A(H  10,Al  8,Al 12)          131.7659         0.319861   
     75. A(H   9,Al  8,Al 12)           26.1133         0.299906   
     76. A(H   2,Al  8,Al 12)           84.4542         0.296965   
     77. A(H   2,Al  8,H   9)           98.2999         0.330768   
     78. A(Al  1,Al  8,H  10)           92.3610         0.322396   
     79. A(Al  1,Al  8,Al 12)           79.5945         0.272410   
     80. A(H  10,Al  8,H  15)          126.9323         0.383122   
     81. A(Al  1,Al  8,H   9)           83.3931         0.302222   
     82. A(Al  8,H   9,Al 12)          128.4192         0.326129   
     83. A(H   9,Al 12,H  14)          102.6995         0.347691   
     84. A(Al  8,Al 12,H  14)           77.4014         0.319083   
     85. A(H   6,Al 12,H  14)          102.7131         0.347780   
     86. A(H   6,Al 12,H   9)           94.3654         0.318414   
     87. A(Al  0,Al 12,H  14)           77.4625         0.318984   
     88. A(H  14,Al 12,H  22)           95.5342         0.315240   
     89. A(H   9,Al 12,H  13)           78.4252         0.307981   
     90. A(Al  8,Al 12,H  13)          103.6293         0.283764   
     91. A(Al  8,Al 12,H  22)           90.4012         0.267387   
     92. A(H   6,Al 12,H  22)          159.3873         0.289635   
     93. A(H   6,Al 12,H  13)           78.7217         0.308056   
     94. A(Al  0,Al 12,H  13)          103.8936         0.283681   
     95. A(Al  8,Al 12,H   9)           25.4676         0.292974   
     96. A(Al 19,Al 12,H  21)           39.0770         0.352663   
     97. A(Al 16,Al 12,H  21)           69.3894         0.238495   
     98. A(H  14,Al 12,H  21)           95.5969         0.315569   
     99. A(Al  0,Al 12,H   9)          102.8188         0.292887   
    100. A(H  21,Al 12,H  22)           77.7562         0.264662   
    101. A(H   9,Al 12,H  21)          159.3311         0.289859   
    102. A(H   6,Al 12,H  21)           90.8647         0.289927   
    103. A(H   6,Al 12,Al  8)          102.7729         0.293044   
    104. A(Al  0,Al 12,H  21)           90.3756         0.267570   
    105. A(Al  0,Al 12,Al  8)          100.0768         0.270340   
    106. A(H  14,Al 12,Al 19)          101.3634         0.428579   
    107. A(H  13,Al 12,Al 19)           76.7015         0.376451   
    108. A(H   9,Al 12,Al 19)          125.9325         0.390045   
    109. A(Al  0,Al 12,H   6)           25.4276         0.292956   
    110. A(Al  0,Al 12,H  22)          165.6707         0.267310   
    111. A(Al  8,Al 12,Al 19)          129.4488         0.356753   
    112. A(H   6,Al 12,Al 19)          125.9767         0.390148   
    113. A(Al  0,Al 12,Al 19)          129.4385         0.356638   
    114. A(Al 19,Al 12,H  22)           39.0613         0.352280   
    115. A(Al 16,Al 12,Al 19)           59.7709         0.313061   
    116. A(Al 16,Al 12,H  22)           70.6657         0.238277   
    117. A(H  13,Al 12,H  22)           82.8346         0.280510   
    118. A(H  14,Al 12,Al 16)          161.1087         0.281538   
    119. A(H  13,Al 12,Al 16)           16.9712         0.251982   
    120. A(H   9,Al 12,Al 16)           90.6627         0.259690   
    121. A(Al  8,Al 12,Al 16)          114.4565         0.240814   
    122. A(H   6,Al 12,Al 16)           89.3214         0.259748   
    123. A(Al  0,Al 12,Al 16)          112.8661         0.240748   
    124. A(H   9,Al 12,H  22)           90.8534         0.289567   
    125. A(Al  8,Al 12,H  21)          165.7028         0.267646   
    126. A(H  13,Al 12,H  21)           83.0335         0.280789   
    127. A(Al 12,H  13,Al 16)          144.8274         0.319624   
    128. A(H  18,Al 16,H  23)          103.9751         0.343206   
    129. A(H  13,Al 16,H  23)           95.0454         0.324970   
    130. A(Al 12,Al 16,H  23)           76.9152         0.255760   
    131. A(H  17,Al 16,H  23)          103.6170         0.343212   
    132. A(Al 19,Al 16,H  23)           28.0939         0.301778   
    133. A(H  18,Al 16,Al 19)          111.0616         0.336098   
    134. A(H  17,Al 16,Al 19)          113.5765         0.336104   
    135. A(H  13,Al 16,Al 19)           66.9945         0.318371   
    136. A(Al 12,Al 16,Al 19)           48.8331         0.251097   
    137. A(H  17,Al 16,H  18)          128.8338         0.384215   
    138. A(H  13,Al 16,H  18)          109.7244         0.363030   
    139. A(Al 12,Al 16,H  18)          112.3654         0.282658   
    140. A(H  13,Al 16,H  17)          109.7413         0.363037   
    141. A(Al 12,Al 16,H  17)          115.3749         0.282663   
    142. A(Al 12,Al 16,H  13)           18.2014         0.268765   
    143. A(H  22,Al 19,H  23)          101.4903         0.346033   
    144. A(H  21,Al 19,H  23)          101.2972         0.345890   
    145. A(H  20,Al 19,H  23)          114.6181         0.365026   
    146. A(Al 16,Al 19,H  23)           29.7112         0.317991   
    147. A(Al 12,Al 19,H  23)          101.0917         0.405525   
    148. A(H  21,Al 19,H  22)           91.5882         0.349440   
    149. A(H  20,Al 19,H  22)          121.7331         0.368841   
    150. A(Al 16,Al 19,H  22)           81.5858         0.321156   
    151. A(Al 12,Al 19,H  22)           46.0671         0.409900   
    152. A(H  20,Al 19,H  21)          121.6834         0.368685   
    153. A(Al 16,Al 19,H  21)           80.0389         0.321026   
    154. A(Al 12,Al 19,H  21)           46.0087         0.409721   
    155. A(Al 16,Al 19,H  20)          144.3021         0.338311   
    156. A(Al 12,Al 19,H  20)          144.2899         0.433613   
    157. A(Al 12,Al 19,Al 16)           71.3960         0.374890   
    158. A(Al 12,H  21,Al 19)           94.9142         0.302987   
    159. A(Al 12,H  22,Al 19)           94.8715         0.302795   
    160. A(Al 16,H  23,Al 19)          122.1949         0.324578   
    161. D(H   2,Al  1,Al  0,H   6)    -54.9298         0.010000   
    162. D(H   2,Al  1,Al  0,H   4)     70.3462         0.010000   
    163. D(H   3,Al  1,Al  0,H   4)    178.0440         0.010000   
    164. D(H   2,Al  1,Al  0,Al 12)    -28.8313         0.010000   
    165. D(H   3,Al  1,Al  0,Al 12)     78.8665         0.010000   
    166. D(H   3,Al  1,Al  0,H   5)    -53.1562         0.010000   
    167. D(H   3,Al  1,Al  0,H   6)     52.7680         0.010000   
    168. D(H   3,Al  1,Al  0,H  11)    162.0083         0.010000   
    169. D(H   2,Al  1,Al  0,H  11)     54.3105         0.010000   
    170. D(H   2,Al  1,Al  0,H   5)   -160.8541         0.010000   
    171. D(Al  8,H   2,Al  1,H   7)   -138.7155         0.010000   
    172. D(Al  8,H   2,Al  1,Al  0)     88.9383         0.010000   
    173. D(Al  8,H   2,Al  1,H   4)    113.2394         0.010000   
    174. D(Al  8,H   2,Al  1,H   3)      2.3574         0.010000   
    175. D(Al  0,H   4,Al  1,H   3)     -2.0496         0.010000   
    176. D(Al  0,H   4,Al  1,Al  8)    -88.6529         0.010000   
    177. D(Al  1,H   4,Al  0,H   6)     55.0316         0.010000   
    178. D(Al  1,H   4,Al  0,Al 12)     77.2358         0.010000   
    179. D(Al  0,H   4,Al  1,H   7)    138.9716         0.010000   
    180. D(Al  1,H   4,Al  0,H  11)    167.3093         0.010000   
    181. D(Al  0,H   4,Al  1,H   2)   -112.9285         0.010000   
    182. D(Al  1,H   4,Al  0,H   5)    -55.0035         0.010000   
    183. D(Al 12,H   6,Al  0,H   5)    170.5375         0.010000   
    184. D(Al 12,H   6,Al  0,H  11)    -49.9022         0.010000   
    185. D(Al 12,H   6,Al  0,H   4)     58.8783         0.010000   
    186. D(Al 12,H   6,Al  0,Al  1)     79.9022         0.010000   
    187. D(H   2,Al  8,Al  1,Al  0)    -96.4196         0.010000   
    188. D(H   2,Al  8,Al  1,H   4)    -70.0610         0.010000   
    189. D(H   2,Al  8,Al  1,H   7)     50.3530         0.010000   
    190. D(H   2,Al  8,Al  1,H   3)   -177.7501         0.010000   
    191. D(H   9,Al  8,Al  1,Al  0)     28.5802         0.010000   
    192. D(H  10,Al  8,H   2,Al  1)     54.7304         0.010000   
    193. D(H  15,Al  8,H   2,Al  1)   -167.5498         0.010000   
    194. D(H  10,Al  8,Al  1,Al  0)    134.5320         0.010000   
    195. D(H   9,Al  8,H   2,Al  1)    -55.3184         0.010000   
    196. D(H   9,Al  8,Al  1,H   7)    175.3528         0.010000   
    197. D(Al 12,Al  8,H   2,Al  1)    -77.5197         0.010000   
    198. D(H   9,Al  8,Al  1,H   3)    -52.7503         0.010000   
    199. D(H   9,Al  8,Al  1,H   2)    124.9998         0.010000   
    200. D(H   9,Al  8,Al  1,H   4)     54.9388         0.010000   
    201. D(Al 12,H   9,Al  8,H  15)     50.0929         0.010000   
    202. D(Al 12,H   9,Al  8,Al  1)    -79.8167         0.010000   
    203. D(Al 12,H   9,Al  8,H  10)   -170.3730         0.010000   
    204. D(Al 12,H   9,Al  8,H   2)    -58.7015         0.010000   
    205. D(Al  8,Al 12,H   6,Al  0)    -86.6180         0.010000   
    206. D(H  13,Al 12,H   6,Al  0)    171.7768         0.010000   
    207. D(H   9,Al 12,H   6,Al  0)   -110.9568         0.010000   
    208. D(H   9,Al 12,Al  0,H  11)   -153.5988         0.010000   
    209. D(H   9,Al 12,Al  0,H   6)     72.7349         0.010000   
    210. D(H   9,Al 12,Al  0,H   5)     60.5169         0.010000   
    211. D(H  14,Al 12,H   6,Al  0)     -6.8789         0.010000   
    212. D(Al  8,Al 12,Al  0,H   5)     86.3619         0.010000   
    213. D(Al  8,Al 12,Al  0,H  11)   -127.7537         0.010000   
    214. D(Al  8,Al 12,Al  0,H   6)     98.5800         0.010000   
    215. D(H   9,Al 12,Al  0,H   4)    -48.9565         0.010000   
    216. D(Al  8,Al 12,Al  0,H   4)    -23.1115         0.010000   
    217. D(Al  8,Al 12,Al  0,Al  1)      2.4321         0.010000   
    218. D(Al 16,Al 12,H   6,Al  0)    158.4304         0.010000   
    219. D(H   6,Al 12,Al  0,H  11)    133.6663         0.010000   
    220. D(H   9,Al 12,Al  0,Al  1)    -23.4130         0.010000   
    221. D(H   6,Al 12,Al  0,H   5)    -12.2180         0.010000   
    222. D(H   6,Al 12,Al  0,H   4)   -121.6914         0.010000   
    223. D(H   6,Al 12,Al  0,Al  1)    -96.1479         0.010000   
    224. D(H  22,Al 12,H   9,Al  8)    -89.1412         0.010000   
    225. D(Al 19,Al 12,H   9,Al  8)   -107.6521         0.010000   
    226. D(Al 16,Al 12,H   9,Al  8)   -159.8138         0.010000   
    227. D(H  14,Al 12,H   9,Al  8)      6.7261         0.010000   
    228. D(H  13,Al 12,H   9,Al  8)   -171.6492         0.010000   
    229. D(H   6,Al 12,H   9,Al  8)    110.8163         0.010000   
    230. D(Al  0,Al 12,H   9,Al  8)     86.5349         0.010000   
    231. D(H   9,Al 12,Al  8,H  15)   -133.4822         0.010000   
    232. D(H   9,Al 12,Al  8,H   2)    121.8428         0.010000   
    233. D(H   9,Al 12,Al  8,Al  1)     96.2487         0.010000   
    234. D(H   6,Al 12,Al  8,H  15)    153.6433         0.010000   
    235. D(H   6,Al 12,Al  8,H  10)    -60.4352         0.010000   
    236. D(H   6,Al 12,Al  8,H   2)     48.9683         0.010000   
    237. D(H   6,Al 12,Al  8,Al  1)     23.3743         0.010000   
    238. D(H   9,Al 12,Al  8,H  10)     12.4393         0.010000   
    239. D(Al  0,Al 12,Al  8,H  15)    127.8364         0.010000   
    240. D(Al  0,Al 12,Al  8,H  10)    -86.2421         0.010000   
    241. D(Al  0,Al 12,Al  8,H   9)    -98.6813         0.010000   
    242. D(H   6,Al 12,Al  8,H   9)    -72.8745         0.010000   
    243. D(Al  0,Al 12,Al  8,H   2)     23.1615         0.010000   
    244. D(H  22,Al 12,H   6,Al  0)    144.8385         0.010000   
    245. D(H  21,Al 12,H   6,Al  0)     89.0559         0.010000   
    246. D(H  21,Al 12,H   9,Al  8)   -144.9879         0.010000   
    247. D(Al 19,Al 12,H   6,Al  0)    107.5371         0.010000   
    248. D(Al  0,Al 12,Al  8,Al  1)     -2.4326         0.010000   
    249. D(Al 16,H  13,Al 12,H  21)    -35.4562         0.010000   
    250. D(Al 16,H  13,Al 12,Al 19)      3.7623         0.010000   
    251. D(Al 16,H  13,Al 12,H   9)    135.3625         0.010000   
    252. D(Al 16,H  13,Al 12,Al  8)    131.6781         0.010000   
    253. D(Al 16,H  13,Al 12,H   6)   -127.7412         0.010000   
    254. D(Al 16,H  13,Al 12,H  22)     43.0087         0.010000   
    255. D(Al 16,H  13,Al 12,Al  0)   -124.1141         0.010000   
    256. D(H  23,Al 16,H  13,Al 12)     -5.0555         0.010000   
    257. D(Al 19,Al 16,H  13,Al 12)     -3.4654         0.010000   
    258. D(H  17,Al 16,H  13,Al 12)   -111.4822         0.010000   
    259. D(H  17,Al 16,Al 12,H  14)   -103.1867         0.010000   
    260. D(H  17,Al 16,Al 12,H  13)     75.7807         0.010000   
    261. D(H  17,Al 16,Al 12,Al  8)     22.8975         0.010000   
    262. D(H  17,Al 16,Al 12,H   6)    126.6372         0.010000   
    263. D(H  17,Al 16,Al 12,Al  0)    136.5013         0.010000   
    264. D(H  13,Al 16,Al 12,H  22)   -134.1736         0.010000   
    265. D(H  13,Al 16,Al 12,H  21)    142.0356         0.010000   
    266. D(H  17,Al 16,Al 12,H   9)     32.2790         0.010000   
    267. D(H  13,Al 16,Al 12,Al 19)   -175.7615         0.010000   
    268. D(H  13,Al 16,Al 12,H  14)   -178.9674         0.010000   
    269. D(H  13,Al 16,Al 12,H   9)    -43.5017         0.010000   
    270. D(H  18,Al 16,H  13,Al 12)    101.7549         0.010000   
    271. D(H  13,Al 16,Al 12,Al  8)    -52.8832         0.010000   
    272. D(H  13,Al 16,Al 12,H   6)     50.8565         0.010000   
    273. D(H  13,Al 16,Al 12,Al  0)     60.7206         0.010000   
    274. D(H  20,Al 19,Al 12,H  13)    179.9350         0.010000   
    275. D(H  20,Al 19,Al 12,H   9)    115.1447         0.010000   
    276. D(H  20,Al 19,Al 12,Al  8)     83.0962         0.010000   
    277. D(H  20,Al 19,Al 12,Al  0)    -82.8806         0.010000   
    278. D(Al 16,Al 19,Al 12,H  22)    -96.3101         0.010000   
    279. D(Al 16,Al 19,Al 12,H  21)     94.0873         0.010000   
    280. D(Al 16,Al 19,Al 12,H  14)    178.9418         0.010000   
    281. D(Al 16,Al 19,Al 12,H  13)     -1.2702         0.010000   
    282. D(H  20,Al 19,Al 12,H   6)   -114.8941         0.010000   
    283. D(Al 16,Al 19,Al 12,H   9)    -66.0605         0.010000   
    284. D(Al 16,Al 19,Al 12,Al  8)    -98.1090         0.010000   
    285. D(Al 16,Al 19,Al 12,H   6)     63.9007         0.010000   
    286. D(H  20,Al 19,Al 12,H  14)      0.1470         0.010000   
    287. D(Al 16,Al 19,Al 12,Al  0)     95.9142         0.010000   
    288. D(H  21,Al 19,Al 16,Al 12)     46.7691         0.010000   
    289. D(H  20,Al 19,Al 16,H  23)     -3.1336         0.010000   
    290. D(H  20,Al 19,Al 16,H  18)     76.9699         0.010000   
    291. D(H  20,Al 19,Al 16,H  17)    -77.3477         0.010000   
    292. D(H  20,Al 19,Al 16,H  13)   -179.7684         0.010000   
    293. D(H  20,Al 19,Al 16,Al 12)    178.7944         0.010000   
    294. D(Al 12,Al 19,Al 16,H  23)    178.0720         0.010000   
    295. D(Al 12,Al 19,Al 16,H  18)   -101.8245         0.010000   
    296. D(Al 12,Al 19,Al 16,H  17)    103.8579         0.010000   
    297. D(Al 12,Al 19,Al 16,H  13)      1.4372         0.010000   
    298. D(Al 12,H  21,Al 19,H  23)    -94.5787         0.010000   
    299. D(Al 12,H  21,Al 19,H  22)      7.4707         0.010000   
    300. D(Al 12,H  21,Al 19,H  20)    136.9225         0.010000   
    301. D(Al 12,H  21,Al 19,Al 16)    -73.6998         0.010000   
    302. D(Al 19,H  21,Al 12,H  22)     -6.6829         0.010000   
    303. D(Al 19,H  21,Al 12,Al 16)     67.0367         0.010000   
    304. D(Al 19,H  21,Al 12,H  14)   -101.1502         0.010000   
    305. D(Al 19,H  21,Al 12,H  13)     77.4588         0.010000   
    306. D(Al 19,H  21,Al 12,H   9)     51.1723         0.010000   
    307. D(Al 19,H  21,Al 12,Al  8)    -41.3453         0.010000   
    308. D(Al 19,H  21,Al 12,H   6)    155.9863         0.010000   
    309. D(Al 19,H  21,Al 12,Al  0)   -178.5891         0.010000   
    310. D(Al 12,H  22,Al 19,H  23)     94.4023         0.010000   
    311. D(Al 12,H  22,Al 19,H  21)     -7.4633         0.010000   
    312. D(Al 12,H  22,Al 19,Al 16)     72.2234         0.010000   
    313. D(Al 19,H  22,Al 12,H  21)      6.6851         0.010000   
    314. D(Al 19,H  22,Al 12,Al 16)    -65.5209         0.010000   
    315. D(Al 19,H  22,Al 12,H  14)    101.2300         0.010000   
    316. D(Al 19,H  22,Al 12,H  13)    -77.7019         0.010000   
    317. D(Al 19,H  22,Al 12,H   9)   -155.9238         0.010000   
    318. D(Al 12,H  22,Al 19,H  20)   -136.8779         0.010000   
    319. D(Al 19,H  22,Al 12,Al  8)    178.6110         0.010000   
    320. D(Al 19,H  22,Al 12,H   6)    -51.1006         0.010000   
    321. D(Al 19,H  22,Al 12,Al  0)     41.3558         0.010000   
    322. D(Al 16,H  23,Al 19,H  22)    -48.8908         0.010000   
    323. D(Al 16,H  23,Al 19,H  21)     45.0915         0.010000   
    324. D(Al 16,H  23,Al 19,H  20)    177.9893         0.010000   
    325. D(Al 16,H  23,Al 19,Al 12)     -1.8620         0.010000   
    326. D(Al 19,H  23,Al 16,H  18)   -108.6751         0.010000   
    327. D(Al 19,H  23,Al 16,H  17)    114.8423         0.010000   
    328. D(Al 19,H  23,Al 16,H  13)      3.1093         0.010000   
    329. D(Al 19,H  23,Al 16,Al 12)      1.4900         0.010000   
    -----------------------------------------------------------------

Number of atoms                         .... 24
Number of degrees of freedom            .... 329


         *************************************************************
         *                GEOMETRY OPTIMIZATION CYCLE   1            *
         *************************************************************
---------------------------------
CARTESIAN COORDINATES (ANGSTROEM)
---------------------------------
  Al    -0.001171    1.230305    3.068656
  Al     0.315324   -0.307941    0.406385
  H      1.416390   -1.551051    0.829214
  H     -1.163217   -0.797524    0.742891
  H      0.856430    0.717356    1.668493
  H     -1.364139    1.908071    2.594271
  H     -0.422980   -0.304040    3.675161
  H      0.850831    0.326970   -0.949154
  Al     1.069379   -3.115252    1.454866
  H      0.151482   -2.640473    2.808684
  H      0.051209   -3.832783    0.459520
  H      1.110533    1.873624    4.010922
  Al     0.628700   -1.615438    4.135654
  H     -0.964712   -2.225499    4.705731
  H      2.066910   -1.091283    3.675216
  H      2.475774   -3.674063    1.952404
  Al    -1.805648   -2.854297    6.018501
  H     -2.174667   -4.377335    5.740971
  H     -2.699496   -1.715298    6.679302
  Al     1.128685   -2.406947    6.598848
  H      2.253646   -2.537429    7.701734
  H      0.743735   -0.938239    5.910157
  H      1.282476   -3.121382    5.101089
  H     -0.389114   -2.954672    7.077313

----------------------------
CARTESIAN COORDINATES (A.U.)
----------------------------
  NO LB      ZA    FRAG     MASS         X           Y           Z
   0 Al   13.0000    0    26.982   -0.002213    2.324940    5.798920
   1 Al   13.0000    0    26.982    0.595877   -0.581923    0.767956
   2 H     1.0000    0     1.008    2.676590   -2.931061    1.566987
   3 H     1.0000    0     1.008   -2.198162   -1.507102    1.403861
   4 H     1.0000    0     1.008    1.618417    1.355606    3.152994
   5 H     1.0000    0     1.008   -2.577849    3.605731    4.902461
   6 H     1.0000    0     1.008   -0.799317   -0.574553    6.945047
   7 H     1.0000    0     1.008    1.607838    0.617884   -1.793641
   8 Al   13.0000    0    26.982    2.020834   -5.886974    2.749299
   9 H     1.0000    0     1.008    0.286259   -4.989771    5.307643
  10 H     1.0000    0     1.008    0.096771   -7.242910    0.868367
  11 H     1.0000    0     1.008    2.098604    3.540637    7.579544
  12 Al   13.0000    0    26.982    1.188071   -3.052735    7.815253
  13 H     1.0000    0     1.008   -1.823041   -4.205584    8.892543
  14 H     1.0000    0     1.008    3.905893   -2.062226    6.945152
  15 H     1.0000    0     1.008    4.678534   -6.942973    3.689510
  16 Al   13.0000    0    26.982   -3.412181   -5.393840   11.373319
  17 H     1.0000    0     1.008   -4.109526   -8.271964   10.848863
  18 H     1.0000    0     1.008   -5.101308   -3.241443   12.622051
  19 Al   13.0000    0    26.982    2.132906   -4.548470   12.470015
  20 H     1.0000    0     1.008    4.258775   -4.795047   14.554168
  21 H     1.0000    0     1.008    1.405456   -1.773014   11.168579
  22 H     1.0000    0     1.008    2.423528   -5.898557    9.639661
  23 H     1.0000    0     1.008   -0.735318   -5.583521   13.374184

--------------------------------
INTERNAL COORDINATES (ANGSTROEM)
--------------------------------
 Al     0   0   0     0.000000000000     0.00000000     0.00000000
 Al     1   0   0     3.090964027185     0.00000000     0.00000000
 H      2   1   0     1.713608396219   102.37361242     0.00000000
 H      2   1   3     1.593428476747    82.87705802   107.69781977
 H      2   1   3     1.713751178207    25.87802159   289.65377928
 H      1   2   3     1.594393237326    92.45384846   199.14594621
 H      1   2   3     1.702934637146    83.32301484   305.07021188
 H      2   1   3     1.589769126734   124.76037764   239.61852961
 Al     3   2   1     1.720053514497   128.30345706    88.93829894
 H      9   3   2     1.703165479836    98.29985680   304.68163594
 H      9   3   2     1.594439021263   108.11980916    54.73043290
 H      1   2   3     1.592988027458   129.71651858    54.31049394
 Al     7   1   2     1.742942797379   128.50301771    79.90220194
 H     13   7   1     1.798923382383    78.72166339   171.77684818
 H     13   7   1     1.598495297966   102.71313915   353.12108433
 H      9   3   2     1.593034162732   104.74369026   192.45021873
 Al    14  13   7     1.681049126199   144.82740699   232.25879180
 H     17  14  13     1.591490901069   109.74128691   248.51779773
 H     17  14  13     1.591521468766   109.72444347   101.75485806
 Al    13   7   1     2.635108578224   125.97665421   107.53712087
 H     20  13   7     1.580797690462   144.28987375   245.10594512
 H     20  13   7     1.667208492769    46.00874353   329.81342601
 H     20  13   7     1.666538627397    46.06712960   160.21084775
 H     20  13   7     1.683046368190   101.09170398    64.87437838

---------------------------
INTERNAL COORDINATES (A.U.)
---------------------------
 Al     0   0   0     0.000000000000     0.00000000     0.00000000
 Al     1   0   0     5.841075501183     0.00000000     0.00000000
 H      2   1   0     3.238250569642   102.37361242     0.00000000
 H      2   1   3     3.011143435043    82.87705802   107.69781977
 H      2   1   3     3.238520388496    25.87802159   289.65377928
 H      1   2   3     3.012966568322    92.45384846   199.14594621
 H      1   2   3     3.218080088174    83.32301484   305.07021188
 H      2   1   3     3.004228265690   124.76037764   239.61852961
 Al     3   2   1     3.250430078089   128.30345706    88.93829894
 H      9   3   2     3.218516317638    98.29985680   304.68163594
 H      9   3   2     3.013053087425   108.11980916    54.73043290
 H      1   2   3     3.010311106511   129.71651858    54.31049394
 Al     7   1   2     3.293684554136   128.50301771    79.90220194
 H     13   7   1     3.399472528611    78.72166339   171.77684818
 H     13   7   1     3.020718339516   102.71313915   353.12108433
 H      9   3   2     3.010398289544   104.74369026   192.45021873
 Al    14  13   7     3.176722466185   144.82740699   232.25879180
 H     17  14  13     3.007481947647   109.74128691   248.51779773
 H     17  14  13     3.007539712224   109.72444347   101.75485806
 Al    13   7   1     4.979633545990   125.97665421   107.53712087
 H     20  13   7     2.987274708109   144.28987375   245.10594512
 H     20  13   7     3.150567459482    46.00874353   329.81342601
 H     20  13   7     3.149301597381    46.06712960   160.21084775
 H     20  13   7     3.180496706570   101.09170398    64.87437838

---------------------
BASIS SET INFORMATION
---------------------
There are 2 groups of distinct atoms

 Group   1 Type Al  : 14s9p3d1f contracted to 5s5p2d1f pattern {73211/51111/21/1}
 Group   2 Type H   : 5s1p contracted to 3s1p pattern {311/1}

Atom   0Al   basis set group =>   1
Atom   1Al   basis set group =>   1
Atom   2H    basis set group =>   2
Atom   3H    basis set group =>   2
Atom   4H    basis set group =>   2
Atom   5H    basis set group =>   2
Atom   6H    basis set group =>   2
Atom   7H    basis set group =>   2
Atom   8Al   basis set group =>   1
Atom   9H    basis set group =>   2
Atom  10H    basis set group =>   2
Atom  11H    basis set group =>   2
Atom  12Al   basis set group =>   1
Atom  13H    basis set group =>   2
Atom  14H    basis set group =>   2
Atom  15H    basis set group =>   2
Atom  16Al   basis set group =>   1
Atom  17H    basis set group =>   2
Atom  18H    basis set group =>   2
Atom  19Al   basis set group =>   1
Atom  20H    basis set group =>   2
Atom  21H    basis set group =>   2
Atom  22H    basis set group =>   2
Atom  23H    basis set group =>   2
---------------------------------
AUXILIARY/J BASIS SET INFORMATION
---------------------------------
There are 2 groups of distinct atoms

 Group   1 Type Al  : 14s5p5d2f1g contracted to 8s4p3d1f1g pattern {71111111/2111/311/2/1}
 Group   2 Type H   : 5s2p1d contracted to 3s1p1d pattern {311/2/1}

Atom   0Al   basis set group =>   1
Atom   1Al   basis set group =>   1
Atom   2H    basis set group =>   2
Atom   3H    basis set group =>   2
Atom   4H    basis set group =>   2
Atom   5H    basis set group =>   2
Atom   6H    basis set group =>   2
Atom   7H    basis set group =>   2
Atom   8Al   basis set group =>   1
Atom   9H    basis set group =>   2
Atom  10H    basis set group =>   2
Atom  11H    basis set group =>   2
Atom  12Al   basis set group =>   1
Atom  13H    basis set group =>   2
Atom  14H    basis set group =>   2
Atom  15H    basis set group =>   2
Atom  16Al   basis set group =>   1
Atom  17H    basis set group =>   2
Atom  18H    basis set group =>   2
Atom  19Al   basis set group =>   1
Atom  20H    basis set group =>   2
Atom  21H    basis set group =>   2
Atom  22H    basis set group =>   2
Atom  23H    basis set group =>   2


           ************************************************************
           *        Program running with 24 parallel MPI-processes    *
           *              working on a common directory               *
           ************************************************************
------------------------------------------------------------------------------
                             ORCA STARTUP CALCULATIONS
                           -- RI-GTO INTEGRALS CHOSEN --
------------------------------------------------------------------------------
------------------------------------------------------------------------------
                   ___                                                        
                  /   \      - P O W E R E D   B Y -                         
                 /     \                                                     
                 |  |  |   _    _      __       _____    __    __             
                 |  |  |  | |  | |    /  \     |  _  \  |  |  /  |          
                  \  \/   | |  | |   /    \    | | | |  |  | /  /          
                 / \  \   | |__| |  /  /\  \   | |_| |  |  |/  /          
                |  |  |   |  __  | /  /__\  \  |    /   |      \           
                |  |  |   | |  | | |   __   |  |    \   |  |\   \          
                \     /   | |  | | |  |  |  |  | |\  \  |  | \   \       
                 \___/    |_|  |_| |__|  |__|  |_| \__\ |__|  \__/        
                                                                              
                      - O R C A' S   B I G   F R I E N D -                    
                                      &                                       
                       - I N T E G R A L  F E E D E R -                       
                                                                              
 v1 FN, 2020, v2 2021, v3 2022-2024                                           
------------------------------------------------------------------------------


----------------------
SHARK INTEGRAL PACKAGE
----------------------

Number of atoms                             ...     24
Number of basis functions                   ...    330
Number of shells                            ...    150
Maximum angular momentum                    ...      3
Integral batch strategy                     ... SHARK/LIBINT Hybrid
RI-J (if used) integral strategy            ... SPLIT-RIJ (Revised 2003 algorithm where possible)
Printlevel                                  ...      1
Contraction scheme used                     ... SEGMENTED contraction
Prescreening option                         ... SCHWARTZ
   Thresh                                   ... 2.500e-11
   Tcut                                     ... 2.500e-12
   Tpresel                                  ... 2.500e-12 
Coulomb Range Separation                    ... NOT USED
Exchange Range Separation                   ... NOT USED
Multipole approximations                    ... NOT USED
Finite Nucleus Model                        ... NOT USED
CABS basis                                  ... NOT available
Auxiliary Coulomb fitting basis             ... AVAILABLE
   # of basis functions in Aux-J            ...    504
   # of shells in Aux-J                     ...    192
   Maximum angular momentum in Aux-J        ...      4
Auxiliary J/K fitting basis                 ... NOT available
Auxiliary Correlation fitting basis         ... NOT available
Auxiliary 'external' fitting basis          ... NOT available

Checking pre-screening integrals            ... done (  0.0 sec) Dimension = 150
   => SHARK Basis and OBASIS are compatible. Storing Pre-screening
Shell pair information
Shell pair cut-off parameter TPreSel        ...   2.5e-12
Total number of shell pairs                 ...     11325
Shell pairs after pre-screening             ...      9227
Total number of primitive shell pairs       ...     36855
Primitive shell pairs kept                  ...     20703
          la=0 lb=0:   2915 shell pairs
          la=1 lb=0:   3058 shell pairs
          la=1 lb=1:    825 shell pairs
          la=2 lb=0:    952 shell pairs
          la=2 lb=1:    545 shell pairs
          la=2 lb=2:     78 shell pairs
          la=3 lb=0:    487 shell pairs
          la=3 lb=1:    274 shell pairs
          la=3 lb=2:     72 shell pairs
          la=3 lb=3:     21 shell pairs

Checking whether 4 symmetric matrices of dimension 330 fit in memory
:Max Core in MB      =   4096.00
 MB in use           =     14.77
 MB left             =   4081.23
 MB needed           =      1.67
 Data fit in memory  = YES
Calculating RI/J V-Matrix + Cholesky decomp.... done (  0.1 sec)
Calculating Nuclear repulsion               ... done (  0.0 sec) ENN=    594.388319867390 Eh

Diagonalization of the overlap matrix:
Smallest eigenvalue                        ... 4.526e-04
Time for diagonalization                   ...    0.061 sec
Threshold for overlap eigenvalues          ... 1.000e-07
Number of eigenvalues below threshold      ... 0
Time for construction of square roots      ...    0.021 sec
Total time needed                          ...    0.085 sec

-------------------
DFT GRID GENERATION
-------------------

General Integration Accuracy     IntAcc      ... 4.959
Radial Grid Type                 RadialGrid  ... OptM3 with GC (2021)
Angular Grid (max. ang.)         AngularGrid ... 6 (Lebedev-590)
Angular grid pruning method      GridPruning ... 4 (adaptive)
Weight generation scheme         WeightScheme... mBecke (2022)
Basis function cutoff            BFCut       ... 1.0000e-11
Integration weight cutoff        WCut        ... 1.0000e-14
Partially contracted basis set               ... off
Rotationally invariant grid construction     ... off
Angular grids for H and He will be reduced by one unit

Total number of grid points                  ...   251916
Total number of batches                      ...     3947
Average number of points per batch           ...       63
Average number of grid points per atom       ...    10496
Grids setup in   6.1 sec
Initializing property integral containers    ... done (  0.0 sec)

SHARK setup successfully completed in   6.9 seconds

Maximum memory used throughout the entire STARTUP-calculation: 54.8 MB


           ************************************************************
           *        Program running with 24 parallel MPI-processes    *
           *              working on a common directory               *
           ************************************************************
-------------------------------------------------------------------------------
                                 ORCA GUESS
                   Start orbitals & Density for SCF / CASSCF
-------------------------------------------------------------------------------

------------
SCF SETTINGS
------------
Hamiltonian:
 Density Functional     Method          .... DFT(GTOs)
 Exchange Functional    Exchange        .... PBE
   PBE kappa parameter   XKappa         ....  0.804000
   PBE mue parameter    XMuePBE         ....  0.219520
 Correlation Functional Correlation     .... PBE
   PBE beta parameter  CBetaPBE         ....  0.066725
 LDA part of GGA corr.  LDAOpt          .... PW91-LDA
 Gradients option       PostSCFGGA      .... off
   NL short-range parameter             ....  6.400000
 RI-approximation to the Coulomb term is turned on
   Number of AuxJ basis functions       .... 504


General Settings:
 Integral files         IntName         .... run
 Hartree-Fock type      HFTyp           .... RHF
 Total Charge           Charge          ....    0
 Multiplicity           Mult            ....    1
 Number of Electrons    NEL             ....   96
 Basis Dimension        Dim             ....  330
 Nuclear Repulsion      ENuc            ....    594.3883198674 Eh

Convergence Acceleration:
 AO-DIIS                CNVDIIS         .... on
   Start iteration      DIISMaxIt       ....    12
   Startup error        DIISStart       ....  0.200000
   # of expansion vecs  DIISMaxEq       ....     5
   Bias factor          DIISBfac        ....   1.050
   Max. coefficient     DIISMaxC        ....  10.000
 MO-DIIS                CNVKDIIS        .... off
 Trust-Rad. Augm. Hess. CNVTRAH         .... auto
   Auto Start mean grad. ratio tolernc. ....  1.125000
   Auto Start start iteration           ....    50
   Auto Start num. interpolation iter.  ....    10
   Max. Number of Micro iterations      ....    24
   Max. Number of Macro iterations      .... Maxiter - #DIIS iter
   Number of Davidson start vectors     ....     2
   Converg. threshold    (grad. norm)   ....   1.000e-05
   Grad. Scal. Fac. for Micro threshold ....   0.100
   Minimum threshold for Micro iter.    ....   1.000e-02
   NR start threshold (gradient norm)   ....   1.000e-04
   Initial trust radius                 ....   0.400
   Minimum AH scaling param. (alpha)    ....   1.000
   Maximum AH scaling param. (alpha)    .... 1000.000
   Quad. conv. algorithm                .... NR
   White noise on init. David. guess    .... on
   Maximum white noise                  ....   0.010
   Pseudo random numbers                .... off
   Inactive MOs                         .... canonical
   Orbital update algorithm             .... Taylor
   Preconditioner                       .... Diag
   Full preconditioner red. dimension   ....   250
 SOSCF                 CNVSOSCF           .... on
   Start iteration     SOSCFMaxIt         ....   150
   Startup grad/error  SOSCFStart         ....  0.003300
   Hessian update      SOSCFHessUp        .... L-BFGS
   Autom. constraints  SOSCFAutoConstrain .... off
 Level Shifting         CNVShift        .... on
   Level shift para.    LevelShift      ....    0.2500
   Turn off err/grad.   ShiftErr        ....    0.0010
 Zerner damping         CNVZerner       .... off
 Static damping         CNVDamp         .... on
   Fraction old density DampFac         ....    0.7000
   Max. Damping (<1)    DampMax         ....    0.9800
   Min. Damping (>=0)   DampMin         ....    0.0000
   Turn off err/grad.   DampErr         ....    0.1000

SCF Procedure:
 Maximum # iterations   MaxIter         ....   125
 SCF integral mode      SCFMode         .... Direct
   Integral package                     .... SHARK and LIBINT hybrid scheme
 Reset frequency        DirectResetFreq ....    20
 Integral Threshold     Thresh          ....  2.500e-11 Eh
 Primitive CutOff       TCut            ....  2.500e-12 Eh

Convergence Tolerance:
 Convergence Check Mode ConvCheckMode   .... Total+1el-Energy
 Convergence forced     ConvForced      .... 0
 Energy Change          TolE            ....  1.000e-08 Eh
 1-El. energy change                    ....  1.000e-05 Eh
 Orbital Gradient       TolG            ....  1.000e-05
 Orbital Rotation angle TolX            ....  1.000e-05
 DIIS Error             TolErr          ....  5.000e-07

------------------------------
INITIAL GUESS: MODEL POTENTIAL
------------------------------
Loading Hartree-Fock densities                     ... done
Calculating cut-offs                               ... done
Initializing the effective Hamiltonian             ... done
Setting up the integral package (SHARK)            ... done
Starting the Coulomb interaction                   ... done (   0.2 sec)
Making the grid                                    ... done (   0.2 sec)
Mapping shells                                     ... done
Starting the XC term evaluation                    ... done (   0.1 sec)
  promolecular density results
     # of electrons  =     95.996680698
     EX              =   -113.457459631
     EC              =     -3.338359006
     EX+EC           =   -116.795818637
Transforming the Hamiltonian                       ... done (   0.0 sec)
Diagonalizing the Hamiltonian                      ... done (   0.1 sec)
Back transforming the eigenvectors                 ... done (   0.0 sec)
Now organizing SCF variables                       ... done
                      ------------------
                      INITIAL GUESS DONE (   0.6 sec)
                      ------------------
             **** ENERGY FILE WAS UPDATED (run.en.tmp) ****
Finished Guess after   1.3 sec
Maximum memory used throughout the entire GUESS-calculation: 20.0 MB


           ************************************************************
           *        Program running with 24 parallel MPI-processes    *
           *              working on a common directory               *
           ************************************************************

-------------------------------------------------------------------------------------------
                                      ORCA LEAN-SCF
                              memory conserving SCF solver
-------------------------------------------------------------------------------------------

----------------------------------------D-I-I-S--------------------------------------------
Iteration    Energy (Eh)           Delta-E    RMSDP     MaxDP     DIISErr   Damp  Time(sec)
-------------------------------------------------------------------------------------------
               ***  Starting incremental Fock matrix formation  ***
    1    -1464.4422957138319816     0.00e+00  2.70e-03  1.85e-02  8.57e-02  0.700   1.1
    2    -1464.4669113565607859    -2.46e-02  2.47e-03  1.70e-02  5.81e-02  0.700   1.0
                               ***Turning on AO-DIIS***
    3    -1464.4827016060596634    -1.58e-02  1.46e-03  9.36e-03  3.46e-02  0.700   1.0
    4    -1464.4921192363078717    -9.42e-03  3.10e-03  1.90e-02  2.25e-02  0.000   0.9
                              *** Initializing SOSCF ***
---------------------------------------S-O-S-C-F--------------------------------------
Iteration    Energy (Eh)           Delta-E    RMSDP     MaxDP     MaxGrad    Time(sec)
--------------------------------------------------------------------------------------
    5    -1464.5109451498940416    -1.88e-02  2.92e-04  3.59e-03  2.01e-03     1.1
               *** Restarting incremental Fock matrix formation ***
    6    -1464.5109974668050654    -5.23e-05  1.76e-04  1.17e-03  2.86e-04     1.0
    7    -1464.5110018440434487    -4.38e-06  5.84e-05  1.03e-03  2.21e-04     0.8
    8    -1464.5110040179708903    -2.17e-06  2.51e-05  4.11e-04  5.10e-05     0.8
    9    -1464.5110041079071834    -8.99e-08  1.06e-05  2.01e-04  2.86e-05     0.8
   10    -1464.5110042044377678    -9.65e-08  6.07e-06  8.24e-05  8.00e-06     0.8
   11    -1464.5110042192516175    -1.48e-08  2.64e-06  3.37e-05  5.35e-06     0.8
   12    -1464.5110042058638555     1.34e-08  7.97e-07  1.11e-05  8.50e-07     0.8
                  *** Gradient check signals convergence ***

               *****************************************************
               *                     SUCCESS                       *
               *           SCF CONVERGED AFTER  12 CYCLES          *
               *****************************************************

             **** ENERGY FILE WAS UPDATED (run.en.tmp) ****

----------------
TOTAL SCF ENERGY
----------------

Total Energy       :      -1464.51100420909165 Eh          -39851.37043 eV

Components:
Nuclear Repulsion  :        594.38831986738955 Eh           16174.12846 eV
Electronic Energy  :      -2058.89932407648121 Eh          -56025.49889 eV
One Electron Energy:      -3218.33575601820075 Eh          -87575.36817 eV
Two Electron Energy:       1159.43643194171955 Eh           31549.86928 eV

Virial components:
Potential Energy   :      -2925.63381776502229 Eh          -79610.54350 eV
Kinetic Energy     :       1461.12281355593086 Eh           39759.17307 eV
Virial Ratio       :          2.00231889518234

DFT components:
N(Alpha)           :       48.000009209137 electrons
N(Beta)            :       48.000009209137 electrons
N(Total)           :       96.000018418274 electrons
E(X)               :     -114.341748037274 Eh       
E(C)               :       -3.290110507173 Eh       
E(XC)              :     -117.631858544446 Eh       

---------------
SCF CONVERGENCE
---------------

  Last Energy change         ...   -1.3388e-08  Tolerance :   1.0000e-08
  Last MAX-Density change    ...    1.1108e-05  Tolerance :   1.0000e-07
  Last RMS-Density change    ...    7.9741e-07  Tolerance :   5.0000e-09
  Last DIIS Error            ...    2.0116e-03  Tolerance :   5.0000e-07
  Last Orbital Gradient      ...    8.5044e-07  Tolerance :   1.0000e-05
  Last Orbital Rotation      ...    1.7547e-06  Tolerance :   1.0000e-05


----------------
ORBITAL ENERGIES
----------------

  NO   OCC          E(Eh)            E(eV) 
   0   2.0000     -55.408152     -1507.7325 
   1   2.0000     -55.403225     -1507.5984 
   2   2.0000     -55.385215     -1507.1083 
   3   2.0000     -55.377423     -1506.8963 
   4   2.0000     -55.373891     -1506.8002 
   5   2.0000     -55.373827     -1506.7985 
   6   2.0000      -3.964000      -107.8659 
   7   2.0000      -3.963513      -107.8527 
   8   2.0000      -3.945464      -107.3615 
   9   2.0000      -3.937905      -107.1558 
  10   2.0000      -3.934157      -107.0539 
  11   2.0000      -3.934094      -107.0521 
  12   2.0000      -2.567681       -69.8701 
  13   2.0000      -2.567521       -69.8658 
  14   2.0000      -2.567058       -69.8532 
  15   2.0000      -2.566907       -69.8491 
  16   2.0000      -2.562255       -69.7225 
  17   2.0000      -2.562180       -69.7204 
  18   2.0000      -2.551235       -69.4226 
  19   2.0000      -2.547872       -69.3311 
  20   2.0000      -2.542963       -69.1976 
  21   2.0000      -2.542710       -69.1907 
  22   2.0000      -2.540705       -69.1361 
  23   2.0000      -2.539187       -69.0948 
  24   2.0000      -2.539123       -69.0930 
  25   2.0000      -2.536942       -69.0337 
  26   2.0000      -2.536882       -69.0321 
  27   2.0000      -2.535388       -68.9914 
  28   2.0000      -2.531704       -68.8912 
  29   2.0000      -2.531639       -68.8894 
  30   2.0000      -0.511164       -13.9095 
  31   2.0000      -0.466618       -12.6973 
  32   2.0000      -0.423191       -11.5156 
  33   2.0000      -0.417183       -11.3521 
  34   2.0000      -0.403238       -10.9727 
  35   2.0000      -0.359172        -9.7736 
  36   2.0000      -0.345044        -9.3891 
  37   2.0000      -0.325005        -8.8438 
  38   2.0000      -0.315528        -8.5860 
  39   2.0000      -0.311250        -8.4695 
  40   2.0000      -0.309852        -8.4315 
  41   2.0000      -0.298068        -8.1108 
  42   2.0000      -0.287297        -7.8177 
  43   2.0000      -0.281637        -7.6637 
  44   2.0000      -0.280440        -7.6312 
  45   2.0000      -0.270717        -7.3666 
  46   2.0000      -0.264044        -7.1850 
  47   2.0000      -0.253967        -6.9108 
  48   0.0000      -0.091289        -2.4841 
  49   0.0000      -0.065664        -1.7868 
  50   0.0000      -0.060492        -1.6461 
  51   0.0000      -0.058864        -1.6018 
  52   0.0000      -0.045077        -1.2266 
  53   0.0000      -0.041509        -1.1295 
  54   0.0000      -0.035945        -0.9781 
  55   0.0000      -0.023303        -0.6341 
  56   0.0000      -0.014860        -0.4044 
  57   0.0000      -0.014728        -0.4008 
  58   0.0000      -0.009986        -0.2717 
*Only the first 10 virtual orbitals were printed.
-------
TIMINGS
-------

Total SCF time: 0 days 0 hours 0 min 12 sec 

Total time                  ....      12.616 sec
Sum of individual times     ....      11.845 sec  ( 93.9%)

SCF preparation             ....       0.731 sec  (  5.8%)
Fock matrix formation       ....       9.307 sec  ( 73.8%)
  Startup                   ....       0.030 sec  (  0.3% of F)
  Split-RI-J                ....       2.177 sec  ( 23.4% of F)
  XC integration            ....       7.335 sec  ( 78.8% of F)
    XC Preparation          ....       0.000 sec  (  0.0% of XC)
    Basis function eval.    ....       2.043 sec  ( 27.9% of XC)
    Density eval.           ....       1.972 sec  ( 26.9% of XC)
    XC-Functional eval.     ....       0.174 sec  (  2.4% of XC)
    XC-Potential eval.      ....       1.833 sec  ( 25.0% of XC)
Diagonalization             ....       0.000 sec  (  0.0%)
Density matrix formation    ....       0.176 sec  (  1.4%)
Total Energy calculation    ....       0.079 sec  (  0.6%)
Population analysis         ....       0.000 sec  (  0.0%)
Orbital Transformation      ....       0.188 sec  (  1.5%)
Orbital Orthonormalization  ....       0.000 sec  (  0.0%)
DIIS solution               ....       0.731 sec  (  5.8%)
SOSCF solution              ....       0.632 sec  (  5.0%)
Finished LeanSCF after  12.7 sec

Maximum memory used throughout the entire LEANSCF-calculation: 22.3 MB


           ************************************************************
           *        Program running with 24 parallel MPI-processes    *
           *              working on a common directory               *
           ************************************************************

------------------------------------------------------------------------------
                         ORCA PROPERTY INTEGRAL CALCULATIONS
------------------------------------------------------------------------------

GBWName                                   ... run.gbw
Number of atoms                           ...     24
Number of basis functions                 ...    330
Max core memory                           ...   4096 MB

Dipole integrals                          ... YES
Quadrupole integrals                      ...  NO
Linear momentum integrals                 ...  NO
Angular momentum integrals                ...  NO
Higher moments length integrals           ...  NO
Higher moments velocity integrals         ...  NO
Kinetic energy integrals                  ...  NO
GIAO right hand sides                     ...  NO
GIAO dipole derivative integrals          ...  NO
SOC integrals                             ...  NO
EPR diamagnetic integrals (GIAO)          ...  NO
EPR gauge integrals                       ...  NO
Field gradient integrals                  ...  NO (   0 nuclei)
Spin-dipole/Fermi contact integrals       ...  NO (   0 nuclei)
Contact density integrals                 ...  NO (   0 nuclei)
Nucleus-orbit integrals                   ...  NO (   0 nuclei)
Geometric perturbations                   ...  NO (  24 nuclei)

Choice of electric origin   ... Center of mass
Position of electric origin ... (  0.4213, -2.8536,  6.8221) 
Choice of magnetic origin   ... GIAO
Position of magnetic origin ... (  0.0000,  0.0000,  0.0000) 

Calculating integrals                     ... Electric Dipole (Length)     done (  0.0 sec)

Property integrals calculated in   0.1 sec

Maximum memory used throughout the entire PROPINT-calculation: 20.8 MB


-------------------------------------------------------------------------------
                          DFT DISPERSION CORRECTION                            
                                                                               
                              DFTD3 V3.1  Rev 1                                
                          USING Becke-Johnson damping                          
-------------------------------------------------------------------------------
The PBE functional is recognized
Active option DFTDOPT                   ...         4   

molecular C6(AA) [au] = 11109.061337 


            DFT-D V3
 parameters
 s6 scaling factor         :     1.0000 
 a1 scaling factor         :     0.4289 
 s8 scaling factor         :     0.7875 
 a2 scaling factor         :     4.4407 
 ad hoc parameters k1-k3   :    16.0000     1.3333    -4.0000 

 Edisp/kcal,au: -15.497517201077  -0.024696863057 
 E6   /kcal   :  -9.753458710 
 E8   /kcal   :  -5.744058491 
 % E8         :  37.064378869 

-------------------------   ----------------
Dispersion correction           -0.024696863
-------------------------   ----------------


-------------------------   --------------------
FINAL SINGLE POINT ENERGY     -1464.535701072149
-------------------------   --------------------



           ************************************************************
           *        Program running with 24 parallel MPI-processes    *
           *              working on a common directory               *
           ************************************************************
------------------------------------------------------------------------------
                         ORCA SCF GRADIENT CALCULATION
------------------------------------------------------------------------------

Nuc. rep. gradient        (SHARK) ... done (  0.0 sec)
HCore & Overlap gradient  (SHARK) ... done (  0.2 sec)
Split-RIJ-J gradient      (SHARK) ... done (  0.8 sec)
XC gradient                       ... done (  4.3 sec)
Dispersion correction             ... done (  0.1 sec)

-------------------
DISPERSION GRADIENT
-------------------

   1   Al  :   -0.000098953    0.000729333   -0.000019318
   2   Al  :   -0.000030996    0.000205185   -0.000574147
   3   H   :    0.000098113   -0.000050235   -0.000185030
   4   H   :   -0.000171129    0.000031806   -0.000199595
   5   H   :    0.000039142    0.000188581   -0.000096590
   6   H   :   -0.000108424    0.000159178    0.000027283
   7   H   :   -0.000096309    0.000163738    0.000041096
   8   H   :    0.000021456    0.000061239   -0.000150670
   9   Al  :    0.000204907   -0.000518478   -0.000477110
  10   H   :   -0.000014119   -0.000177528   -0.000082792
  11   H   :   -0.000027995   -0.000167979   -0.000093694
  12   H   :    0.000047260    0.000208393    0.000050467
  13   Al  :    0.000151158   -0.000058178    0.000243217
  14   H   :   -0.000139631   -0.000057291    0.000055835
  15   H   :    0.000211002    0.000023931    0.000074112
  16   H   :    0.000135341   -0.000151366   -0.000082705
  17   Al  :   -0.000452375   -0.000229854    0.000341834
  18   H   :   -0.000138160   -0.000128488    0.000019918
  19   H   :   -0.000178626    0.000025496    0.000080387
  20   Al  :    0.000255792   -0.000131700    0.000510881
  21   H   :    0.000112468   -0.000021339    0.000130371
  22   H   :    0.000089782    0.000053540    0.000145374
  23   H   :    0.000124408   -0.000092721    0.000091461
  24   H   :   -0.000034112   -0.000065261    0.000149414

Difference to translation invariance:
           :   -0.0000000000    0.0000000000   -0.0000000000

Difference to rotation invariance:
           :    0.0000000000   -0.0000000000   -0.0000000000

Norm of the Dispersion gradient    ...    0.0017229828
RMS gradient                       ...    0.0002030555
MAX gradient                       ...    0.0007293334

------------------
CARTESIAN GRADIENT
------------------

   1   Al  :   -0.000106256    0.000507964    0.000039187
   2   Al  :    0.000680710    0.000312997   -0.000509548
   3   H   :   -0.000229339   -0.000019307   -0.000103017
   4   H   :   -0.000724959   -0.000196350    0.000057828
   5   H   :   -0.000210879    0.000002359   -0.000097138
   6   H   :   -0.000713543    0.000329730   -0.000257291
   7   H   :    0.000254147   -0.000161779    0.000122838
   8   H   :    0.000210280    0.000335235   -0.000709259
   9   Al  :    0.000111487   -0.000423471   -0.000300138
  10   H   :    0.000160701    0.000141852    0.000217099
  11   H   :   -0.000551462   -0.000352181   -0.000514249
  12   H   :    0.000580931    0.000306405    0.000459442
  13   Al  :   -0.001024809   -0.000457011    0.000535315
  14   H   :   -0.000099185    0.000141141   -0.000340065
  15   H   :    0.000633412    0.000153356    0.000000459
  16   H   :    0.000718829   -0.000254818    0.000272455
  17   Al  :   -0.001254254   -0.000346379   -0.000016595
  18   H   :    0.000063335   -0.000789405   -0.000190464
  19   H   :   -0.000232203    0.000716950    0.000327071
  20   Al  :    0.000575457   -0.000151216    0.000652329
  21   H   :    0.000565073   -0.000033174    0.000482444
  22   H   :    0.000285938    0.000001856    0.000002518
  23   H   :    0.000217649    0.000119518    0.000045603
  24   H   :    0.000088940    0.000115729   -0.000176825

Difference to translation invariance:
           :   -0.0000000000    0.0000000001   -0.0000000001

Difference to rotation invariance:
           :   -0.0000798182    0.0000463657   -0.0001681227

Norm of the Cartesian gradient     ...    0.0035029314
RMS gradient                       ...    0.0004128244
MAX gradient                       ...    0.0012542535

-------
TIMINGS
-------

Total SCF gradient time     ....        5.519 sec

Densities                   ....       0.006 sec  (  0.1%)
One electron gradient       ....       0.219 sec  (  4.0%)
RI-J Coulomb gradient       ....       0.838 sec  ( 15.2%)
XC gradient                 ....       4.309 sec  ( 78.1%)

Maximum memory used throughout the entire SCFGRAD-calculation: 39.2 MB
------------------------------------------------------------------------------
                         ORCA GEOMETRY RELAXATION STEP
------------------------------------------------------------------------------

Reading the OPT-File                    .... done
Getting information on internals        .... done
Copying old internal coords+grads       .... done
Making the new internal coordinates     .... (2022 redundants) done
Validating the new internal coordinates .... (2022 redundants) done
Calculating the B-matrix                .... done
Calculating the G,G- and P matrices     .... done
Transforming gradient to internals      .... done
Projecting the internal gradient        .... done
Number of atoms                         ....  24
Number of internal coordinates          .... 329
Current Energy                          .... -1464.535701072 Eh
Current gradient norm                   ....     0.003502931 Eh/bohr
Maximum allowed component of the step   ....  0.300
Current trust radius                    ....  0.300
Evaluating the initial hessian          ....  (Almloef) done
Projecting the Hessian                  .... done
Forming the augmented Hessian           .... done
Diagonalizing the augmented Hessian     .... done
Last element of RFO vector              ....  0.999785012
Lowest eigenvalues of augmented Hessian:
 -0.000051051  0.013783444  0.014126634  0.018601726  0.020663262
Length of the computed step             ....  0.020739200
The final length of the internal step   ....  0.020739200
Converting the step to Cartesian space:
 Initial RMS(Int)=    0.0011433891
Transforming coordinates:
 Iter   0:  RMS(Cart)=    0.0032045133 RMS(Int)=    0.0011434014
done
Storing new coordinates                 .... done

                                .--------------------.
          ----------------------|Geometry convergence|-------------------------
          Item                value                   Tolerance       Converged
          ---------------------------------------------------------------------
          RMS gradient        0.0001763880            0.0000300000      NO
          MAX gradient        0.0008300188            0.0001000000      NO
          RMS step            0.0011433891            0.0006000000      NO
          MAX step            0.0059245902            0.0010000000      NO
          -------------------------------------------------------------------------
          ........................................................
          Max(Bonds)      0.0031      Max(Angles)    0.10
          Max(Dihed)        0.14      Max(Improp)    0.00
          ---------------------------------------------------------------------

The optimization has not yet converged - more geometry cycles are needed


    ---------------------------------------------------------------------------
                         Redundant Internal Coordinates
                            (Angstroem and degrees)

        Definition                    Value    dE/dq     Step     New-Value
    ----------------------------------------------------------------------------
     1. B(Al  1,Al  0)                3.0910  0.000563 -0.0029    3.0880   
[...]
     59       0.001341  -0.000067  -0.000137   0.000044  -0.000255   0.026623
     60      -0.003836   0.000504   0.002630   0.000837   0.012577  -0.711370
     61      -0.000363   0.000678  -0.000407  -0.001619  -0.000691   0.043778
     62      -0.003394   0.000972   0.003138   0.001581   0.012056  -0.695409
     63      -0.000736  -0.001107  -0.002929   0.003506  -0.002005  -0.000255
     64       0.010090   0.002580   0.002209  -0.009884   0.002720   0.013651
     65      -0.012634   0.000943  -0.002889  -0.000240  -0.004126   0.001399
     66      -0.001082  -0.001072  -0.001633   0.001047  -0.001238   0.006728
     67      -0.000629   0.002566  -0.001190  -0.005139  -0.000166  -0.010280
     68      -0.017853  -0.000534  -0.003805  -0.004515  -0.005296  -0.008273
     69       0.112199  -0.001790  -0.013439   0.007802  -0.002824   0.031861
     70       0.016265  -0.000119  -0.002172   0.005357  -0.000134   0.002294
     71       0.008188  -0.000077  -0.000894   0.001876  -0.000727   0.006797


-----------
IR SPECTRUM
-----------

 Mode   freq       eps      Int      T**2         TX        TY        TZ
       cm**-1   L/(mol*cm) km/mol    a.u.
----------------------------------------------------------------------------
  6:     39.38   0.000031    0.16  0.000246  (-0.002489 -0.015473  0.000879)
  7:     45.75   0.000026    0.13  0.000174  (-0.007207  0.008825 -0.006673)
  8:     52.50   0.000043    0.22  0.000255  (-0.000478 -0.010788 -0.011744)
  9:     79.46   0.000021    0.10  0.000081  ( 0.001094 -0.003516  0.008217)
 10:    104.13   0.000076    0.38  0.000228  (-0.015057 -0.000818  0.000856)
 11:    127.72   0.000053    0.27  0.000130  (-0.002440  0.010106 -0.004711)
 12:    137.87   0.000516    2.61  0.001167  ( 0.009554 -0.031396 -0.009486)
 13:    152.82   0.000093    0.47  0.000190  ( 0.004549 -0.012935  0.001537)
 14:    167.54   0.000226    1.14  0.000421  (-0.010207 -0.000852 -0.017768)
 15:    189.66   0.000784    3.96  0.001291  ( 0.007581 -0.012014  0.032998)
 16:    224.48   0.001908    9.64  0.002653  (-0.001929  0.006510  0.051055)
 17:    233.28   0.000728    3.68  0.000974  ( 0.001941 -0.004470  0.030821)
 18:    282.08   0.000843    4.26  0.000932  ( 0.010328  0.028709 -0.001161)
 19:    296.85   0.001422    7.19  0.001495  ( 0.006226 -0.025546  0.028343)
 20:    323.44   0.000717    3.62  0.000691  (-0.003484  0.006569 -0.025221)
 21:    343.35   0.000581    2.94  0.000528  ( 0.019249  0.010467 -0.006951)
 22:    358.10   0.000662    3.35  0.000577  ( 0.001180 -0.023019 -0.006749)
 23:    374.01   0.007901   39.93  0.006592  (-0.052284 -0.035846  0.050729)
 24:    388.34   0.000056    0.28  0.000045  ( 0.004288 -0.002524  0.004522)
 25:    399.17   0.000124    0.63  0.000097  (-0.002496  0.009440  0.001397)
 26:    413.20   0.000168    0.85  0.000127  (-0.003083  0.008948  0.006091)
 27:    440.50   0.003581   18.10  0.002537  ( 0.004576  0.011676 -0.048781)
 28:    459.97   0.001012    5.11  0.000687  ( 0.005461 -0.025387 -0.003501)
 29:    485.29   0.022328  112.84  0.014358  (-0.063150 -0.050855  0.088226)
 30:    490.45   0.003409   17.23  0.002169  ( 0.025857  0.026773 -0.027991)
 31:    524.02   0.008295   41.92  0.004940  (-0.034720 -0.017184  0.058643)
 32:    551.86   0.019157   96.81  0.010833  (-0.008729  0.101789 -0.019898)
 33:    564.15   0.022937  115.91  0.012688  (-0.044154  0.016777  0.102257)
 34:    642.74   0.030997  156.65  0.015050  (-0.032284  0.085612  0.081719)
 35:    646.14   0.094646  478.30  0.045711  (-0.055390  0.145387  0.146648)
 36:    674.14   0.135939  686.98  0.062927  ( 0.041556  0.080761 -0.233833)
 37:    677.48   0.123074  621.96  0.056691  (-0.018194  0.234222 -0.038730)
 38:    690.17   0.062194  314.30  0.028122  (-0.155711  0.049248  0.038082)
 39:    703.46   0.045543  230.16  0.020203  ( 0.125079 -0.016810  0.065390)
 40:    709.69   0.010446   52.79  0.004593  ( 0.006055  0.014824  0.065856)
 41:    716.21   0.071388  360.77  0.031105  ( 0.009021 -0.076074  0.158860)
 42:    726.22   0.005938   30.01  0.002552  (-0.011341  0.043681  0.022692)
 43:    755.43   0.011171   56.45  0.004615  (-0.059086  0.001210 -0.033495)
 44:    790.16   0.028053  141.77  0.011079  ( 0.065484 -0.068750  0.045435)
 45:    819.18   0.031673  160.06  0.012066  ( 0.074941  0.057757  0.055801)
 46:    931.57   0.039337  198.79  0.013177  (-0.023372 -0.019945 -0.110605)
 47:    979.57   0.016417   82.97  0.005230  ( 0.036955 -0.061765 -0.007038)
 48:   1065.06   0.000046    0.23  0.000013  ( 0.003433 -0.000542  0.001144)
 49:   1093.54   0.014331   72.42  0.004090  (-0.054099 -0.027664  0.019939)
 50:   1099.77   0.005987   30.26  0.001699  ( 0.033728 -0.022791 -0.006467)
 51:   1106.98   0.044372  224.24  0.012509  (-0.101570 -0.034571 -0.031574)
 52:   1134.07   0.010839   54.78  0.002983  (-0.048694 -0.004845  0.024252)
 53:   1145.61   0.101127  511.06  0.027547  ( 0.015144 -0.070988  0.149260)
 54:   1593.18   0.016360   82.67  0.003204  (-0.012062  0.054979  0.006023)
 55:   1631.93   0.120120  607.04  0.022970  ( 0.030176  0.035107 -0.144315)
 56:   1664.09   0.179952  909.41  0.033746  (-0.068559 -0.046438  0.163980)
 57:   1677.64   0.069242  349.92  0.012880  ( 0.019927  0.053167 -0.098266)
 58:   1710.90   0.099798  504.34  0.018203  (-0.134108 -0.014688 -0.001489)
 59:   1742.99   0.294463  1488.10  0.052720  (-0.057432  0.208924  0.075978)
 60:   1781.90   0.085102  430.07  0.014904  (-0.016043  0.047743 -0.111208)
 61:   1834.19   0.060260  304.53  0.010253  ( 0.092898  0.024548 -0.031936)
 62:   1869.65   0.015845   80.07  0.002645  (-0.034920  0.014913 -0.034682)
 63:   1884.89   0.006660   33.65  0.001103  (-0.006246  0.028062  0.016615)
 64:   1887.50   0.001438    7.27  0.000238  (-0.006121  0.006498 -0.012570)
 65:   1890.80   0.007698   38.90  0.001271  ( 0.004039 -0.013500  0.032741)
 66:   1892.39   0.002164   10.94  0.000357  ( 0.018132  0.000003 -0.005305)
 67:   1897.51   0.000810    4.09  0.000133  ( 0.010736 -0.000072  0.004230)
 68:   1900.95   0.061765  312.14  0.010139  ( 0.087548  0.004678  0.049527)
 69:   1908.41   0.035106  177.41  0.005741  ( 0.005315  0.073769  0.016445)
 70:   1912.41   0.027190  137.41  0.004437  ( 0.041389  0.029446 -0.043089)
 71:   1941.37   0.018892   95.47  0.003037  ( 0.033922 -0.005413  0.043091)

* The epsilon (eps) is given for a Dirac delta lineshape.
** The dipole moment derivative (T) already includes vibrational overlap.

The first frequency considered to be a vibration is 6
The total number of vibrations considered is 66


--------------------------
THERMOCHEMISTRY AT 298.15K
--------------------------

Temperature         ...   298.15 K
Pressure            ...     1.00 atm
Total Mass          ...   180.04 AMU
Quasi RRHO          ...     True
Cut-Off Frequency   ...     1.00 cm^-1

Throughout the following assumptions are being made:
  (1) The electronic state is orbitally nondegenerate
  (2) There are no thermally accessible electronically excited states
  (3) Hindered rotations indicated by low frequency modes are not
      treated as such but are treated as vibrations and this may
      cause some error
  (4) All equations used are the standard statistical mechanics
      equations for an ideal gas
  (5) All vibrations are strictly harmonic

freq.      39.38  E(vib)   ...       0.54 
freq.      45.75  E(vib)   ...       0.53 
freq.      52.50  E(vib)   ...       0.52 
freq.      79.46  E(vib)   ...       0.49 
freq.     104.13  E(vib)   ...       0.46 
freq.     127.72  E(vib)   ...       0.43 
freq.     137.87  E(vib)   ...       0.42 
freq.     152.82  E(vib)   ...       0.40 
freq.     167.54  E(vib)   ...       0.38 
freq.     189.66  E(vib)   ...       0.36 
freq.     224.48  E(vib)   ...       0.33 
freq.     233.28  E(vib)   ...       0.32 
freq.     282.08  E(vib)   ...       0.28 
freq.     296.85  E(vib)   ...       0.27 
freq.     323.44  E(vib)   ...       0.25 
freq.     343.35  E(vib)   ...       0.23 
freq.     358.10  E(vib)   ...       0.22 
freq.     374.01  E(vib)   ...       0.21 
freq.     388.34  E(vib)   ...       0.20 
freq.     399.17  E(vib)   ...       0.19 
freq.     413.20  E(vib)   ...       0.19 
freq.     440.50  E(vib)   ...       0.17 
freq.     459.97  E(vib)   ...       0.16 
freq.     485.29  E(vib)   ...       0.15 
freq.     490.45  E(vib)   ...       0.15 
freq.     524.02  E(vib)   ...       0.13 
freq.     551.86  E(vib)   ...       0.12 
freq.     564.15  E(vib)   ...       0.11 
freq.     642.74  E(vib)   ...       0.09 
freq.     646.14  E(vib)   ...       0.09 
freq.     674.14  E(vib)   ...       0.08 
freq.     677.48  E(vib)   ...       0.08 
freq.     690.17  E(vib)   ...       0.07 
freq.     703.46  E(vib)   ...       0.07 
freq.     709.69  E(vib)   ...       0.07 
freq.     716.21  E(vib)   ...       0.07 
freq.     726.22  E(vib)   ...       0.06 
freq.     755.43  E(vib)   ...       0.06 
freq.     790.16  E(vib)   ...       0.05 
freq.     819.18  E(vib)   ...       0.05 
freq.     931.57  E(vib)   ...       0.03 
freq.     979.57  E(vib)   ...       0.03 
freq.    1065.06  E(vib)   ...       0.02 
freq.    1093.54  E(vib)   ...       0.02 
freq.    1099.77  E(vib)   ...       0.02 
freq.    1106.98  E(vib)   ...       0.02 
freq.    1134.07  E(vib)   ...       0.01 
freq.    1145.61  E(vib)   ...       0.01 
freq.    1593.18  E(vib)   ...       0.00 
freq.    1631.93  E(vib)   ...       0.00 
freq.    1664.09  E(vib)   ...       0.00 
freq.    1677.64  E(vib)   ...       0.00 
freq.    1710.90  E(vib)   ...       0.00 
freq.    1742.99  E(vib)   ...       0.00 
freq.    1781.90  E(vib)   ...       0.00 
freq.    1834.19  E(vib)   ...       0.00 
freq.    1869.65  E(vib)   ...       0.00 
freq.    1884.89  E(vib)   ...       0.00 
freq.    1887.50  E(vib)   ...       0.00 
freq.    1890.80  E(vib)   ...       0.00 
freq.    1892.39  E(vib)   ...       0.00 
freq.    1897.51  E(vib)   ...       0.00 
freq.    1900.95  E(vib)   ...       0.00 
freq.    1908.41  E(vib)   ...       0.00 
freq.    1912.41  E(vib)   ...       0.00 
freq.    1941.37  E(vib)   ...       0.00 

------------
INNER ENERGY
------------

The inner energy is: U= E(el) + E(ZPE) + E(vib) + E(rot) + E(trans)
    E(el)   - is the total energy from the electronic structure calculation
              = E(kin-el) + E(nuc-el) + E(el-el) + E(nuc-nuc)
    E(ZPE)  - the the zero temperature vibrational energy from the frequency calculation
    E(vib)  - the the finite temperature correction to E(ZPE) due to population
              of excited vibrational states
    E(rot)  - is the rotational thermal energy
    E(trans)- is the translational thermal energy

Summary of contributions to the inner energy U:
Electronic energy                ...  -1464.53610576 Eh
Zero point energy                ...      0.13208647 Eh      82.89 kcal/mol
Thermal vibrational correction   ...      0.01462884 Eh       9.18 kcal/mol
Thermal rotational correction    ...      0.00141627 Eh       0.89 kcal/mol
Thermal translational correction ...      0.00141627 Eh       0.89 kcal/mol
-----------------------------------------------------------------------
Total thermal energy                  -1464.38655791 Eh


Summary of corrections to the electronic energy:
(perhaps to be used in another calculation)
Total thermal correction                  0.01746138 Eh      10.96 kcal/mol
Non-thermal (ZPE) correction              0.13208647 Eh      82.89 kcal/mol
-----------------------------------------------------------------------
Total correction                          0.14954785 Eh      93.84 kcal/mol


--------
ENTHALPY
--------

The enthalpy is H = U + kB*T
                kB is Boltzmann's constant
Total thermal energy              ...  -1464.38655791 Eh 
Thermal Enthalpy correction       ...      0.00094421 Eh       0.59 kcal/mol
-----------------------------------------------------------------------
Total Enthalpy                    ...  -1464.38561370 Eh


Note: Only C1 symmetry has been detected, increase convergence thresholds 
      if your molecule has a higher symmetry. Symmetry factor of 1.0 is   
      used for the rotational entropy correction. 
 

Note: Rotational entropy computed according to Herzberg 
Infrared and Raman Spectra, Chapter V,1, Van Nostrand Reinhold, 1945 
Point Group:  C1, Symmetry Number:   1  
Rotational constants in cm-1:     0.032602     0.014432     0.012341 

Vibrational entropy computed according to the QRRHO of S. Grimme
Chem.Eur.J. 2012 18 9955 using a reference frequency of 100.0 cm-1


-------
ENTROPY
-------

The entropy contributions are T*S = T*(S(el)+S(vib)+S(rot)+S(trans))
     S(el)   - electronic entropy
     S(vib)  - vibrational entropy
     S(rot)  - rotational entropy
     S(trans)- translational entropy
The entropies will be listed as multiplied by the temperature to get
units of energy

Electronic entropy                ...      0.00000000 Eh      0.00 kcal/mol
Vibrational entropy               ...      0.02548994 Eh     16.00 kcal/mol
Rotational entropy                ...      0.01520258 Eh      9.54 kcal/mol
Translational entropy             ...      0.01970399 Eh     12.36 kcal/mol
-----------------------------------------------------------------------
Final entropy term                ...      0.06039651 Eh     37.90 kcal/mol

In case the symmetry of your molecule has not been determined correctly
or in case you have a reason to use a different symmetry number we print 
out the resulting rotational entropy values for sn=1,12:

 non-linear molecules -----------------------------------
|  sn= 1 | S(rot)=       0.01520258 Eh      9.54 kcal/mol|
|  sn= 2 | S(rot)=       0.01454812 Eh      9.13 kcal/mol|
|  sn= 3 | S(rot)=       0.01416529 Eh      8.89 kcal/mol|
|  sn= 4 | S(rot)=       0.01389366 Eh      8.72 kcal/mol|
|  sn= 5 | S(rot)=       0.01368297 Eh      8.59 kcal/mol|
|  sn= 6 | S(rot)=       0.01351083 Eh      8.48 kcal/mol|
|  sn= 7 | S(rot)=       0.01336528 Eh      8.39 kcal/mol|
|  sn= 8 | S(rot)=       0.01323921 Eh      8.31 kcal/mol|
|  sn= 9 | S(rot)=       0.01312800 Eh      8.24 kcal/mol|
|  sn=10 | S(rot)=       0.01302852 Eh      8.18 kcal/mol|
|  sn=11 | S(rot)=       0.01293853 Eh      8.12 kcal/mol|
|  sn=12 | S(rot)=       0.01285637 Eh      8.07 kcal/mol|
 linear molecules ---------------------------------------
|  Dinfh | S(rot)=       0.00947533 Eh      5.95 kcal/mol|
|  Cinfv | S(rot)=       0.01012978 Eh      6.36 kcal/mol|
 --------------------------------------------------------


-------------------
GIBBS FREE ENERGY
-------------------

The Gibbs free energy is G = H - T*S

Total enthalpy                    ...  -1464.38561370 Eh 
Total entropy correction          ...     -0.06039651 Eh    -37.90 kcal/mol
-----------------------------------------------------------------------
Final Gibbs free energy         ...  -1464.44601021 Eh

For completeness - the Gibbs free energy minus the electronic energy
G-E(el)                           ...      0.09009555 Eh     56.54 kcal/mol


Maximum memory used throughout the entire PROP-calculation: 49.8 MB

--------------------------------
SUGGESTED CITATIONS FOR THIS RUN
--------------------------------

Below you find a list of papers that are relevant to this ORCA run
We neither can nor want to force you to cite these papers, but we appreciate if you do
You receive ORCA, which is the product of decades of hard work by many enthusiastic individuals, for free
The only thing we kindly ask in return is that you cite our papers,
We deeply appreciate it, if you show your appreciation for ORCA by not just citing the generic ORCA reference.

Please note that relegating all ORCA citations to the supporting information does *not* help us.
SI sections are not indexed - citations you put there will not count into any citation statistics
But we need these citations in order to attract the funding resources that allow us to do what we are doing

Therefore, if you are a happy ORCA user, please consider citing a few of the papers listed below in the main body of your paper

In addition to the list printed below, the program has created the file run.bibtex that contains the list in bibtex format
You can import this file easily into all common literature databanks and citation aid programs


List of essential papers. We consider these as the minimum necessary citations

  1. Neese, F.
     Software update: the ORCA program system, version 6.0
     WIRES Comput. Molec. Sci. 2025 15(1), e70019
     doi.org/10.1002/wcms.7019

List of papers to cite with high priority. The work reported in these papers was absolutely
necessary for this run to complete.
Our perspective: the developers of density functionals and basis sets usually get cited in chemistry papers
Good! But without the algorithms to do something with them, the functionals or basis sets would not do anything.
Hence, in our opinion, the algorithm design and method developments papers are equally worthy of getting cited

  1. Neese, F.
     An improvement of the resolution of the identity approximation for the formation of the Coulomb matrix
     J. Comp. Chem. 2003 24(14), 1740-1747
     doi.org/10.1002/jcc.10318
  2. Grimme, S.; Antony, J.; Ehrlich, S.; Krieg, H.
     A consistent and accurate ab initio parametrization of density functional dispersion correction (DFT-D) for the 94 elements H-Pu
     J. Chem. Phys. 2010 132 , 154104
     doi.org/10.1063/1.3382344
  3. Grimme, S.; Ehrlich, S.; Goerigk, L.
     Effect of the damping function in dispersion corrected density functional theory
     J. Comput. Chem. 2011 32(7), 1456-1465
     doi.org/10.1002/jcc.21759
  4. Bykov, D.; Petrenko, T.; Izsak, R.; Kossmann, S.; Becker, U.; Valeev, E.; Neese, F.
     Efficient implementation of the analytic second derivatives of Hartree-Fock and hybrid DFT energies: a detailed analysis of different approximations
     Molec. Phys. 2015 113 , 1961-1977
     doi.org/10.1080/00268976.2015.1025114
  5. Neese, F.
     The SHARK Integral Generation and Digestion System
     J. Comp. Chem. 2022 44(3), 381
     doi.org/10.1002/jcc.26942

List of suggested additional citations. These are papers that are important in the 'surrounding' of 
of this run, or papers that preceded the highly important papers. If you like your results we are grateful for a citation.

  1. Neese, F.
     The ORCA program system
     WIRES Comput. Molec. Sci. 2012 2(1), 73-78
     doi.org/10.1002/wcms.81
  2. Neese, F.
     Software update: the ORCA program system, version 4.0
     WIRES Comput. Molec. Sci. 2018 8(1), 1-6
     doi.org/10.1002/wcms.1327
  3. Neese, F.; Wennmohs, F.; Becker, U.; Riplinger, C.
     The ORCA quantum chemistry program package
     J. Chem. Phys. 2020 152(22), 224108
     doi.org/10.1063/5.0004608
  4. Neese, F.
     Software update: The ORCA program system—Version 5.0
     WIRES Comput. Molec. Sci. 2022 12(1), e1606
     doi.org/10.1002/wcms.1606

List of optional additional citations

  1. Neese, F.
     Approximate second-order SCF convergence for spin unrestricted wavefunctions
     Chem. Phys. Lett. 2000 325(1-3), 93-98
     doi.org/10.1016/s0009-2614(00)00662-x

Timings for individual modules:

Sum of individual times          ...     1304.210 sec (=  21.737 min)
Startup calculation              ...      360.146 sec (=   6.002 min)  27.6 %
SCF iterations                   ...      379.370 sec (=   6.323 min)  29.1 %
Property integrals               ...      137.578 sec (=   2.293 min)  10.5 %
SCF Response                     ...       65.479 sec (=   1.091 min)   5.0 %
Property calculations            ...       50.757 sec (=   0.846 min)   3.9 %
SCF Gradient evaluation          ...      308.138 sec (=   5.136 min)  23.6 %
Geometry relaxation              ...        2.742 sec (=   0.046 min)   0.2 %
                             ****ORCA TERMINATED NORMALLY****
TOTAL RUN TIME: 0 days 0 hours 22 minutes 25 seconds 794 msec
