
                                 *****************
                                 * O   R   C   A *
                                 *****************

                                            #,                                       
                                            ###                                      
                                            ####                                     
                                            #####                                    
                                            ######                                   
                                           ########,                                 
                                     ,,################,,,,,                         
                               ,,#################################,,                 
                          ,,##########################################,,             
                       ,#########################################, ''#####,          
                    ,#############################################,,   '####,        
                  ,##################################################,,,,####,       
                ,###########''''           ''''###############################       
              ,#####''   ,,,,##########,,,,          '''####'''          '####       
            ,##' ,,,,###########################,,,                        '##       
           ' ,,###''''                  '''############,,,                           
         ,,##''                                '''############,,,,        ,,,,,,###''
      ,#''                                            '''#######################'''  
     '                                                          ''''####''''         
             ,#######,   #######,   ,#######,      ##                                
            ,#'     '#,  ##    ##  ,#'     '#,    #''#        ,####,    ,#,          
            ##       ##  ##   ,#'  ##            #'  '#       #'       ,# #          
            ##       ##  #######   ##           ,######,      #####,      #          
            '#,     ,#'  ##    ##  '#,     ,#' ,#      #,     #,   #      #          
             '#######'   ##     ##  '#######'  #'      '#     '####' #    #          



                #########################################################
                #                        -***-                          #
                #          Department of theory and spectroscopy        #
                #                                                       #
                #                      Frank Neese                      #
                #                                                       #
                #     Directorship, Architecture, Infrastructure        #
                #                    SHARK, DRIVERS                     #
                #        Core code/Algorithms in most modules           #
                #                                                       #
                #        Max Planck Institute fuer Kohlenforschung      #
                #                Kaiser Wilhelm Platz 1                 #
                #                 D-45470 Muelheim/Ruhr                 #
                #                      Germany                          #
                #                                                       #
                #                  All rights reserved                  #
                #                        -***-                          #
                #########################################################


                         Program Version 6.1.0  -  RELEASE   -
                                (GIT: $679e74b$)
                          ($2025-06-10 18:02:51 +0200$)


 With contributions from (in alphabetic order):
[Max-Planck-Institut fuer Kohlenforschung]                               
  Daniel Aravena         : Magnetic Suceptibility                        
  Michael Atanasov       : Ab Initio Ligand Field Theory (pilot matlab implementation)
  Alexander A. Auer      : GIAO ZORA, VPT2 properties, NMR spectrum      
  Ute Becker             : All parallelization in ORCA, NUMFREQ, NUMCALC 
  Giovanni Bistoni       : ED, misc. LED, open-shell LED, HFLD           
  Dmytro Bykov           : pre 5.0 version of the SCF Hessian            
  Marcos Casanova-Páez   : Triplet and SCS-CIS(D). UHF-(DLPNO)-IP/EA/STEOM-CCSD. UHF-CVS-IP/STEOM-CCSD   
  Vijay G. Chilkuri      : MRCI spin determinant printing, contributions to CSF-ICE 
  Pauline Colinet        : FMM embedding                                 
  Dipayan Datta          : RHF DLPNO-CCSD density                        
  Achintya Kumar Dutta   : EOM-CC, STEOM-CC                              
  Nicolas Foglia         : Exact transition moments, OPA infrastructure, MCD improvements    
  Dmitry Ganyushin       : Spin-Orbit,Spin-Spin,Magnetic field MRCI      
  Miquel Garcia-Rates    : C-PCM and meta-GGA Hessian, CCSD/C-PCM, Gaussian charge scheme 
  Tiago L. C. Gouveia    : GS-ROHF, GS-ROCIS                             
  Yang Guo               : DLPNO-NEVPT2, F12-NEVPT2, CIM, IAO-localization        
  Andreas Hansen         : Spin unrestricted coupled pair/coupled cluster methods 
  Ingolf Harden          : AUTO-CI MPn and infrastructure                
  Benjamin Helmich-Paris : MC-RPA, TRAH-(SCF,CASSCF), AVAS, COSX integrals, SCF dyn. polar., MC-PDFT, srDFT 
  Lee Huntington         : MR-EOM, pCC                                   
  Robert Izsak           : Overlap fitted RIJCOSX, COSX-SCS-MP3, EOM     
  Riya Kayal             : Wick's Theorem for AUTO-CI, AUTO-CI UHF-CCSDT 
  Emily Kempfer          : AUTO-CI RHF CISDT and CCSDT, approximate NEVPT4
  Christian Kollmar      : KDIIS, OOCD, Brueckner-CCSD(T), CCSD density, CASPT2, CASPT2-K, improved NEVPT2 
  Axel Koslowski         : Symmetry handling                             
  Simone Kossmann        : meta-GGA functionals, TD-DFT gradient, OOMP2, (MP2 Hessian; deprecated post 5.0) 
  Lucas Lang             : DCDCAS, Hyperfine gauge corrections, ICE-SOC+SSC
  Marvin Lechner         : AUTO-CI (C++ implementation), FIC-MRCC        
  Spencer Leger          : CASSCF response                               
  Dagmar Lenk            : GEPOL surface, SMD, ORCA-2-JSON               
  Dimitrios Liakos       : Extrapolation schemes; Compound Job, Property file
  Dimitrios Manganas     : Further ROCIS development; embedding schemes. LFT, Crystal Embedding 
  Dimitrios Pantazis     : SARC Basis sets                               
  Anastasios Papadopoulos: AUTO-CI, single reference methods and gradients 
  Taras Petrenko         : pre 6.0 DFT Hessian and TD-DFT gradient,  ECA, NRVS 
  Petra Pikulova         : Analytic Raman intensities                    
  Peter Pinski           : DLPNO-MP2, DLPNO-MP2 Gradient                 
  Shashank Vittal Rao    : ES-AILFT, MagRelax                            
  Christoph Reimann      : Effective Core Potentials                     
  Marius Retegan         : Local ZFS, SOC                                
  Christoph Riplinger    : Optimizer, TS searches, QM/MM, DLPNO-CCSD(T), (RO)-DLPNO pert. Triples 
  Michael Roemelt        : Original ROCIS implementation, recursive CI coupling coefficients
  Masaaki Saitow         : Open-shell DLPNO-CCSD energy and density      
  Barbara Sandhoefer     : DKH picture change effects                    
  Yorick L. A. Schmerwitz: GMF and freeze-and-release deltaSCF, NEB S-IDPP initial path                    
  Kantharuban Sivalingam : CASSCF convergence/infrastructure, NEVPT2, NEVPT3, NEVPT4(SD), FIC-MRCI and CEPA variants
  Bernardo de Souza      : ESD, SOC TD-DFT                               
  Georgi L. Stoychev     : AutoAux, RI-MP2 NMR, DLPNO-MP2 response, X2C  
  Van Anh Tran           : RI-MP2 g-tensors                              
  Willem Van den Heuvel  : Paramagnetic NMR                              
  Zikuan Wang            : NOTCH, Electric field optimization            
  Frank Wennmohs         : Technical directorship and infrastructure     
  Hang Xu                : AUTO-CI-Response properties                   
                                                                         
[FACCTs GmbH]                                                            
  Markus Bursch, Nicolas Foglia, Miquel Garcia-Rates, Ingolf Harden, Hagen Neugebauer, Anastasios Papadopoulos, 
  Christoph Riplinger, Bernardo de Souza, Georgi L. Stoychev                                                    
                                                                 
  APM, various basis sets, CI-OPT, improved COSX, DLPNO-Multilevel,           
  DOCKER, DRACO, updates on ESD, Fragmentator, GOAT, IRC, LR-CPCM, L-BFGS, MBIS, meta-GGA TD-DFT gradient, ML-optimized integration grids, 
  MM, NACMEs, nearIR, NEB, NEB-TS, NL-DFT gradient (VV10), 2- and 3-layer-ONIOM, interface openCOSMO-RS, QMMM,   
  Crystal-QMMM, RESP, rigid body optimization, SF, symmetry and pop. for TD-DFT, various functionals, SOLVATOR                                   
                                                                         
[Other institutions]                                                     
  V. Asgeirsson          : NEB                                           
  Christoph Bannwarth    : sTDA-DFT, sTD-DFT, PBEh-3c, B97-3c, D3        
  Giovanni Bistoni       : ETS/NOCV, ADLD/ADEX, COVALED                  
  Martin Brehm           : Molecular dynamics                            
  Ronald Cardenas        : ETS/NOCV                                      
  Martina Colucci        : COVALED                                       
  Sebastian Ehlert       : rSCAN, r2SCAN, r2SCAN-3c, D4, dhf basis sets  
  Marvin Friede          : D4 for Fr, Ra, Ac-Lr                          
  Lars Goerigk           : TD-DFT with DH, B97 family of functionals     
  Stefan Grimme          : VdW corrections, initial TS optimization, DFT functionals, gCP, sTDA/sTD-DF 
  Waldemar Hujo          : DFT-NL                                        
  H. Jonsson             : NEB                                           
  Holger Kruse           : gCP                                           
  Marcel Mueller         : wB97X-3c, vDZP basis set                      
  Hagen Neugebauer       : wr2SCAN, Native XTB                           
  Gianluca Regni         : ADLD/ADEX                                     
  Tobias Risthaus        : pre 6.0 range-separated hybrid DFT and stability analysis
  Lukas Wittmann         : regularized MP2, r2SCAN double-hybrids, wr2SCAN        
                                                                         
We gratefully acknowledge several colleagues who have allowed us to      
interface, adapt or use parts of their codes:                            
  Ed Valeev, F. Pavosevic, A. Kumar             : LibInt (2-el integral package), F12 methods 
  Garnet Chan, S. Sharma, J. Yang, R. Olivares  : DMRG                   
  Ulf Ekstrom                                   : XCFun DFT Library      
  Mihaly Kallay                                 : mrcc  (arbitrary order and MRCC methods)
  Frank Weinhold                                : gennbo (NPA and NBO analysis)           
  Simon Mueller                                 : openCOSMO-RS                            
  Christopher J. Cramer and Donald G. Truhlar   : smd solvation model                     
  S Lehtola, MJT Oliveira, MAL Marques          : LibXC Library                           
  Liviu Ungur et al                             : ANISO software                          


 Your calculation uses the libint2 library for the computation of 2-el integrals
 For citations please refer to: http://libint.valeyev.net

 Your ORCA version has been built with support for libXC version: 7.0.0
 For citations please refer to: https://libxc.gitlab.io

 This ORCA versions uses:
   CBLAS   interface :  Fast vector & matrix operations
   LAPACKE interface :  Fast linear algebra routines
   SCALAPACK package :  Parallel linear algebra routines
   Shared memory     :  Shared parallel matrices
   BLAS/LAPACK       :  OpenBLAS 0.3.29  USE64BITINT DYNAMIC_ARCH NO_AFFINITY Bulldozer SINGLE_THREADED
        Core in use  :  Bulldozer
   Copyright (c) 2011-2014, The OpenBLAS Project


  ***********************************
  * Starting time: Thu Aug 14 16:42:08 2025
  * Host name:     chromium07
  * Process ID:    261638
  * Working dir.:  /local/scratch/mehlhorn/61922
  ***********************************



***************************************
The coordinates will be read from file: start.xyz
***************************************


Your calculation utilizes the atom-pairwise dispersion correction
with the Becke-Johnson damping scheme (D3BJ)


Warning: RI is on but no J-basis has been assigned. Assigning Def2/J (nothing to worry about!)
================================================================================

----- Orbital basis set information -----
Your calculation utilizes the basis: def2-SV(P)
   F. Weigend and R. Ahlrichs, Phys. Chem. Chem. Phys. 7, 3297 (2005).

----- AuxJ basis set information -----
Your calculation utilizes the auxiliary basis: def2/J
   H-Rn: F. Weigend, Phys. Chem. Chem. Phys. 8, 1057 (2006).
   Fr-Lr: K. Eichkorn, F. Weigend, O. Treutler, R. Ahlrichs; Theor. Chem. Acc. 97, 119 (1997).

================================================================================
                                        WARNINGS
                       Please study these warnings very carefully!
================================================================================


WARNING: Gradients are needed
  ===> : At least TightSCF should be used for SCF convergence

WARNING: Geometry Optimization
  ===> : Switching off AutoStart
         For restart on a previous wavefunction, please use MOREAD

================================================================================
                                       INPUT FILE
================================================================================
NAME = run.inp
|  1> # Geometry optimization for (AlH3)n cluster
|  2> 
|  3> %pal nprocs 24  end
|  4> 
|  5> %geom MaxIter 500 end
|  6> 
|  7> 
|  8> ! PBE def2-SV(P)
|  9> ! RKS	# closed shell for AlH3
| 10> ! D3    #  dispersion correction
| 11> ! Freq 	# Frequency analysis to check the stabiltity of the structures
| 12> 
| 13> ! NoPop # population analysis not necessary	
| 14> 
| 15> ! RI
| 16> ! DEFGRID2
| 17> ! NormalSCF
| 18> ! SloppyOpt
| 19> 
| 20> ! SmallPrint
| 21> 
| 22> 
| 23> * xyzFile 0 1 start.xyz # only maingroup elements H and Al so there should be no net spin
| 24> 
| 25>                          ****END OF INPUT****
================================================================================

                       *****************************
                       * Geometry Optimization Run *
                       *****************************

Geometry optimization settings:
Update method            Update   .... BFGS
Choice of coordinates    CoordSys .... (2022) Redundant Internals
Initial Hessian          InHess   .... Almloef's Model
Max. no of cycles        MaxIter  .... 500

Convergence Tolerances:
Energy Change            TolE     ....  8.0000e-05 Eh
Max. Gradient            TolMAXG  ....  5.0000e-03 Eh/bohr
RMS Gradient             TolRMSG  ....  1.0000e-03 Eh/bohr
Max. Displacement        TolMAXD  ....  3.0000e-02 bohr
RMS Displacement         TolRMSD  ....  2.0000e-02 bohr
Strict Convergence                .... False

------------------------------------------------------------------------------
                        ORCA OPTIMIZATION COORDINATE SETUP
------------------------------------------------------------------------------

The optimization will be done in redundant internal coordinates (2022)
Making redundant internal coordinates   ...  (2022 redundants) done
Evaluating the initial hessian          ...  (Almloef) done
Evaluating the coordinates              ...  done
Calculating the B-matrix                .... done
Calculating the G-matrix                .... done
The number of degrees of freedom        ....  117

    -----------------------------------------------------------------
                    Redundant Internal Coordinates


    -----------------------------------------------------------------
         Definition                    Initial Value    Approx d2E/dq
    -----------------------------------------------------------------
      1. B(Al  1,Al  0)                  2.9515         0.098995   
      2. B(H   2,Al  1)                  1.7070         0.261623   
      3. B(H   3,Al  1)                  1.5960         0.393329   
      4. B(H   4,Al  1)                  1.7066         0.262021   
      5. B(H   4,Al  0)                  1.7046         0.263943   
      6. B(H   5,Al  0)                  1.5961         0.393082   
      7. B(H   6,Al  0)                  1.7042         0.264283   
      8. B(H   7,Al  1)                  1.5961         0.393196   
      9. B(Al  8,H   6)                  1.7043         0.264197   
     10. B(Al  8,H   2)                  1.7046         0.263861   
     11. B(Al  8,Al  1)                  2.9546         0.097878   
     12. B(Al  8,Al  0)                  2.9840         0.087870   
     13. B(H   9,Al  8)                  1.5963         0.392877   
     14. B(H  10,Al  8)                  1.5968         0.392142   
     15. B(H  11,Al  0)                  1.5977         0.390783   
     16. A(H   4,Al  0,H   6)          109.7551         0.333689   
     17. A(Al  1,Al  0,H   4)           30.1066         0.327993   
     18. A(Al  1,Al  0,Al  8)           59.7044         0.316280   
     19. A(Al  8,Al  0,H  11)          109.8662         0.343238   
     20. A(H   4,Al  0,H   5)          109.6380         0.356694   
     21. A(H   6,Al  0,H  11)          109.0822         0.356417   
     22. A(Al  1,Al  0,H   5)          138.8827         0.350538   
     23. A(Al  1,Al  0,H  11)           97.6938         0.350191   
     24. A(H   5,Al  0,H  11)          109.6240         0.381558   
     25. A(H   5,Al  0,H   6)          109.6103         0.356772   
     26. A(H   4,Al  0,Al  8)           82.9016         0.321630   
     27. A(Al  1,Al  0,H   6)           88.6036         0.328062   
     28. A(H   5,Al  0,Al  8)          131.1858         0.343575   
     29. A(H   4,Al  0,H  11)          109.1155         0.356339   
     30. A(H   6,Al  0,Al  8)           28.9033         0.321698   
     31. A(H   2,Al  1,H   7)          109.1743         0.356177   
     32. A(H   3,Al  1,H   4)          109.1827         0.356290   
     33. A(Al  0,Al  1,H   3)          132.2255         0.350575   
     34. A(H   2,Al  1,H   4)          111.1851         0.332726   
     35. A(H   4,Al  1,Al  8)           83.7977         0.326986   
     36. A(H   3,Al  1,Al  8)          108.6900         0.349904   
     37. A(H   2,Al  1,H   3)          108.8247         0.356198   
     38. A(H   2,Al  1,Al  8)           29.9756         0.326904   
     39. A(Al  0,Al  1,Al  8)           60.6936         0.321897   
     40. A(H   7,Al  1,Al  8)          132.2967         0.349884   
     41. A(Al  0,Al  1,H   4)           30.0679         0.327598   
     42. A(H   4,Al  1,H   7)          108.8221         0.356269   
     43. A(Al  0,Al  1,H   7)          108.8718         0.350555   
     44. A(Al  0,Al  1,H   2)           83.6336         0.327516   
     45. A(H   3,Al  1,H   7)          109.6359         0.382008   
     46. A(Al  1,H   2,Al  8)          120.0038         0.333113   
     47. A(Al  0,H   4,Al  1)          119.8255         0.333214   
     48. A(Al  0,H   6,Al  8)          122.1951         0.333743   
     49. A(Al  1,Al  8,H   2)           30.0206         0.327363   
     50. A(Al  0,Al  8,H   2)           82.6469         0.321614   
     51. A(Al  0,Al  8,Al  1)           59.6020         0.315697   
     52. A(H   6,Al  8,H  10)          109.1142         0.356607   
     53. A(H   2,Al  8,H  10)          109.1092         0.356530   
     54. A(Al  1,Al  8,H  10)           98.1275         0.349726   
     55. A(Al  0,Al  8,H  10)          110.9832         0.343438   
     56. A(H   6,Al  8,H   9)          109.5292         0.356721   
     57. A(H   9,Al  8,H  10)          109.6307         0.381754   
     58. A(H   2,Al  8,H   9)          109.5737         0.356644   
     59. A(Al  1,Al  8,H   9)          138.6092         0.349836   
     60. A(Al  0,Al  8,H   9)          130.2850         0.343546   
     61. A(H   2,Al  8,H   6)          109.8690         0.333654   
     62. A(Al  1,Al  8,H   6)           88.4996         0.327431   
     63. A(Al  0,Al  8,H   6)           28.9016         0.321681   
     64. D(H   2,Al  1,Al  0,H   4)   -156.7054         0.010000   
     65. D(H   3,Al  1,Al  0,H   6)     88.7318         0.010000   
     66. D(H   3,Al  1,Al  0,H   5)    -30.1232         0.010000   
     67. D(H   3,Al  1,Al  0,Al  8)     89.2451         0.010000   
     68. D(H   2,Al  1,Al  0,Al  8)    -20.4609         0.010000   
     69. D(H   3,Al  1,Al  0,H   4)    -46.9994         0.010000   
     70. D(H   2,Al  1,Al  0,H   6)    -20.9742         0.010000   
     71. D(H   2,Al  1,Al  0,H   5)   -139.8292         0.010000   
     72. D(H   2,Al  1,Al  0,H  11)     88.0943         0.010000   
     73. D(H   3,Al  1,Al  0,H  11)   -162.1997         0.010000   
     74. D(Al  8,H   2,Al  1,H   7)    145.4021         0.010000   
     75. D(Al  8,H   2,Al  1,H   3)    -94.9657         0.010000   
     76. D(Al  8,H   2,Al  1,Al  0)     37.5972         0.010000   
     77. D(Al  8,H   2,Al  1,H   4)     25.3285         0.010000   
     78. D(Al  1,H   4,Al  0,H   5)   -168.3054         0.010000   
     79. D(Al  0,H   4,Al  1,H   7)    -95.3523         0.010000   
     80. D(Al  0,H   4,Al  1,Al  8)     37.3456         0.010000   
     81. D(Al  0,H   4,Al  1,H   3)    145.0121         0.010000   
     82. D(Al  0,H   4,Al  1,H   2)     24.9298         0.010000   
     83. D(Al  1,H   4,Al  0,H  11)     71.6238         0.010000   
     84. D(Al  1,H   4,Al  0,Al  8)    -36.9952         0.010000   
     85. D(Al  1,H   4,Al  0,H   6)    -47.8556         0.010000   
     86. D(Al  8,H   6,Al  0,H   4)     22.7580         0.010000   
     87. D(Al  8,H   6,Al  0,Al  1)      0.9170         0.010000   
     88. D(Al  8,H   6,Al  0,H   5)    143.2246         0.010000   
     89. D(Al  8,H   6,Al  0,H  11)    -96.7418         0.010000   
     90. D(Al  1,Al  8,Al  0,H  11)    -87.3497         0.010000   
     91. D(Al  1,Al  8,Al  0,H   6)    178.9383         0.010000   
     92. D(Al  1,Al  8,Al  0,H   5)    130.4030         0.010000   
     93. D(H   2,Al  8,Al  0,Al  1)     20.5344         0.010000   
     94. D(Al  1,Al  8,Al  0,H   4)     20.4619         0.010000   
     95. D(H   9,Al  8,H   6,Al  0)    140.9893         0.010000   
     96. D(H   2,Al  8,H   6,Al  0)     20.5817         0.010000   
     97. D(Al  1,Al  8,H   6,Al  0)     -0.9161         0.010000   
     98. D(H  10,Al  8,H   2,Al  1)     72.5102         0.010000   
     99. D(H   9,Al  8,H   2,Al  1)   -167.4537         0.010000   
    100. D(H   6,Al  8,H   2,Al  1)    -47.0731         0.010000   
    101. D(H   6,Al  8,Al  1,H   2)    136.4592         0.010000   
    102. D(H   6,Al  8,Al  1,Al  0)      0.5133         0.010000   
    103. D(H   2,Al  8,Al  1,H   7)    -46.4748         0.010000   
    104. D(H   2,Al  8,Al  1,H   4)   -156.3440         0.010000   
    105. D(H   2,Al  8,Al  1,H   3)     95.4670         0.010000   
    106. D(H   2,Al  8,Al  1,Al  0)   -135.9459         0.010000   
    107. D(Al  0,Al  8,Al  1,H   7)     89.4711         0.010000   
    108. D(Al  0,Al  8,Al  1,H   4)    -20.3981         0.010000   
    109. D(Al  0,Al  8,H   2,Al  1)    -37.2090         0.010000   
    110. D(Al  0,Al  8,Al  1,H   3)   -128.5871         0.010000   
    111. D(Al  0,Al  8,Al  1,H   2)    135.9459         0.010000   
    112. D(H   6,Al  8,Al  0,Al  1)   -178.9383         0.010000   
    113. D(H   2,Al  8,Al  0,H  11)    -66.8153         0.010000   
    114. D(H   2,Al  8,Al  0,H   6)   -160.5273         0.010000   
    115. D(H   2,Al  8,Al  0,H   5)    150.9374         0.010000   
    116. D(H  10,Al  8,H   6,Al  0)    -98.9986         0.010000   
    117. D(H   2,Al  8,Al  0,H   4)     40.9963         0.010000   
    -----------------------------------------------------------------

Number of atoms                         .... 12
Number of degrees of freedom            .... 117


         *************************************************************
         *                GEOMETRY OPTIMIZATION CYCLE   1            *
         *************************************************************
---------------------------------
CARTESIAN COORDINATES (ANGSTROEM)
---------------------------------
  Al    -0.290400    1.462690    2.547080
  Al     0.000000    0.000000    0.000000
  H      0.843190   -1.128760    0.963670
  H     -1.048990   -0.783770   -0.912390
  H     -0.833610    1.133940    0.965190
  H     -1.395550    2.308350    3.328860
  H     -0.000000    0.000000    3.372030
  H      1.040310    0.778650   -0.926760
  Al     0.313310   -1.459560    2.549740
  H      1.438820   -2.280270    3.329350
  H     -1.029590   -2.320930    2.483270
  H      1.069450    2.297970    2.470320

----------------------------
CARTESIAN COORDINATES (A.U.)
----------------------------
  NO LB      ZA    FRAG     MASS         X           Y           Z
   0 Al   13.0000    0    26.982   -0.548776    2.764084    4.813284
   1 Al   13.0000    0    26.982    0.000000    0.000000    0.000000
   2 H     1.0000    0     1.008    1.593398   -2.133047    1.821072
   3 H     1.0000    0     1.008   -1.982304   -1.481111   -1.724167
   4 H     1.0000    0     1.008   -1.575295    2.142836    1.823945
   5 H     1.0000    0     1.008   -2.637207    4.362149    6.290634
   6 H     1.0000    0     1.008   -0.000000    0.000000    6.372213
   7 H     1.0000    0     1.008    1.965901    1.471435   -1.751323
   8 Al   13.0000    0    26.982    0.592070   -2.758169    4.818310
   9 H     1.0000    0     1.008    2.718976   -4.309086    6.291560
  10 H     1.0000    0     1.008   -1.945643   -4.385922    4.692700
  11 H     1.0000    0     1.008    2.020968    4.342534    4.668228

--------------------------------
INTERNAL COORDINATES (ANGSTROEM)
--------------------------------
 Al     0   0   0     0.000000000000     0.00000000     0.00000000
 Al     1   0   0     2.951509905540     0.00000000     0.00000000
 H      2   1   0     1.706964669406    83.63362024     0.00000000
 H      2   1   3     1.595973353506   132.22554339   109.70597532
 H      1   2   3     1.704561421217    30.10661081   203.29464752
 H      1   2   3     1.596144519303   138.88271663   220.17079937
 H      1   2   3     1.704211459473    88.60356904   339.02580351
 H      2   1   3     1.596065417268   108.87176096   251.87343405
 Al     7   1   2     1.704300265153   122.19506105     0.91697015
 H      9   7   1     1.596286132340   109.52915818   140.98929866
 H      9   7   1     1.596795837858   109.11420692   261.00144991
 H      1   2   3     1.597741155037    97.69382328    88.09433498

---------------------------
INTERNAL COORDINATES (A.U.)
---------------------------
 Al     0   0   0     0.000000000000     0.00000000     0.00000000
 Al     1   0   0     5.577545403026     0.00000000     0.00000000
 H      2   1   0     3.225695745457    83.63362024     0.00000000
 H      2   1   3     3.015952555162   132.22554339   109.70597532
 H      1   2   3     3.221154264547    30.10661081   203.29464752
 H      1   2   3     3.016276011641   138.88271663   220.17079937
 H      1   2   3     3.220492932695    88.60356904   339.02580351
 H      2   1   3     3.016126530460   108.87176096   251.87343405
 Al     7   1   2     3.220660751108   122.19506105     0.91697015
 H      9   7   1     3.016543621498   109.52915818   140.98929866
 H      9   7   1     3.017506825337   109.11420692   261.00144991
 H      1   2   3     3.019293215916    97.69382328    88.09433498

---------------------
BASIS SET INFORMATION
---------------------
There are 2 groups of distinct atoms

 Group   1 Type Al  : 10s7p1d contracted to 4s3p1d pattern {5311/511/1}
 Group   2 Type H   : 4s contracted to 2s pattern {31}

Atom   0Al   basis set group =>   1
Atom   1Al   basis set group =>   1
Atom   2H    basis set group =>   2
Atom   3H    basis set group =>   2
Atom   4H    basis set group =>   2
Atom   5H    basis set group =>   2
Atom   6H    basis set group =>   2
Atom   7H    basis set group =>   2
Atom   8Al   basis set group =>   1
Atom   9H    basis set group =>   2
Atom  10H    basis set group =>   2
Atom  11H    basis set group =>   2
---------------------------------
AUXILIARY/J BASIS SET INFORMATION
---------------------------------
There are 2 groups of distinct atoms

 Group   1 Type Al  : 14s5p5d2f1g contracted to 8s4p3d1f1g pattern {71111111/2111/311/2/1}
 Group   2 Type H   : 5s2p1d contracted to 3s1p1d pattern {311/2/1}

Atom   0Al   basis set group =>   1
Atom   1Al   basis set group =>   1
Atom   2H    basis set group =>   2
Atom   3H    basis set group =>   2
Atom   4H    basis set group =>   2
Atom   5H    basis set group =>   2
Atom   6H    basis set group =>   2
Atom   7H    basis set group =>   2
Atom   8Al   basis set group =>   1
Atom   9H    basis set group =>   2
Atom  10H    basis set group =>   2
Atom  11H    basis set group =>   2


           ************************************************************
           *        Program running with 24 parallel MPI-processes    *
           *              working on a common directory               *
           ************************************************************
------------------------------------------------------------------------------
                             ORCA STARTUP CALCULATIONS
                           -- RI-GTO INTEGRALS CHOSEN --
------------------------------------------------------------------------------
------------------------------------------------------------------------------
                   ___                                                        
                  /   \      - P O W E R E D   B Y -                         
                 /     \                                                     
                 |  |  |   _    _      __       _____    __    __             
                 |  |  |  | |  | |    /  \     |  _  \  |  |  /  |          
                  \  \/   | |  | |   /    \    | | | |  |  | /  /          
                 / \  \   | |__| |  /  /\  \   | |_| |  |  |/  /          
                |  |  |   |  __  | /  /__\  \  |    /   |      \           
                |  |  |   | |  | | |   __   |  |    \   |  |\   \          
                \     /   | |  | | |  |  |  |  | |\  \  |  | \   \       
                 \___/    |_|  |_| |__|  |__|  |_| \__\ |__|  \__/        
                                                                              
                      - O R C A' S   B I G   F R I E N D -                    
                                      &                                       
                       - I N T E G R A L  F E E D E R -                       
                                                                              
 v1 FN, 2020, v2 2021, v3 2022-2024                                           
------------------------------------------------------------------------------


----------------------
SHARK INTEGRAL PACKAGE
----------------------

Number of atoms                             ...     12
Number of basis functions                   ...     72
Number of shells                            ...     42
Maximum angular momentum                    ...      2
Integral batch strategy                     ... SHARK/LIBINT Hybrid
RI-J (if used) integral strategy            ... SPLIT-RIJ (Revised 2003 algorithm where possible)
Printlevel                                  ...      1
Contraction scheme used                     ... SEGMENTED contraction
Prescreening option                         ... SCHWARTZ
   Thresh                                   ... 1.000e-10
   Tcut                                     ... 1.000e-11
   Tpresel                                  ... 1.000e-11 
Coulomb Range Separation                    ... NOT USED
Exchange Range Separation                   ... NOT USED
Multipole approximations                    ... NOT USED
Finite Nucleus Model                        ... NOT USED
CABS basis                                  ... NOT available
Auxiliary Coulomb fitting basis             ... AVAILABLE
   # of basis functions in Aux-J            ...    252
   # of shells in Aux-J                     ...     96
   Maximum angular momentum in Aux-J        ...      4
Auxiliary J/K fitting basis                 ... NOT available
Auxiliary Correlation fitting basis         ... NOT available
Auxiliary 'external' fitting basis          ... NOT available

Checking pre-screening integrals            ... done (  0.0 sec) Dimension = 42
   => SHARK Basis and OBASIS are compatible. Storing Pre-screening
Shell pair information
Shell pair cut-off parameter TPreSel        ...   1.0e-11
Total number of shell pairs                 ...       903
Shell pairs after pre-screening             ...       882
Total number of primitive shell pairs       ...      4191
Primitive shell pairs kept                  ...      2979
          la=0 lb=0:    450 shell pairs
          la=1 lb=0:    264 shell pairs
          la=1 lb=1:     45 shell pairs
          la=2 lb=0:     90 shell pairs
          la=2 lb=1:     27 shell pairs
          la=2 lb=2:      6 shell pairs

Checking whether 4 symmetric matrices of dimension 72 fit in memory
:Max Core in MB      =   4096.00
 MB in use           =      4.46
 MB left             =   4091.54
 MB needed           =      0.08
 Data fit in memory  = YES
Calculating RI/J V-Matrix + Cholesky decomp.... done (  0.1 sec)
Calculating Nuclear repulsion               ... done (  0.0 sec) ENN=    173.343242350548 Eh

Diagonalization of the overlap matrix:
Smallest eigenvalue                        ... 6.785e-03
Time for diagonalization                   ...    0.033 sec
Threshold for overlap eigenvalues          ... 1.000e-07
Number of eigenvalues below threshold      ... 0
Time for construction of square roots      ...    0.003 sec
Total time needed                          ...    0.038 sec

-------------------
DFT GRID GENERATION
-------------------

General Integration Accuracy     IntAcc      ... 4.388
Radial Grid Type                 RadialGrid  ... OptM3 with GC (2021)
Angular Grid (max. ang.)         AngularGrid ... 4 (Lebedev-302)
Angular grid pruning method      GridPruning ... 4 (adaptive)
Weight generation scheme         WeightScheme... mBecke (2022)
Basis function cutoff            BFCut       ... 1.0000e-10
Integration weight cutoff        WCut        ... 1.0000e-14
Partially contracted basis set               ... off
Rotationally invariant grid construction     ... off
Angular grids for H and He will be reduced by one unit

Total number of grid points                  ...    51168
Total number of batches                      ...      806
Average number of points per batch           ...       63
Average number of grid points per atom       ...     4264
Grids setup in   0.7 sec
Initializing property integral containers    ... done (  0.0 sec)

SHARK setup successfully completed in   1.1 seconds

Maximum memory used throughout the entire STARTUP-calculation: 13.3 MB


           ************************************************************
           *        Program running with 24 parallel MPI-processes    *
           *              working on a common directory               *
           ************************************************************
-------------------------------------------------------------------------------
                                 ORCA GUESS
                   Start orbitals & Density for SCF / CASSCF
-------------------------------------------------------------------------------

------------
SCF SETTINGS
------------
Hamiltonian:
 Density Functional     Method          .... DFT(GTOs)
 Exchange Functional    Exchange        .... PBE
   PBE kappa parameter   XKappa         ....  0.804000
   PBE mue parameter    XMuePBE         ....  0.219520
 Correlation Functional Correlation     .... PBE
   PBE beta parameter  CBetaPBE         ....  0.066725
 LDA part of GGA corr.  LDAOpt          .... PW91-LDA
 Gradients option       PostSCFGGA      .... off
   NL short-range parameter             ....  6.400000
 RI-approximation to the Coulomb term is turned on
   Number of AuxJ basis functions       .... 252


General Settings:
 Integral files         IntName         .... run
 Hartree-Fock type      HFTyp           .... RHF
 Total Charge           Charge          ....    0
 Multiplicity           Mult            ....    1
 Number of Electrons    NEL             ....   48
 Basis Dimension        Dim             ....   72
 Nuclear Repulsion      ENuc            ....    173.3432423505 Eh

Convergence Acceleration:
 AO-DIIS                CNVDIIS         .... on
   Start iteration      DIISMaxIt       ....    12
   Startup error        DIISStart       ....  0.200000
   # of expansion vecs  DIISMaxEq       ....     5
   Bias factor          DIISBfac        ....   1.050
   Max. coefficient     DIISMaxC        ....  10.000
 MO-DIIS                CNVKDIIS        .... off
 Trust-Rad. Augm. Hess. CNVTRAH         .... auto
   Auto Start mean grad. ratio tolernc. ....  1.125000
   Auto Start start iteration           ....    50
   Auto Start num. interpolation iter.  ....    10
   Max. Number of Micro iterations      ....    24
   Max. Number of Macro iterations      .... Maxiter - #DIIS iter
   Number of Davidson start vectors     ....     2
   Converg. threshold    (grad. norm)   ....   5.000e-05
   Grad. Scal. Fac. for Micro threshold ....   0.100
   Minimum threshold for Micro iter.    ....   1.000e-02
   NR start threshold (gradient norm)   ....   1.000e-04
   Initial trust radius                 ....   0.400
   Minimum AH scaling param. (alpha)    ....   1.000
   Maximum AH scaling param. (alpha)    .... 1000.000
   Quad. conv. algorithm                .... NR
   White noise on init. David. guess    .... on
   Maximum white noise                  ....   0.010
   Pseudo random numbers                .... off
   Inactive MOs                         .... canonical
   Orbital update algorithm             .... Taylor
   Preconditioner                       .... Diag
   Full preconditioner red. dimension   ....   250
 SOSCF                 CNVSOSCF           .... on
   Start iteration     SOSCFMaxIt         ....   150
   Startup grad/error  SOSCFStart         ....  0.003300
   Hessian update      SOSCFHessUp        .... L-BFGS
   Autom. constraints  SOSCFAutoConstrain .... off
 Level Shifting         CNVShift        .... on
   Level shift para.    LevelShift      ....    0.2500
   Turn off err/grad.   ShiftErr        ....    0.0010
 Zerner damping         CNVZerner       .... off
 Static damping         CNVDamp         .... on
   Fraction old density DampFac         ....    0.7000
   Max. Damping (<1)    DampMax         ....    0.9800
   Min. Damping (>=0)   DampMin         ....    0.0000
   Turn off err/grad.   DampErr         ....    0.1000

SCF Procedure:
 Maximum # iterations   MaxIter         ....   125
 SCF integral mode      SCFMode         .... Direct
   Integral package                     .... SHARK and LIBINT hybrid scheme
 Reset frequency        DirectResetFreq ....    20
 Integral Threshold     Thresh          ....  1.000e-10 Eh
 Primitive CutOff       TCut            ....  1.000e-11 Eh

Convergence Tolerance:
 Convergence Check Mode ConvCheckMode   .... Total+1el-Energy
 Convergence forced     ConvForced      .... 0
 Energy Change          TolE            ....  1.000e-06 Eh
 1-El. energy change                    ....  1.000e-03 Eh
 Orbital Gradient       TolG            ....  5.000e-05
 Orbital Rotation angle TolX            ....  5.000e-05
 DIIS Error             TolErr          ....  1.000e-05

------------------------------
INITIAL GUESS: MODEL POTENTIAL
------------------------------
Loading Hartree-Fock densities                     ... done
Calculating cut-offs                               ... done
Initializing the effective Hamiltonian             ... done
Setting up the integral package (SHARK)            ... done
Starting the Coulomb interaction                   ... done (   0.1 sec)
Making the grid                                    ... done (   0.1 sec)
Mapping shells                                     ... done
Starting the XC term evaluation                    ... done (   0.0 sec)
  promolecular density results
     # of electrons  =     47.990855481
     EX              =    -56.702109905
     EC              =     -1.652248409
     EX+EC           =    -58.354358314
Transforming the Hamiltonian                       ... done (   0.0 sec)
Diagonalizing the Hamiltonian                      ... done (   0.0 sec)
Back transforming the eigenvectors                 ... done (   0.0 sec)
Now organizing SCF variables                       ... done
                      ------------------
                      INITIAL GUESS DONE (   0.2 sec)
                      ------------------
             **** ENERGY FILE WAS UPDATED (run.en.tmp) ****
Finished Guess after   0.9 sec
Maximum memory used throughout the entire GUESS-calculation: 6.7 MB


           ************************************************************
           *        Program running with 24 parallel MPI-processes    *
           *              working on a common directory               *
           ************************************************************

-------------------------------------------------------------------------------------------
                                      ORCA LEAN-SCF
                              memory conserving SCF solver
-------------------------------------------------------------------------------------------

----------------------------------------D-I-I-S--------------------------------------------
Iteration    Energy (Eh)           Delta-E    RMSDP     MaxDP     DIISErr   Damp  Time(sec)
-------------------------------------------------------------------------------------------
               ***  Starting incremental Fock matrix formation  ***
    1    -731.9078758361890777     0.00e+00  1.66e-02  3.74e-02  6.75e-02  0.700   0.2
    2    -731.9267116827452355    -1.88e-02  1.55e-02  3.10e-02  4.52e-02  0.700   0.2
                               ***Turning on AO-DIIS***
    3    -731.9375661701685658    -1.09e-02  8.27e-03  1.55e-02  2.58e-02  0.700   0.1
    4    -731.9435337186901052    -5.97e-03  1.57e-02  2.96e-02  1.59e-02  0.000   0.1
                              *** Initializing SOSCF ***
---------------------------------------S-O-S-C-F--------------------------------------
Iteration    Energy (Eh)           Delta-E    RMSDP     MaxDP     MaxGrad    Time(sec)
--------------------------------------------------------------------------------------
    5    -731.9552030896443284    -1.17e-02  2.18e-03  3.69e-03  2.83e-03     0.1
               *** Restarting incremental Fock matrix formation ***
    6    -731.9552850553618555    -8.20e-05  2.03e-03  3.49e-03  6.94e-04     0.1
    7    -731.9552909729616204    -5.92e-06  8.29e-04  1.81e-03  5.08e-04     0.1
    8    -731.9552997878618044    -8.81e-06  2.40e-04  6.77e-04  9.67e-05     0.1
    9    -731.9553000380406047    -2.50e-07  8.19e-05  2.11e-04  4.13e-05     0.1
                 **** Energy Check signals convergence ****

               *****************************************************
               *                     SUCCESS                       *
               *           SCF CONVERGED AFTER   9 CYCLES          *
               *****************************************************

             **** ENERGY FILE WAS UPDATED (run.en.tmp) ****

----------------
TOTAL SCF ENERGY
----------------

Total Energy       :       -731.95530010013249 Eh          -19917.51630 eV

Components:
Nuclear Repulsion  :        173.34324235054800 Eh            4716.90943 eV
Electronic Energy  :       -905.29854245068054 Eh          -24634.42573 eV
One Electron Energy:      -1360.40077144197858 Eh          -37018.38697 eV
Two Electron Energy:        455.10222899129803 Eh           12383.96124 eV

Virial components:
Potential Energy   :      -1461.47871506553815 Eh          -39768.85765 eV
Kinetic Energy     :        729.52341496540566 Eh           19851.34134 eV
Virial Ratio       :          2.00333352581266

DFT components:
N(Alpha)           :       24.000066557282 electrons
N(Beta)            :       24.000066557282 electrons
N(Total)           :       48.000133114563 electrons
E(X)               :      -57.106388403381 Eh       
E(C)               :       -1.640078192473 Eh       
E(XC)              :      -58.746466595854 Eh       

---------------
SCF CONVERGENCE
---------------

  Last Energy change         ...    2.5018e-07  Tolerance :   1.0000e-06
  Last MAX-Density change    ...    2.1142e-04  Tolerance :   1.0000e-05
  Last RMS-Density change    ...    8.1875e-05  Tolerance :   1.0000e-06
  Last DIIS Error            ...    2.8330e-03  Tolerance :   1.0000e-05
  Last Orbital Gradient      ...    4.1309e-05  Tolerance :   5.0000e-05
  Last Orbital Rotation      ...    6.0787e-05  Tolerance :   5.0000e-05


----------------
ORBITAL ENERGIES
----------------

  NO   OCC          E(Eh)            E(eV) 
   0   2.0000     -55.398860     -1507.4796 
   1   2.0000     -55.398693     -1507.4751 
   2   2.0000     -55.396336     -1507.4109 
   3   2.0000      -3.958669      -107.7209 
   4   2.0000      -3.958506      -107.7164 
   5   2.0000      -3.955969      -107.6474 
   6   2.0000      -2.566741       -69.8446 
   7   2.0000      -2.566575       -69.8401 
   8   2.0000      -2.564220       -69.7760 
   9   2.0000      -2.564132       -69.7736 
  10   2.0000      -2.564050       -69.7713 
  11   2.0000      -2.561566       -69.7038 
  12   2.0000      -2.560319       -69.6698 
  13   2.0000      -2.560144       -69.6651 
  14   2.0000      -2.557429       -69.5912 
  15   2.0000      -0.506816       -13.7912 
  16   2.0000      -0.419065       -11.4033 
  17   2.0000      -0.418305       -11.3827 
  18   2.0000      -0.329466        -8.9652 
  19   2.0000      -0.323816        -8.8115 
  20   2.0000      -0.306796        -8.3484 
  21   2.0000      -0.283170        -7.7054 
  22   2.0000      -0.270204        -7.3526 
  23   2.0000      -0.263112        -7.1596 
  24   0.0000      -0.082181        -2.2363 
  25   0.0000      -0.068203        -1.8559 
  26   0.0000      -0.059582        -1.6213 
  27   0.0000      -0.052190        -1.4202 
  28   0.0000      -0.048659        -1.3241 
  29   0.0000       0.008982         0.2444 
  30   0.0000       0.018199         0.4952 
  31   0.0000       0.047286         1.2867 
  32   0.0000       0.054172         1.4741 
  33   0.0000       0.062112         1.6902 
  34   0.0000       0.093694         2.5495 
*Only the first 10 virtual orbitals were printed.
-------
TIMINGS
-------

Total SCF time: 0 days 0 hours 0 min 1 sec 

Total time                  ....       1.905 sec
Sum of individual times     ....       1.764 sec  ( 92.6%)

SCF preparation             ....       0.607 sec  ( 31.8%)
Fock matrix formation       ....       0.921 sec  ( 48.3%)
  Startup                   ....       0.007 sec  (  0.8% of F)
  Split-RI-J                ....       0.253 sec  ( 27.5% of F)
  XC integration            ....       0.640 sec  ( 69.5% of F)
    XC Preparation          ....       0.000 sec  (  0.0% of XC)
    Basis function eval.    ....       0.114 sec  ( 17.8% of XC)
    Density eval.           ....       0.049 sec  (  7.7% of XC)
    XC-Functional eval.     ....       0.027 sec  (  4.2% of XC)
    XC-Potential eval.      ....       0.045 sec  (  7.1% of XC)
Diagonalization             ....       0.000 sec  (  0.0%)
Density matrix formation    ....       0.032 sec  (  1.7%)
Total Energy calculation    ....       0.022 sec  (  1.1%)
Population analysis         ....       0.000 sec  (  0.0%)
Orbital Transformation      ....       0.021 sec  (  1.1%)
Orbital Orthonormalization  ....       0.000 sec  (  0.0%)
DIIS solution               ....       0.104 sec  (  5.5%)
SOSCF solution              ....       0.058 sec  (  3.1%)
Finished LeanSCF after   1.9 sec

Maximum memory used throughout the entire LEANSCF-calculation: 5.6 MB


           ************************************************************
           *        Program running with 24 parallel MPI-processes    *
           *              working on a common directory               *
           ************************************************************

------------------------------------------------------------------------------
                         ORCA PROPERTY INTEGRAL CALCULATIONS
------------------------------------------------------------------------------

GBWName                                   ... run.gbw
Number of atoms                           ...     12
Number of basis functions                 ...     72
Max core memory                           ...   4096 MB

Dipole integrals                          ... YES
Quadrupole integrals                      ...  NO
Linear momentum integrals                 ...  NO
Angular momentum integrals                ...  NO
Higher moments length integrals           ...  NO
Higher moments velocity integrals         ...  NO
Kinetic energy integrals                  ...  NO
GIAO right hand sides                     ...  NO
GIAO dipole derivative integrals          ...  NO
SOC integrals                             ...  NO
EPR diamagnetic integrals (GIAO)          ...  NO
EPR gauge integrals                       ...  NO
Field gradient integrals                  ...  NO (   0 nuclei)
Spin-dipole/Fermi contact integrals       ...  NO (   0 nuclei)
Contact density integrals                 ...  NO (   0 nuclei)
Nucleus-orbit integrals                   ...  NO (   0 nuclei)
Geometric perturbations                   ...  NO (  12 nuclei)

Choice of electric origin   ... Center of mass
Position of electric origin ... (  0.0148,  0.0019,  3.2059) 
Choice of magnetic origin   ... GIAO
Position of magnetic origin ... (  0.0000,  0.0000,  0.0000) 

Calculating integrals                     ... Electric Dipole (Length)     done (  0.0 sec)

Property integrals calculated in   0.0 sec

Maximum memory used throughout the entire PROPINT-calculation: 6.8 MB


-------------------------------------------------------------------------------
                          DFT DISPERSION CORRECTION                            
                                                                               
                              DFTD3 V3.1  Rev 1                                
                          USING Becke-Johnson damping                          
-------------------------------------------------------------------------------
The PBE functional is recognized
Active option DFTDOPT                   ...         4   

molecular C6(AA) [au] = 2779.970111 


            DFT-D V3
 parameters
 s6 scaling factor         :     1.0000 
 a1 scaling factor         :     0.4289 
 s8 scaling factor         :     0.7875 
 a2 scaling factor         :     4.4407 
 ad hoc parameters k1-k3   :    16.0000     1.3333    -4.0000 

 Edisp/kcal,au: -5.590729269330  -0.008909393251 
 E6   /kcal   :  -3.510396135 
 E8   /kcal   :  -2.080333134 
 % E8         :  37.210407332 

-------------------------   ----------------
Dispersion correction           -0.008909393
-------------------------   ----------------


-------------------------   --------------------
FINAL SINGLE POINT ENERGY      -731.964209493383
-------------------------   --------------------



           ************************************************************
           *        Program running with 24 parallel MPI-processes    *
           *              working on a common directory               *
           ************************************************************
------------------------------------------------------------------------------
                         ORCA SCF GRADIENT CALCULATION
------------------------------------------------------------------------------

Nuc. rep. gradient        (SHARK) ... done (  0.0 sec)
HCore & Overlap gradient  (SHARK) ... done (  0.0 sec)
Split-RIJ-J gradient      (SHARK) ... done (  0.3 sec)
XC gradient                       ... done (  0.2 sec)
Dispersion correction             ... done (  0.1 sec)

-------------------
DISPERSION GRADIENT
-------------------

   1   Al  :   -0.000053891    0.000283450    0.000170977
   2   Al  :   -0.000001807   -0.000000017   -0.000334378
   3   H   :    0.000072920   -0.000099184   -0.000063088
   4   H   :   -0.000063591   -0.000031399   -0.000153938
   5   H   :   -0.000073568    0.000099117   -0.000062768
   6   H   :   -0.000068641    0.000104033    0.000072993
   7   H   :   -0.000000780   -0.000000076    0.000140641
   8   H   :    0.000062017    0.000030853   -0.000154537
   9   Al  :    0.000055132   -0.000283465    0.000171765
  10   H   :    0.000070265   -0.000103674    0.000073170
  11   H   :   -0.000068105   -0.000161880    0.000069746
  12   H   :    0.000070050    0.000162239    0.000069418

Difference to translation invariance:
           :    0.0000000000   -0.0000000000    0.0000000000

Difference to rotation invariance:
           :   -0.0000000000   -0.0000000000    0.0000000000

Norm of the Dispersion gradient    ...    0.0007525580
RMS gradient                       ...    0.0001254263
MAX gradient                       ...    0.0003343778

------------------
CARTESIAN GRADIENT
------------------

   1   Al  :   -0.003292397   -0.023435536   -0.010432585
   2   Al  :    0.000013313    0.000089720    0.028756531
   3   H   :   -0.000477297   -0.006632373   -0.004727948
   4   H   :    0.005714742    0.003187042   -0.007119377
   5   H   :    0.000586725    0.006501034   -0.004792282
   6   H   :    0.007268381    0.006886127    0.000936331
   7   H   :    0.000137925   -0.000032504    0.005095826
   8   H   :   -0.005739365   -0.003210960   -0.007043637
   9   Al  :    0.002555016    0.023465710   -0.010579360
  10   H   :   -0.007112927   -0.007009155    0.001021776
  11   H   :    0.005810447   -0.006501346    0.004435677
  12   H   :   -0.005464565    0.006692240    0.004449047

Difference to translation invariance:
           :   -0.0000000000   -0.0000000000    0.0000000000

Difference to rotation invariance:
           :   -0.0000292084    0.0000570651   -0.0000889287

Norm of the Cartesian gradient     ...    0.0538653100
RMS gradient                       ...    0.0089775517
MAX gradient                       ...    0.0287565314

-------
TIMINGS
-------

Total SCF gradient time     ....        0.707 sec

Densities                   ....       0.001 sec  (  0.2%)
One electron gradient       ....       0.037 sec  (  5.3%)
RI-J Coulomb gradient       ....       0.278 sec  ( 39.3%)
XC gradient                 ....       0.248 sec  ( 35.1%)

Maximum memory used throughout the entire SCFGRAD-calculation: 26.5 MB
------------------------------------------------------------------------------
                         ORCA GEOMETRY RELAXATION STEP
------------------------------------------------------------------------------

Reading the OPT-File                    .... done
Getting information on internals        .... done
Copying old internal coords+grads       .... done
Making the new internal coordinates     .... (2022 redundants) done
Validating the new internal coordinates .... (2022 redundants) done
Calculating the B-matrix                .... done
Calculating the G,G- and P matrices     .... done
Transforming gradient to internals      .... done
Projecting the internal gradient        .... done
Number of atoms                         ....  12
Number of internal coordinates          .... 117
Current Energy                          ....  -731.964209493 Eh
Current gradient norm                   ....     0.053865310 Eh/bohr
Maximum allowed component of the step   ....  0.300
Current trust radius                    ....  0.300
Evaluating the initial hessian          ....  (Almloef) done
Projecting the Hessian                  .... done
Forming the augmented Hessian           .... done
Diagonalizing the augmented Hessian     .... done
Last element of RFO vector              ....  0.983067303
Lowest eigenvalues of augmented Hessian:
 -0.004892021  0.019329393  0.022631239  0.029792242  0.065487771
Length of the computed step             ....  0.186401130
The final length of the internal step   ....  0.186401130
Converting the step to Cartesian space:
 Initial RMS(Int)=    0.0172327906
Transforming coordinates:
 Iter   0:  RMS(Cart)=    0.0236083809 RMS(Int)=    0.0172421054
done
Storing new coordinates                 .... done

                                .--------------------.
          ----------------------|Geometry convergence|-------------------------
          Item                value                   Tolerance       Converged
          ---------------------------------------------------------------------
          RMS gradient        0.0028168190            0.0010000000      NO
          MAX gradient        0.0109236531            0.0050000000      NO
          RMS step            0.0172327906            0.0200000000      YES
          MAX step            0.0441875469            0.0300000000      NO
          -------------------------------------------------------------------------
          ........................................................
          Max(Bonds)      0.0134      Max(Angles)    2.53
          Max(Dihed)        2.52      Max(Improp)    0.00
          ---------------------------------------------------------------------

The optimization has not yet converged - more geometry cycles are needed


    ---------------------------------------------------------------------------
                         Redundant Internal Coordinates
                            (Angstroem and degrees)

        Definition                    Value    dE/dq     Step     New-Value
    ----------------------------------------------------------------------------
     1. B(Al  1,Al  0)                2.9515 -0.003369  0.0125    2.9640   
     2. B(H   2,Al  1)                1.7070 -0.000806  0.0029    1.7098   
     3. B(H   3,Al  1)                1.5960 -0.001252  0.0017    1.5976   
     4. B(H   4,Al  1)                1.7066 -0.000472  0.0029    1.7095   
     5. B(H   4,Al  0)                1.7046  0.000379  0.0020    1.7066   
     6. B(H   5,Al  0)                1.5961 -0.000924  0.0012    1.5974   
     7. B(H   6,Al  0)                1.7042  0.000626  0.0012    1.7055   
     8. B(H   7,Al  1)                1.5961 -0.001216  0.0016    1.5977   
     9. B(Al  8,H   6)                1.7043  0.000623  0.0014    1.7057   
    10. B(Al  8,H   2)                1.7046 -0.000162  0.0023    1.7070   
    11. B(Al  8,Al  1)                2.9546 -0.004556  0.0134    2.9680   
    12. B(Al  8,Al  0)                2.9840 -0.003009  0.0117    2.9957   
    13. B(H   9,Al  8)                1.5963 -0.000912  0.0012    1.5975   
    14. B(H  10,Al  8)                1.5968 -0.001565  0.0021    1.5989   
    15. B(H  11,Al  0)                1.5977 -0.001368  0.0018    1.5996   
    16. A(H   4,Al  0,H   6)          109.76  0.001944   -1.08    108.68   
    17. A(Al  1,Al  0,H   4)           30.11  0.000942   -0.27     29.84   
    18. A(Al  1,Al  0,Al  8)           59.70 -0.000285    0.03     59.73   
    19. A(Al  8,Al  0,H  11)          109.87  0.003529   -0.85    109.02   
    20. A(H   4,Al  0,H   5)          109.64  0.000974   -0.58    109.06   
    21. A(H   6,Al  0,H  11)          109.08  0.001956   -0.35    108.74   
    22. A(Al  1,Al  0,H   5)          138.88  0.002224   -0.85    138.03   
    23. A(Al  1,Al  0,H  11)           97.69  0.003592   -1.01     96.68   
    24. A(H   5,Al  0,H  11)          109.62 -0.007597    2.48    112.10   
    25. A(H   5,Al  0,H   6)          109.61  0.000759   -0.49    109.12   
    26. A(H   4,Al  0,Al  8)           82.90  0.000813   -0.69     82.21   
    27. A(Al  1,Al  0,H   6)           88.60  0.001031   -0.30     88.31   
    28. A(H   5,Al  0,Al  8)          131.19  0.002885   -1.15    130.03   
    29. A(H   4,Al  0,H  11)          109.12  0.001952    0.02    109.14   
    30. A(H   6,Al  0,Al  8)           28.90  0.001317   -0.33     28.58   
    31. A(H   2,Al  1,H   7)          109.17  0.003274   -0.52    108.65   
    32. A(H   3,Al  1,H   4)          109.18  0.001870   -0.59    108.60   
    33. A(Al  0,Al  1,H   3)          132.23  0.003257   -0.74    131.48   
    34. A(H   2,Al  1,H   4)          111.19  0.002698   -1.21    109.97   
    35. A(H   4,Al  1,Al  8)           83.80  0.001393   -0.76     83.03   
    36. A(H   3,Al  1,Al  8)          108.69  0.002443   -1.09    107.60   
    37. A(H   2,Al  1,H   3)          108.82  0.000206   -0.02    108.80   
    38. A(H   2,Al  1,Al  8)           29.98  0.001210   -0.30     29.67   
    39. A(Al  0,Al  1,Al  8)           60.69  0.000207   -0.03     60.66   
    40. A(H   7,Al  1,Al  8)          132.30  0.005008   -0.81    131.49   
    41. A(Al  0,Al  1,H   4)           30.07  0.001093   -0.28     29.78   
    42. A(H   4,Al  1,H   7)          108.82  0.000020    0.05    108.87   
    43. A(Al  0,Al  1,H   7)          108.87  0.003291   -1.19    107.68   
    44. A(Al  0,Al  1,H   2)           83.63  0.001431   -0.70     82.94   
    45. A(H   3,Al  1,H   7)          109.64 -0.008269    2.36    111.99   
    46. A(Al  1,H   2,Al  8)          120.00 -0.002307    0.60    120.60   
    47. A(Al  0,H   4,Al  1)          119.83 -0.002035    0.55    120.38   
    48. A(Al  0,H   6,Al  8)          122.20 -0.002635    0.65    122.85   
    49. A(Al  1,Al  8,H   2)           30.02  0.001097   -0.29     29.73   
    50. A(Al  0,Al  8,H   2)           82.65  0.001223   -0.66     81.99   
    51. A(Al  0,Al  8,Al  1)           59.60  0.000078    0.00     59.60   
    52. A(H   6,Al  8,H  10)          109.11  0.002510   -0.40    108.71   
    53. A(H   2,Al  8,H  10)          109.11  0.001595   -0.04    109.07   
    54. A(Al  1,Al  8,H  10)           98.13  0.003545   -0.96     97.16   
    55. A(Al  0,Al  8,H  10)          110.98  0.004285   -0.89    110.10   
    56. A(H   6,Al  8,H   9)          109.53  0.002119   -0.49    109.04   
    57. A(H   9,Al  8,H  10)          109.63 -0.010924    2.53    112.16   
    58. A(H   2,Al  8,H   9)          109.57  0.002220   -0.57    109.00   
    59. A(Al  1,Al  8,H   9)          138.61  0.004057   -0.90    137.70   
    60. A(Al  0,Al  8,H   9)          130.29  0.005042   -1.19    129.10   
    61. A(H   2,Al  8,H   6)          109.87  0.002427   -1.02    108.85   
    62. A(Al  1,Al  8,H   6)           88.50  0.001393   -0.33     88.17   
    63. A(Al  0,Al  8,H   6)           28.90  0.001318   -0.33     28.57   
    64. D(H   2,Al  1,Al  0,H   4)   -156.71 -0.001456    1.30   -155.40   
    65. D(H   3,Al  1,Al  0,H   6)     88.73  0.001775   -1.20     87.53   
    66. D(H   3,Al  1,Al  0,H   5)    -30.12 -0.002143    0.50    -29.63   
    67. D(H   3,Al  1,Al  0,Al  8)     89.25  0.001906   -1.20     88.04   
    68. D(H   2,Al  1,Al  0,Al  8)    -20.46 -0.000371   -0.37    -20.83   
    69. D(H   3,Al  1,Al  0,H   4)    -47.00  0.000821    0.47    -46.53   
    70. D(H   2,Al  1,Al  0,H   6)    -20.97 -0.000503   -0.37    -21.34   
    71. D(H   2,Al  1,Al  0,H   5)   -139.83 -0.004420    1.33   -138.50   
    72. D(H   2,Al  1,Al  0,H  11)     88.09  0.001685   -0.78     87.31   
    73. D(H   3,Al  1,Al  0,H  11)   -162.20  0.003962   -1.61   -163.81   
    74. D(Al  8,H   2,Al  1,H   7)    145.40  0.003177   -0.32    145.08   
    75. D(Al  8,H   2,Al  1,H   3)    -94.97 -0.004791    2.21    -92.75   
    76. D(Al  8,H   2,Al  1,Al  0)     37.60 -0.000761    1.16     38.76   
    77. D(Al  8,H   2,Al  1,H   4)     25.33 -0.000663    0.72     26.04   
    78. D(Al  1,H   4,Al  0,H   5)   -168.31 -0.002478    0.18   -168.13   
    79. D(Al  0,H   4,Al  1,H   7)    -95.35 -0.006758    2.52    -92.84   
    80. D(Al  0,H   4,Al  1,Al  8)     37.35 -0.000892    1.38     38.73   
    81. D(Al  0,H   4,Al  1,H   3)    145.01  0.002149   -0.02    144.99   
    82. D(Al  0,H   4,Al  1,H   2)     24.93 -0.001012    1.15     26.08   
    83. D(Al  1,H   4,Al  0,H  11)     71.62  0.005026   -2.52     69.11   
    84. D(Al  1,H   4,Al  0,Al  8)    -37.00  0.001056   -1.40    -38.39   
    85. D(Al  1,H   4,Al  0,H   6)    -47.86  0.000282   -1.46    -49.31   
    86. D(Al  8,H   6,Al  0,H   4)     22.76  0.000733    0.35     23.11   
    87. D(Al  8,H   6,Al  0,Al  1)      0.92  0.000195    0.00      0.92   
    88. D(Al  8,H   6,Al  0,H   5)    143.22  0.003623   -1.34    141.89   
    89. D(Al  8,H   6,Al  0,H  11)    -96.74 -0.004007    1.18    -95.56   
    90. D(Al  1,Al  8,Al  0,H  11)    -87.35 -0.002155    0.71    -86.64   
    91. D(Al  1,Al  8,Al  0,H   6)    178.94 -0.000229   -0.00    178.94   
    92. D(Al  1,Al  8,Al  0,H   5)    130.40  0.002706   -1.09    129.32   
    93. D(H   2,Al  8,Al  0,Al  1)     20.53  0.000298    0.38     20.92   
    94. D(Al  1,Al  8,Al  0,H   4)     20.46  0.000145    0.51     20.97   
    95. D(H   9,Al  8,H   6,Al  0)    140.99  0.006040   -1.41    139.58   
    96. D(H   2,Al  8,H   6,Al  0)     20.58  0.000462    0.24     20.82   
    97. D(Al  1,Al  8,H   6,Al  0)     -0.92 -0.000198   -0.00     -0.92   
    98. D(H  10,Al  8,H   2,Al  1)     72.51  0.005710   -2.32     70.19   
    99. D(H   9,Al  8,H   2,Al  1)   -167.45 -0.005319    0.41   -167.04   
   100. D(H   6,Al  8,H   2,Al  1)    -47.07  0.000201   -1.19    -48.26   
   101. D(H   6,Al  8,Al  1,H   2)    136.46  0.001045   -1.41    135.05   
   102. D(H   6,Al  8,Al  1,Al  0)      0.51  0.000132   -0.00      0.51   
   103. D(H   2,Al  8,Al  1,H   7)    -46.47  0.001250    0.09    -46.39   
   104. D(H   2,Al  8,Al  1,H   4)   -156.34 -0.001138    0.91   -155.44   
   105. D(H   2,Al  8,Al  1,H   3)     95.47 -0.003551    1.77     97.23   
   106. D(H   2,Al  8,Al  1,Al  0)   -135.95 -0.000914    1.40   -134.54   
   107. D(Al  0,Al  8,Al  1,H   7)     89.47  0.002164   -1.32     88.15   
   108. D(Al  0,Al  8,Al  1,H   4)    -20.40 -0.000224   -0.50    -20.90   
   109. D(Al  0,Al  8,H   2,Al  1)    -37.21  0.000802   -1.17    -38.38   
   110. D(Al  0,Al  8,Al  1,H   3)   -128.59 -0.002637    0.36   -128.22   
   111. D(Al  0,Al  8,Al  1,H   2)    135.95  0.000914   -1.40    134.54   
   112. D(H   6,Al  8,Al  0,Al  1)   -178.94  0.000229    0.00   -178.94   
   113. D(H   2,Al  8,Al  0,H  11)    -66.82 -0.001857    1.10    -65.72   
   114. D(H   2,Al  8,Al  0,H   6)   -160.53  0.000069    0.38   -160.14   
   115. D(H   2,Al  8,Al  0,H   5)    150.94  0.003004   -0.70    150.24   
   116. D(H  10,Al  8,H   6,Al  0)    -99.00 -0.004490    1.14    -97.86   
   117. D(H   2,Al  8,Al  0,H   4)     41.00  0.000443    0.90     41.89   
    ----------------------------------------------------------------------------

Geometry step timings:
Preparation and reading OPT file:      0.000 s ( 0.270 %)
Internal coordinates            :      0.000 s ( 0.411 %)
B/P matrices and projection     :      0.002 s (12.874 %)
Hessian update/contruction      :      0.001 s ( 6.680 %)
Making the step                 :      0.009 s (60.555 %)
Converting the step to Cartesian:      0.001 s ( 4.051 %)
Storing new data                :      0.000 s ( 0.775 %)
Checking convergence            :      0.000 s ( 0.748 %)
Final printing                  :      0.002 s (13.616 %)
Total time                      :      0.015 s

Time for energy+gradient        :      7.969 s
Time for complete geometry iter :      8.762 s

         *************************************************************
         *                GEOMETRY OPTIMIZATION CYCLE   2            *
         *************************************************************
---------------------------------
CARTESIAN COORDINATES (ANGSTROEM)
---------------------------------
  Al    -0.284771    1.469544    2.548781
  Al     0.000226    0.000182   -0.009546
  H      0.845885   -1.117330    0.970079
  H     -1.063567   -0.795646   -0.896929
  H     -0.838571    1.119868    0.972865
  H     -1.412336    2.290647    3.327233
  H      0.000223    0.000072    3.366063
  H      1.056398    0.792645   -0.909042
  Al     0.308167   -1.466864    2.552020
  H      1.456416   -2.261759    3.327694
  H     -1.052574   -2.302202    2.468259
  H      1.091443    2.279153    2.452883

----------------------------
CARTESIAN COORDINATES (A.U.)
----------------------------
  NO LB      ZA    FRAG     MASS         X           Y           Z
   0 Al   13.0000    0    26.982   -0.538139    2.777035    4.816497
   1 Al   13.0000    0    26.982    0.000428    0.000344   -0.018039
   2 H     1.0000    0     1.008    1.598491   -2.111448    1.833184
   3 H     1.0000    0     1.008   -2.009850   -1.503553   -1.694950
   4 H     1.0000    0     1.008   -1.584669    2.116244    1.838448
   5 H     1.0000    0     1.008   -2.668928    4.328695    6.287560
   6 H     1.0000    0     1.008    0.000422    0.000136    6.360937
   7 H     1.0000    0     1.008    1.996303    1.497881   -1.717841
   8 Al   13.0000    0    26.982    0.582351   -2.771970    4.822619
   9 H     1.0000    0     1.008    2.752227   -4.274105    6.288431
  10 H     1.0000    0     1.008   -1.989077   -4.350531    4.664333
  11 H     1.0000    0     1.008    2.062528    4.306975    4.635277

--------------------------------
INTERNAL COORDINATES (ANGSTROEM)
--------------------------------
 Al     0   0   0     0.000000000000     0.00000000     0.00000000
 Al     1   0   0     2.963997591914     0.00000000     0.00000000
 H      2   1   0     1.709865090154    82.93709257     0.00000000
 H      2   1   3     1.597637598759   131.47785194   108.87531322
 H      1   2   3     1.706598443752    29.84073134   204.60496780
 H      1   2   3     1.597373257795   138.01601225   221.49054343
 H      1   2   3     1.705437870843    88.30485746   338.66285114
 H      2   1   3     1.597682289359   107.67511776   252.61968253
 Al     7   1   2     1.705695104962   122.85329308     0.91977535
 H      9   7   1     1.597499293040   109.02450378   139.58998466
 H      9   7   1     1.598881807260   108.70361717   262.13536212
 H      1   2   3     1.599571368929    96.68665494    87.32200778

---------------------------
INTERNAL COORDINATES (A.U.)
---------------------------
 Al     0   0   0     0.000000000000     0.00000000     0.00000000
 Al     1   0   0     5.601143710319     0.00000000     0.00000000
 H      2   1   0     3.231176746344    82.93709257     0.00000000
 H      2   1   3     3.019097522910   131.47785194   108.87531322
 H      1   2   3     3.225003679267    29.84073134   204.60496780
 H      1   2   3     3.018597990881   138.01601225   221.49054343
 H      1   2   3     3.222810514311    88.30485746   338.66285114
 H      2   1   3     3.019181975905   107.67511776   252.61968253
 Al     7   1   2     3.223296616349   122.85329308     0.91977535
 H      9   7   1     3.018836162978   109.02450378   139.58998466
 H      9   7   1     3.021448736231   108.70361717   262.13536212
 H      1   2   3     3.022751818937    96.68665494    87.32200778



           ************************************************************
           *        Program running with 24 parallel MPI-processes    *
           *              working on a common directory               *
           ************************************************************
------------------------------------------------------------------------------
                   ___                                                        
                  /   \      - P O W E R E D   B Y -                         
                 /     \                                                     
                 |  |  |   _    _      __       _____    __    __             
                 |  |  |  | |  | |    /  \     |  _  \  |  |  /  |          
                  \  \/   | |  | |   /    \    | | | |  |  | /  /          
                 / \  \   | |__| |  /  /\  \   | |_| |  |  |/  /          
                |  |  |   |  __  | /  /__\  \  |    /   |      \           
                |  |  |   | |  | | |   __   |  |    \   |  |\   \          
                \     /   | |  | | |  |  |  |  | |\  \  |  | \   \       
                 \___/    |_|  |_| |__|  |__|  |_| \__\ |__|  \__/        
                                                                              
                      - O R C A' S   B I G   F R I E N D -                    
                                      &                                       
                       - I N T E G R A L  F E E D E R -                       
                                                                              
 v1 FN, 2020, v2 2021, v3 2022-2024                                           
------------------------------------------------------------------------------


----------------------
SHARK INTEGRAL PACKAGE
----------------------

Number of atoms                             ...     12
Number of basis functions                   ...     72
Number of shells                            ...     42
Maximum angular momentum                    ...      2
Integral batch strategy                     ... SHARK/LIBINT Hybrid
RI-J (if used) integral strategy            ... SPLIT-RIJ (Revised 2003 algorithm where possible)
Printlevel                                  ...      1
Contraction scheme used                     ... SEGMENTED contraction
Prescreening option                         ... SCHWARTZ
   Thresh                                   ... 1.000e-10
   Tcut                                     ... 1.000e-11
   Tpresel                                  ... 1.000e-11 
Coulomb Range Separation                    ... NOT USED
Exchange Range Separation                   ... NOT USED
Multipole approximations                    ... NOT USED
Finite Nucleus Model                        ... NOT USED
CABS basis                                  ... NOT available
Auxiliary Coulomb fitting basis             ... AVAILABLE
   # of basis functions in Aux-J            ...    252
   # of shells in Aux-J                     ...     96
   Maximum angular momentum in Aux-J        ...      4
Auxiliary J/K fitting basis                 ... NOT available
Auxiliary Correlation fitting basis         ... NOT available
Auxiliary 'external' fitting basis          ... NOT available

Checking pre-screening integrals            ... done (  0.0 sec) Dimension = 42
   => SHARK Basis and OBASIS are compatible. Storing Pre-screening
Shell pair information
Shell pair cut-off parameter TPreSel        ...   1.0e-11
Total number of shell pairs                 ...       903
Shell pairs after pre-screening             ...       882
Total number of primitive shell pairs       ...      4191
Primitive shell pairs kept                  ...      2977
          la=0 lb=0:    450 shell pairs
          la=1 lb=0:    264 shell pairs
          la=1 lb=1:     45 shell pairs
          la=2 lb=0:     90 shell pairs
          la=2 lb=1:     27 shell pairs
          la=2 lb=2:      6 shell pairs

Checking whether 4 symmetric matrices of dimension 72 fit in memory
:Max Core in MB      =   4096.00
 MB in use           =      4.50
 MB left             =   4091.50
 MB needed           =      0.08
 Data fit in memory  = YES
Calculating RI/J V-Matrix + Cholesky decomp.... done (  0.0 sec)
Calculating Nuclear repulsion               ... done (  0.0 sec) ENN=    172.948590001390 Eh

Diagonalization of the overlap matrix:
Smallest eigenvalue                        ... 6.666e-03
Time for diagonalization                   ...    0.002 sec
Threshold for overlap eigenvalues          ... 1.000e-07
Number of eigenvalues below threshold      ... 0
Time for construction of square roots      ...    0.001 sec
Total time needed                          ...    0.004 sec

-------------------
DFT GRID GENERATION
-------------------

General Integration Accuracy     IntAcc      ... 4.388
Radial Grid Type                 RadialGrid  ... OptM3 with GC (2021)
Angular Grid (max. ang.)         AngularGrid ... 4 (Lebedev-302)
Angular grid pruning method      GridPruning ... 4 (adaptive)
Weight generation scheme         WeightScheme... mBecke (2022)
Basis function cutoff            BFCut       ... 1.0000e-10
Integration weight cutoff        WCut        ... 1.0000e-14
Partially contracted basis set               ... off
Rotationally invariant grid construction     ... off
Angular grids for H and He will be reduced by one unit

Total number of grid points                  ...    51169
Total number of batches                      ...      806
Average number of points per batch           ...       63
Average number of grid points per atom       ...     4264
Grids setup in   0.7 sec
Initializing property integral containers    ... done (  0.0 sec)

SHARK setup successfully completed in   0.8 seconds

Maximum memory used throughout the entire STARTUP-calculation: 13.3 MB


           ************************************************************
           *        Program running with 24 parallel MPI-processes    *
           *              working on a common directory               *
           ************************************************************
Occupation numbers will be reassigned to an Aufbau configuration
             **** ENERGY FILE WAS UPDATED (run.en.tmp) ****
Finished Guess after   0.6 sec
Maximum memory used throughout the entire GUESS-calculation: 6.7 MB


           ************************************************************
           *        Program running with 24 parallel MPI-processes    *
           *              working on a common directory               *
           ************************************************************
----------------------------------------D-I-I-S--------------------------------------------
Iteration    Energy (Eh)           Delta-E    RMSDP     MaxDP     DIISErr   Damp  Time(sec)
-------------------------------------------------------------------------------------------
               ***  Starting incremental Fock matrix formation  ***
                              *** Initializing SOSCF ***
---------------------------------------S-O-S-C-F--------------------------------------
Iteration    Energy (Eh)           Delta-E    RMSDP     MaxDP     MaxGrad    Time(sec)
--------------------------------------------------------------------------------------
    1    -731.9598000830656019     0.00e+00  1.91e-03  2.05e-03  4.54e-04     0.1
               *** Restarting incremental Fock matrix formation ***
    2    -731.9598740378769435    -7.40e-05  8.68e-04  1.04e-03  3.68e-04     0.1
    3    -731.9598806344117747    -6.60e-06  9.89e-05  1.95e-04  3.70e-05     0.1
    4    -731.9598806844202272    -5.00e-08  4.30e-05  1.16e-04  2.08e-05     0.1
                 **** Energy Check signals convergence ****

               *****************************************************
[...]
      3      -0.005103   0.028468  -0.003056   0.007279  -0.000054   0.002891
      4       0.004804  -0.025431   0.002406  -0.013281   0.000002  -0.002899
      5      -0.008570  -0.000593   0.012318   0.000059   0.020847  -0.000173
      6       0.396095  -0.619188  -0.459402  -0.048834  -0.057353  -0.009238
      7      -0.077696   0.241036   0.271393   0.334835   0.334891   0.062961
      8      -0.082230   0.187815   0.196383  -0.592598  -0.588260  -0.115056
      9      -0.022764  -0.070546   0.028200   0.048809  -0.119603  -0.009059
     10       0.011640   0.052387  -0.039719  -0.040941  -0.072190  -0.009764
     11       0.005395   0.064168   0.012367  -0.002699  -0.035860  -0.012284
     12      -0.179653  -0.616284   0.600087  -0.041540   0.050968  -0.009074
     13      -0.001272   0.171825  -0.307576   0.329837  -0.336762   0.067494
     14      -0.017679  -0.141513   0.220552   0.586635  -0.595377   0.125191
     15      -0.020835  -0.062247   0.027080  -0.053002   0.077325  -0.168214
     16       0.063573  -0.004547   0.008322   0.024553  -0.020088   0.044869
     17      -0.100085  -0.100994   0.032239  -0.029669  -0.006914   0.113202
     18       0.010393   0.009683   0.003474   0.028252  -0.000539  -0.145697
     19      -0.004218  -0.004491  -0.001865  -0.238177   0.007916   0.870099
     20      -0.867271  -0.198507  -0.395225   0.001210   0.010094  -0.006760
     21       0.048230  -0.060012  -0.016792   0.050862   0.118291  -0.011247
     22      -0.033885   0.051449   0.032729  -0.038764   0.071192  -0.010813
     23       0.026423  -0.053869   0.026414   0.001923  -0.033658   0.013003
     24      -0.011027   0.012406   0.006474  -0.002645  -0.003036   0.000842
     25       0.017768   0.005842   0.007003  -0.001680  -0.005849  -0.020439
     26       0.030038  -0.013130  -0.004507   0.011528   0.012171  -0.000152
     27       0.043528  -0.052990  -0.013993  -0.055425  -0.081440  -0.175926
     28      -0.054005  -0.023659  -0.002712   0.024365   0.018505   0.039466
     29      -0.130427   0.071215   0.017728   0.030603  -0.007761  -0.113402
     30       0.010123   0.000929  -0.006367   0.012673   0.070502   0.209884
     31      -0.009080   0.047053   0.035069   0.024339   0.030795   0.060654
     32      -0.019109  -0.057440  -0.050597   0.039876   0.022298   0.005990
     33      -0.009671   0.001912   0.004276   0.012112  -0.068783   0.206824
     34      -0.010795   0.036053  -0.045023   0.023373  -0.029611   0.057395
     35      -0.033130   0.039598  -0.062133  -0.039225   0.023608  -0.010858
                 30         31         32         33         34         35    
      0       0.009517  -0.000800  -0.010468   0.033084   0.017402  -0.019131
      1       0.013418   0.000499  -0.003979  -0.003780  -0.001836  -0.000064
      2       0.001449   0.003164  -0.002708  -0.013322  -0.006227   0.007270
      3      -0.000329  -0.000698   0.002735  -0.022773   0.020091  -0.023663
      4      -0.000453  -0.000494   0.005994  -0.014565   0.013252  -0.017069
      5      -0.004314  -0.017662  -0.000047   0.000250   0.000196   0.000068
      6       0.004388  -0.010801   0.010346  -0.003210  -0.007413  -0.009783
      7      -0.046382   0.071855  -0.060417  -0.014989   0.026616   0.007744
      8       0.082635  -0.130917   0.097695   0.019925  -0.044250  -0.018162
      9       0.043869   0.521306  -0.067183   0.302405  -0.246637   0.317587
     10       0.029527   0.364910  -0.045505   0.213211  -0.172545   0.220949
     11       0.024035   0.302269  -0.039361   0.181224  -0.148246   0.184998
     12      -0.004451   0.009245   0.008354   0.006579   0.007983  -0.006875
     13       0.052271  -0.072664  -0.052272  -0.029850   0.000967   0.004151
     14       0.092404  -0.132887  -0.083790  -0.048402  -0.004147   0.011167
     15       0.301307   0.004393  -0.212476  -0.580920  -0.255235   0.281193
     16      -0.141373  -0.001455   0.107112   0.281941   0.122340  -0.135434
     17      -0.169844   0.000203   0.113335   0.329876   0.145496  -0.157020
     18      -0.002929   0.000791   0.059841   0.019043  -0.009046  -0.018626
     19       0.019201  -0.004400  -0.381501  -0.073565   0.033513   0.064317
     20       0.001627  -0.002777   0.002725  -0.001873  -0.003679  -0.000927
     21      -0.031353  -0.503224  -0.062534   0.301794  -0.290613   0.328783
     22      -0.020829  -0.351590  -0.042050   0.211243  -0.204029   0.228126
     23       0.015636   0.278894   0.035002  -0.174535   0.164899  -0.183488
     24      -0.007588   0.000734  -0.010507  -0.000278  -0.031949  -0.028637
     25      -0.012473  -0.000607  -0.005686   0.000327   0.002760   0.000116
     26       0.001496   0.003256   0.003372   0.000510  -0.011644  -0.010211
     27      -0.282690  -0.012682  -0.269549  -0.035020   0.550453   0.439894
     28       0.117074   0.005024   0.119801   0.016249  -0.236474  -0.187894
     29      -0.151865  -0.003931  -0.137868  -0.017739   0.297329   0.234461
     30       0.509351  -0.029955   0.539876   0.039550   0.317905   0.340388
     31       0.223878  -0.011599   0.243257   0.017981   0.144192   0.151221
     32       0.059704  -0.003613   0.069693   0.006804   0.034765   0.038249
     33      -0.580354   0.041378   0.481565  -0.318764  -0.215784   0.239516
     34      -0.246523   0.016047   0.209828  -0.139901  -0.094064   0.102338
     35       0.082317  -0.006321  -0.073933   0.040992   0.030948  -0.032380


-----------
IR SPECTRUM
-----------

 Mode   freq       eps      Int      T**2         TX        TY        TZ
       cm**-1   L/(mol*cm) km/mol    a.u.
----------------------------------------------------------------------------
  7:    117.19   0.000229    1.16  0.000611  (-0.003049 -0.001476 -0.024480)
  8:    135.54   0.000084    0.43  0.000194  ( 0.013233  0.001327 -0.004122)
  9:    218.78   0.000366    1.85  0.000522  (-0.000003  0.000188 -0.022838)
 10:    277.62   0.001340    6.77  0.001506  ( 0.031690 -0.022409 -0.000028)
 11:    311.87   0.000095    0.48  0.000095  (-0.004297  0.001927  0.008543)
 12:    422.57   0.000600    3.03  0.000443  (-0.016794  0.012688  0.000663)
 13:    434.57   0.000125    0.63  0.000090  ( 0.001320 -0.001097  0.009321)
 14:    452.39   0.003017   15.25  0.002081  ( 0.000114 -0.000822  0.045613)
 15:    494.35   0.000015    0.07  0.000009  (-0.002658 -0.000135  0.001474)
 16:    527.44   0.015740   79.55  0.009313  (-0.069165  0.067248 -0.002634)
 17:    577.46   0.027838  140.68  0.015044  (-0.003278  0.004479  0.122529)
 18:    661.83   0.108803  549.85  0.051302  ( 0.009301  0.207340 -0.090696)
 19:    664.11   0.090071  455.18  0.042324  ( 0.006852  0.100686  0.179275)
 20:    700.48   0.000356    1.80  0.000158  (-0.002403 -0.010361  0.006733)
 21:    743.03   0.032001  161.72  0.013440  (-0.064892  0.096036 -0.002471)
 22:    755.74   0.036922  186.59  0.015246  (-0.062167 -0.106222 -0.009917)
 23:    761.57   0.031598  159.68  0.012948  (-0.002835 -0.009315  0.113371)
 24:   1034.12   0.036282  183.35  0.010949  (-0.018368  0.011187  0.102402)
 25:   1052.22   0.042379  214.16  0.012569  ( 0.097832 -0.052529  0.015431)
 26:   1098.29   0.000579    2.93  0.000165  (-0.011424  0.004888 -0.003182)
 27:   1750.00   0.024924  125.96  0.004445  ( 0.009108 -0.066023  0.001587)
 28:   1786.52   0.199888  1010.15  0.034916  ( 0.001279 -0.001484  0.186847)
 29:   1842.59   0.179627  907.76  0.030422  ( 0.021154 -0.173131 -0.000321)
 30:   1912.99   0.000248    1.26  0.000041  ( 0.002444 -0.000755 -0.005830)
 31:   1916.68   0.001236    6.25  0.000201  (-0.001436 -0.000878 -0.014088)
 32:   1920.19   0.007800   39.42  0.001268  (-0.030125  0.018967  0.000564)
 33:   1934.03   0.006155   31.11  0.000993  ( 0.013649 -0.021876 -0.018121)
 34:   1935.82   0.006560   33.15  0.001058  ( 0.009103  0.018679 -0.025015)
 35:   1941.38   0.071930  363.51  0.011562  (-0.103438 -0.029119 -0.003877)

* The epsilon (eps) is given for a Dirac delta lineshape.
** The dipole moment derivative (T) already includes vibrational overlap.

The first frequency considered to be a vibration is 7
The total number of vibrations considered is 29


--------------------------
THERMOCHEMISTRY AT 298.15K
--------------------------

Temperature         ...   298.15 K
Pressure            ...     1.00 atm
Total Mass          ...    90.02 AMU
Quasi RRHO          ...     True
Cut-Off Frequency   ...     1.00 cm^-1

Throughout the following assumptions are being made:
  (1) The electronic state is orbitally nondegenerate
  (2) There are no thermally accessible electronically excited states
  (3) Hindered rotations indicated by low frequency modes are not
      treated as such but are treated as vibrations and this may
      cause some error
  (4) All equations used are the standard statistical mechanics
      equations for an ideal gas
  (5) All vibrations are strictly harmonic

freq.     117.19  E(vib)   ...       0.44 
freq.     135.54  E(vib)   ...       0.42 
freq.     218.78  E(vib)   ...       0.33 
freq.     277.62  E(vib)   ...       0.28 
freq.     311.87  E(vib)   ...       0.25 
freq.     422.57  E(vib)   ...       0.18 
freq.     434.57  E(vib)   ...       0.17 
freq.     452.39  E(vib)   ...       0.16 
freq.     494.35  E(vib)   ...       0.14 
freq.     527.44  E(vib)   ...       0.13 
freq.     577.46  E(vib)   ...       0.11 
freq.     661.83  E(vib)   ...       0.08 
freq.     664.11  E(vib)   ...       0.08 
freq.     700.48  E(vib)   ...       0.07 
freq.     743.03  E(vib)   ...       0.06 
freq.     755.74  E(vib)   ...       0.06 
freq.     761.57  E(vib)   ...       0.06 
freq.    1034.12  E(vib)   ...       0.02 
freq.    1052.22  E(vib)   ...       0.02 
freq.    1098.29  E(vib)   ...       0.02 
freq.    1750.00  E(vib)   ...       0.00 
freq.    1786.52  E(vib)   ...       0.00 
freq.    1842.59  E(vib)   ...       0.00 
freq.    1912.99  E(vib)   ...       0.00 
freq.    1916.68  E(vib)   ...       0.00 
freq.    1920.19  E(vib)   ...       0.00 
freq.    1934.03  E(vib)   ...       0.00 
freq.    1935.82  E(vib)   ...       0.00 
freq.    1941.38  E(vib)   ...       0.00 

------------
INNER ENERGY
------------

The inner energy is: U= E(el) + E(ZPE) + E(vib) + E(rot) + E(trans)
    E(el)   - is the total energy from the electronic structure calculation
              = E(kin-el) + E(nuc-el) + E(el-el) + E(nuc-nuc)
    E(ZPE)  - the the zero temperature vibrational energy from the frequency calculation
    E(vib)  - the the finite temperature correction to E(ZPE) due to population
              of excited vibrational states
    E(rot)  - is the rotational thermal energy
    E(trans)- is the translational thermal energy

Summary of contributions to the inner energy U:
Electronic energy                ...   -731.98470266 Eh
Zero point energy                ...      0.06465747 Eh      40.57 kcal/mol
Thermal vibrational correction   ...      0.00493533 Eh       3.10 kcal/mol
Thermal rotational correction    ...      0.00141627 Eh       0.89 kcal/mol
Thermal translational correction ...      0.00141627 Eh       0.89 kcal/mol
-----------------------------------------------------------------------
Total thermal energy                   -731.91227732 Eh


Summary of corrections to the electronic energy:
(perhaps to be used in another calculation)
Total thermal correction                  0.00776787 Eh       4.87 kcal/mol
Non-thermal (ZPE) correction              0.06465747 Eh      40.57 kcal/mol
-----------------------------------------------------------------------
Total correction                          0.07242534 Eh      45.45 kcal/mol


--------
ENTHALPY
--------

The enthalpy is H = U + kB*T
                kB is Boltzmann's constant
Total thermal energy              ...   -731.91227732 Eh 
Thermal Enthalpy correction       ...      0.00094421 Eh       0.59 kcal/mol
-----------------------------------------------------------------------
Total Enthalpy                    ...   -731.91133311 Eh


Note: Only C1 symmetry has been detected, increase convergence thresholds 
      if your molecule has a higher symmetry. Symmetry factor of 1.0 is   
      used for the rotational entropy correction. 
 

Note: Rotational entropy computed according to Herzberg 
Infrared and Raman Spectra, Chapter V,1, Van Nostrand Reinhold, 1945 
Point Group:  C1, Symmetry Number:   1  
Rotational constants in cm-1:     0.104400     0.103139     0.055969 

Vibrational entropy computed according to the QRRHO of S. Grimme
Chem.Eur.J. 2012 18 9955 using a reference frequency of 100.0 cm-1


-------
ENTROPY
-------

The entropy contributions are T*S = T*(S(el)+S(vib)+S(rot)+S(trans))
     S(el)   - electronic entropy
     S(vib)  - vibrational entropy
     S(rot)  - rotational entropy
     S(trans)- translational entropy
The entropies will be listed as multiplied by the temperature to get
units of energy

Electronic entropy                ...      0.00000000 Eh      0.00 kcal/mol
Vibrational entropy               ...      0.00805237 Eh      5.05 kcal/mol
Rotational entropy                ...      0.01301096 Eh      8.16 kcal/mol
Translational entropy             ...      0.01872231 Eh     11.75 kcal/mol
-----------------------------------------------------------------------
Final entropy term                ...      0.03978563 Eh     24.97 kcal/mol

In case the symmetry of your molecule has not been determined correctly
or in case you have a reason to use a different symmetry number we print 
out the resulting rotational entropy values for sn=1,12:

 non-linear molecules -----------------------------------
|  sn= 1 | S(rot)=       0.01301096 Eh      8.16 kcal/mol|
|  sn= 2 | S(rot)=       0.01235650 Eh      7.75 kcal/mol|
|  sn= 3 | S(rot)=       0.01197367 Eh      7.51 kcal/mol|
|  sn= 4 | S(rot)=       0.01170205 Eh      7.34 kcal/mol|
|  sn= 5 | S(rot)=       0.01149136 Eh      7.21 kcal/mol|
|  sn= 6 | S(rot)=       0.01131921 Eh      7.10 kcal/mol|
|  sn= 7 | S(rot)=       0.01117367 Eh      7.01 kcal/mol|
|  sn= 8 | S(rot)=       0.01104759 Eh      6.93 kcal/mol|
|  sn= 9 | S(rot)=       0.01093638 Eh      6.86 kcal/mol|
|  sn=10 | S(rot)=       0.01083690 Eh      6.80 kcal/mol|
|  sn=11 | S(rot)=       0.01074691 Eh      6.74 kcal/mol|
|  sn=12 | S(rot)=       0.01066476 Eh      6.69 kcal/mol|
 linear molecules ---------------------------------------
|  Dinfh | S(rot)=       0.00804783 Eh      5.05 kcal/mol|
|  Cinfv | S(rot)=       0.00870229 Eh      5.46 kcal/mol|
 --------------------------------------------------------


-------------------
GIBBS FREE ENERGY
-------------------

The Gibbs free energy is G = H - T*S

Total enthalpy                    ...   -731.91133311 Eh 
Total entropy correction          ...     -0.03978563 Eh    -24.97 kcal/mol
-----------------------------------------------------------------------
Final Gibbs free energy         ...   -731.95111874 Eh

For completeness - the Gibbs free energy minus the electronic energy
G-E(el)                           ...      0.03358391 Eh     21.07 kcal/mol


Maximum memory used throughout the entire PROP-calculation: 26.7 MB

--------------------------------
SUGGESTED CITATIONS FOR THIS RUN
--------------------------------

Below you find a list of papers that are relevant to this ORCA run
We neither can nor want to force you to cite these papers, but we appreciate if you do
You receive ORCA, which is the product of decades of hard work by many enthusiastic individuals, for free
The only thing we kindly ask in return is that you cite our papers,
We deeply appreciate it, if you show your appreciation for ORCA by not just citing the generic ORCA reference.

Please note that relegating all ORCA citations to the supporting information does *not* help us.
SI sections are not indexed - citations you put there will not count into any citation statistics
But we need these citations in order to attract the funding resources that allow us to do what we are doing

Therefore, if you are a happy ORCA user, please consider citing a few of the papers listed below in the main body of your paper

In addition to the list printed below, the program has created the file run.bibtex that contains the list in bibtex format
You can import this file easily into all common literature databanks and citation aid programs


List of essential papers. We consider these as the minimum necessary citations

  1. Neese, F.
     Software update: the ORCA program system, version 6.0
     WIRES Comput. Molec. Sci. 2025 15(1), e70019
     doi.org/10.1002/wcms.7019

List of papers to cite with high priority. The work reported in these papers was absolutely
necessary for this run to complete.
Our perspective: the developers of density functionals and basis sets usually get cited in chemistry papers
Good! But without the algorithms to do something with them, the functionals or basis sets would not do anything.
Hence, in our opinion, the algorithm design and method developments papers are equally worthy of getting cited

  1. Neese, F.
     An improvement of the resolution of the identity approximation for the formation of the Coulomb matrix
     J. Comp. Chem. 2003 24(14), 1740-1747
     doi.org/10.1002/jcc.10318
  2. Grimme, S.; Antony, J.; Ehrlich, S.; Krieg, H.
     A consistent and accurate ab initio parametrization of density functional dispersion correction (DFT-D) for the 94 elements H-Pu
     J. Chem. Phys. 2010 132 , 154104
     doi.org/10.1063/1.3382344
  3. Grimme, S.; Ehrlich, S.; Goerigk, L.
     Effect of the damping function in dispersion corrected density functional theory
     J. Comput. Chem. 2011 32(7), 1456-1465
     doi.org/10.1002/jcc.21759
  4. Bykov, D.; Petrenko, T.; Izsak, R.; Kossmann, S.; Becker, U.; Valeev, E.; Neese, F.
     Efficient implementation of the analytic second derivatives of Hartree-Fock and hybrid DFT energies: a detailed analysis of different approximations
     Molec. Phys. 2015 113 , 1961-1977
     doi.org/10.1080/00268976.2015.1025114
  5. Neese, F.
     The SHARK Integral Generation and Digestion System
     J. Comp. Chem. 2022 44(3), 381
     doi.org/10.1002/jcc.26942

List of suggested additional citations. These are papers that are important in the 'surrounding' of 
of this run, or papers that preceded the highly important papers. If you like your results we are grateful for a citation.

  1. Neese, F.
     The ORCA program system
     WIRES Comput. Molec. Sci. 2012 2(1), 73-78
     doi.org/10.1002/wcms.81
  2. Neese, F.
     Software update: the ORCA program system, version 4.0
     WIRES Comput. Molec. Sci. 2018 8(1), 1-6
     doi.org/10.1002/wcms.1327
  3. Neese, F.; Wennmohs, F.; Becker, U.; Riplinger, C.
     The ORCA quantum chemistry program package
     J. Chem. Phys. 2020 152(22), 224108
     doi.org/10.1063/5.0004608
  4. Neese, F.
     Software update: The ORCA program system—Version 5.0
     WIRES Comput. Molec. Sci. 2022 12(1), e1606
     doi.org/10.1002/wcms.1606

List of optional additional citations

  1. Neese, F.
     Approximate second-order SCF convergence for spin unrestricted wavefunctions
     Chem. Phys. Lett. 2000 325(1-3), 93-98
     doi.org/10.1016/s0009-2614(00)00662-x

Timings for individual modules:

Sum of individual times          ...       52.354 sec (=   0.873 min)
Startup calculation              ...       11.775 sec (=   0.196 min)  22.5 %
SCF iterations                   ...       17.389 sec (=   0.290 min)  33.2 %
Property integrals               ...        8.156 sec (=   0.136 min)  15.6 %
SCF Response                     ...        1.902 sec (=   0.032 min)   3.6 %
Property calculations            ...        4.103 sec (=   0.068 min)   7.8 %
SCF Gradient evaluation          ...        8.927 sec (=   0.149 min)  17.1 %
Geometry relaxation              ...        0.103 sec (=   0.002 min)   0.2 %
                             ****ORCA TERMINATED NORMALLY****
TOTAL RUN TIME: 0 days 0 hours 0 minutes 58 seconds 865 msec
