
                                 *****************
                                 * O   R   C   A *
                                 *****************

                                            #,                                       
                                            ###                                      
                                            ####                                     
                                            #####                                    
                                            ######                                   
                                           ########,                                 
                                     ,,################,,,,,                         
                               ,,#################################,,                 
                          ,,##########################################,,             
                       ,#########################################, ''#####,          
                    ,#############################################,,   '####,        
                  ,##################################################,,,,####,       
                ,###########''''           ''''###############################       
              ,#####''   ,,,,##########,,,,          '''####'''          '####       
            ,##' ,,,,###########################,,,                        '##       
           ' ,,###''''                  '''############,,,                           
         ,,##''                                '''############,,,,        ,,,,,,###''
      ,#''                                            '''#######################'''  
     '                                                          ''''####''''         
             ,#######,   #######,   ,#######,      ##                                
            ,#'     '#,  ##    ##  ,#'     '#,    #''#        ,####,    ,#,          
            ##       ##  ##   ,#'  ##            #'  '#       #'       ,# #          
            ##       ##  #######   ##           ,######,      #####,      #          
            '#,     ,#'  ##    ##  '#,     ,#' ,#      #,     #,   #      #          
             '#######'   ##     ##  '#######'  #'      '#     '####' #    #          



                #########################################################
                #                        -***-                          #
                #          Department of theory and spectroscopy        #
                #                                                       #
                #                      Frank Neese                      #
                #                                                       #
                #     Directorship, Architecture, Infrastructure        #
                #                    SHARK, DRIVERS                     #
                #        Core code/Algorithms in most modules           #
                #                                                       #
                #        Max Planck Institute fuer Kohlenforschung      #
                #                Kaiser Wilhelm Platz 1                 #
                #                 D-45470 Muelheim/Ruhr                 #
                #                      Germany                          #
                #                                                       #
                #                  All rights reserved                  #
                #                        -***-                          #
                #########################################################


                         Program Version 6.1.0  -  RELEASE   -
                                (GIT: $679e74b$)
                          ($2025-06-10 18:02:51 +0200$)


 With contributions from (in alphabetic order):
[Max-Planck-Institut fuer Kohlenforschung]                               
  Daniel Aravena         : Magnetic Suceptibility                        
  Michael Atanasov       : Ab Initio Ligand Field Theory (pilot matlab implementation)
  Alexander A. Auer      : GIAO ZORA, VPT2 properties, NMR spectrum      
  Ute Becker             : All parallelization in ORCA, NUMFREQ, NUMCALC 
  Giovanni Bistoni       : ED, misc. LED, open-shell LED, HFLD           
  Dmytro Bykov           : pre 5.0 version of the SCF Hessian            
  Marcos Casanova-Páez   : Triplet and SCS-CIS(D). UHF-(DLPNO)-IP/EA/STEOM-CCSD. UHF-CVS-IP/STEOM-CCSD   
  Vijay G. Chilkuri      : MRCI spin determinant printing, contributions to CSF-ICE 
  Pauline Colinet        : FMM embedding                                 
  Dipayan Datta          : RHF DLPNO-CCSD density                        
  Achintya Kumar Dutta   : EOM-CC, STEOM-CC                              
  Nicolas Foglia         : Exact transition moments, OPA infrastructure, MCD improvements    
  Dmitry Ganyushin       : Spin-Orbit,Spin-Spin,Magnetic field MRCI      
  Miquel Garcia-Rates    : C-PCM and meta-GGA Hessian, CCSD/C-PCM, Gaussian charge scheme 
  Tiago L. C. Gouveia    : GS-ROHF, GS-ROCIS                             
  Yang Guo               : DLPNO-NEVPT2, F12-NEVPT2, CIM, IAO-localization        
  Andreas Hansen         : Spin unrestricted coupled pair/coupled cluster methods 
  Ingolf Harden          : AUTO-CI MPn and infrastructure                
  Benjamin Helmich-Paris : MC-RPA, TRAH-(SCF,CASSCF), AVAS, COSX integrals, SCF dyn. polar., MC-PDFT, srDFT 
  Lee Huntington         : MR-EOM, pCC                                   
  Robert Izsak           : Overlap fitted RIJCOSX, COSX-SCS-MP3, EOM     
  Riya Kayal             : Wick's Theorem for AUTO-CI, AUTO-CI UHF-CCSDT 
  Emily Kempfer          : AUTO-CI RHF CISDT and CCSDT, approximate NEVPT4
  Christian Kollmar      : KDIIS, OOCD, Brueckner-CCSD(T), CCSD density, CASPT2, CASPT2-K, improved NEVPT2 
  Axel Koslowski         : Symmetry handling                             
  Simone Kossmann        : meta-GGA functionals, TD-DFT gradient, OOMP2, (MP2 Hessian; deprecated post 5.0) 
  Lucas Lang             : DCDCAS, Hyperfine gauge corrections, ICE-SOC+SSC
  Marvin Lechner         : AUTO-CI (C++ implementation), FIC-MRCC        
  Spencer Leger          : CASSCF response                               
  Dagmar Lenk            : GEPOL surface, SMD, ORCA-2-JSON               
  Dimitrios Liakos       : Extrapolation schemes; Compound Job, Property file
  Dimitrios Manganas     : Further ROCIS development; embedding schemes. LFT, Crystal Embedding 
  Dimitrios Pantazis     : SARC Basis sets                               
  Anastasios Papadopoulos: AUTO-CI, single reference methods and gradients 
  Taras Petrenko         : pre 6.0 DFT Hessian and TD-DFT gradient,  ECA, NRVS 
  Petra Pikulova         : Analytic Raman intensities                    
  Peter Pinski           : DLPNO-MP2, DLPNO-MP2 Gradient                 
  Shashank Vittal Rao    : ES-AILFT, MagRelax                            
  Christoph Reimann      : Effective Core Potentials                     
  Marius Retegan         : Local ZFS, SOC                                
  Christoph Riplinger    : Optimizer, TS searches, QM/MM, DLPNO-CCSD(T), (RO)-DLPNO pert. Triples 
  Michael Roemelt        : Original ROCIS implementation, recursive CI coupling coefficients
  Masaaki Saitow         : Open-shell DLPNO-CCSD energy and density      
  Barbara Sandhoefer     : DKH picture change effects                    
  Yorick L. A. Schmerwitz: GMF and freeze-and-release deltaSCF, NEB S-IDPP initial path                    
  Kantharuban Sivalingam : CASSCF convergence/infrastructure, NEVPT2, NEVPT3, NEVPT4(SD), FIC-MRCI and CEPA variants
  Bernardo de Souza      : ESD, SOC TD-DFT                               
  Georgi L. Stoychev     : AutoAux, RI-MP2 NMR, DLPNO-MP2 response, X2C  
  Van Anh Tran           : RI-MP2 g-tensors                              
  Willem Van den Heuvel  : Paramagnetic NMR                              
  Zikuan Wang            : NOTCH, Electric field optimization            
  Frank Wennmohs         : Technical directorship and infrastructure     
  Hang Xu                : AUTO-CI-Response properties                   
                                                                         
[FACCTs GmbH]                                                            
  Markus Bursch, Nicolas Foglia, Miquel Garcia-Rates, Ingolf Harden, Hagen Neugebauer, Anastasios Papadopoulos, 
  Christoph Riplinger, Bernardo de Souza, Georgi L. Stoychev                                                    
                                                                 
  APM, various basis sets, CI-OPT, improved COSX, DLPNO-Multilevel,           
  DOCKER, DRACO, updates on ESD, Fragmentator, GOAT, IRC, LR-CPCM, L-BFGS, MBIS, meta-GGA TD-DFT gradient, ML-optimized integration grids, 
  MM, NACMEs, nearIR, NEB, NEB-TS, NL-DFT gradient (VV10), 2- and 3-layer-ONIOM, interface openCOSMO-RS, QMMM,   
  Crystal-QMMM, RESP, rigid body optimization, SF, symmetry and pop. for TD-DFT, various functionals, SOLVATOR                                   
                                                                         
[Other institutions]                                                     
  V. Asgeirsson          : NEB                                           
  Christoph Bannwarth    : sTDA-DFT, sTD-DFT, PBEh-3c, B97-3c, D3        
  Giovanni Bistoni       : ETS/NOCV, ADLD/ADEX, COVALED                  
  Martin Brehm           : Molecular dynamics                            
  Ronald Cardenas        : ETS/NOCV                                      
  Martina Colucci        : COVALED                                       
  Sebastian Ehlert       : rSCAN, r2SCAN, r2SCAN-3c, D4, dhf basis sets  
  Marvin Friede          : D4 for Fr, Ra, Ac-Lr                          
  Lars Goerigk           : TD-DFT with DH, B97 family of functionals     
  Stefan Grimme          : VdW corrections, initial TS optimization, DFT functionals, gCP, sTDA/sTD-DF 
  Waldemar Hujo          : DFT-NL                                        
  H. Jonsson             : NEB                                           
  Holger Kruse           : gCP                                           
  Marcel Mueller         : wB97X-3c, vDZP basis set                      
  Hagen Neugebauer       : wr2SCAN, Native XTB                           
  Gianluca Regni         : ADLD/ADEX                                     
  Tobias Risthaus        : pre 6.0 range-separated hybrid DFT and stability analysis
  Lukas Wittmann         : regularized MP2, r2SCAN double-hybrids, wr2SCAN        
                                                                         
We gratefully acknowledge several colleagues who have allowed us to      
interface, adapt or use parts of their codes:                            
  Ed Valeev, F. Pavosevic, A. Kumar             : LibInt (2-el integral package), F12 methods 
  Garnet Chan, S. Sharma, J. Yang, R. Olivares  : DMRG                   
  Ulf Ekstrom                                   : XCFun DFT Library      
  Mihaly Kallay                                 : mrcc  (arbitrary order and MRCC methods)
  Frank Weinhold                                : gennbo (NPA and NBO analysis)           
  Simon Mueller                                 : openCOSMO-RS                            
  Christopher J. Cramer and Donald G. Truhlar   : smd solvation model                     
  S Lehtola, MJT Oliveira, MAL Marques          : LibXC Library                           
  Liviu Ungur et al                             : ANISO software                          


 Your calculation uses the libint2 library for the computation of 2-el integrals
 For citations please refer to: http://libint.valeyev.net

 Your ORCA version has been built with support for libXC version: 7.0.0
 For citations please refer to: https://libxc.gitlab.io

 This ORCA versions uses:
   CBLAS   interface :  Fast vector & matrix operations
   LAPACKE interface :  Fast linear algebra routines
   SCALAPACK package :  Parallel linear algebra routines
   Shared memory     :  Shared parallel matrices
   BLAS/LAPACK       :  OpenBLAS 0.3.29  USE64BITINT DYNAMIC_ARCH NO_AFFINITY Bulldozer SINGLE_THREADED
        Core in use  :  Bulldozer
   Copyright (c) 2011-2014, The OpenBLAS Project


  ***********************************
  * Starting time: Fri Aug  8 15:33:49 2025
  * Host name:     chromium03
  * Process ID:    106783
  * Working dir.:  /local/scratch/mehlhorn/61779
  ***********************************



***************************************
The coordinates will be read from file: start.xyz
***************************************


Your calculation utilizes the geometrical counterpoise correction gCP
Please cite in your paper:
H.Kruse, S. Grimme J.Chem.Phys., 136, (2012), 154101 
   

Your calculation utilizes the atom-pairwise dispersion correction
with the Becke-Johnson damping scheme (D3BJ)


Warning: RI is on but no J-basis has been assigned. Assigning Def2/J (nothing to worry about!)
================================================================================

cite the ECPs for Zr [Def2-ECP] as follows:
Ce-Yb(ecp-28): M. Dolg, H. Stoll, H.Preuss, J. Chem. Phys., 1989, 90, 1730-1734.
Y-Cd(ecp-28), Hf-Hg(ecp-46): D. Andrae,U. Haeussermann, M. Dolg, H. Stoll, H. Preuss, Theor. Chim. Acta, 1990, 77, 123-141.
In-Sb(ecp-28), Tl-Bi(ecp-46): B. Metz, H. Stoll, M. Dolg, J. Chem. Phys., 2000, 113, 2563-2569.
Te-Xe(ecp-28), Po-Rn(ecp-46): K. A. Peterson, D. Figgen, E. Goll, H. Stoll, M. Dolg, J. Chem. Phys., 2003, 119, 11113-11123.
Rb(ecp-28), Cs(ecp-46): T. Leininger, A. Nicklass, W. Kuechle, H. Stoll, M. Dolg, A. Bergner, Chem. Phys. Lett., 1996, 255, 274-280.
Sr(ecp-28), Ba(ecp-46): M. Kaupp, P. V. Schleyer, H. Stoll and H. Preuss, J. Chem. Phys., 1991, 94, 1360-1366.
La(ecp-46): M. Dolg, H. Stoll, A. Savin, H. Preuss, Theor. Chim. Acta, 1989, 75, 173-194.
Lu(ecp-28): X. Cao, M. Dolg, J. Chem. Phys., 2001, 115, 7348-7355.

ECP parameters for Zr [Def2-ECP] have been obtained from:
TURBOMOLE (7.0.2)

----- Orbital basis set information -----
Your calculation utilizes the basis: def2-SV(P)
   F. Weigend and R. Ahlrichs, Phys. Chem. Chem. Phys. 7, 3297 (2005).

----- AuxJ basis set information -----
Your calculation utilizes the auxiliary basis: def2/J
   H-Rn: F. Weigend, Phys. Chem. Chem. Phys. 8, 1057 (2006).
   Fr-Lr: K. Eichkorn, F. Weigend, O. Treutler, R. Ahlrichs; Theor. Chem. Acc. 97, 119 (1997).

================================================================================
                                        WARNINGS
                       Please study these warnings very carefully!
================================================================================


WARNING: Gradients are needed
  ===> : At least TightSCF should be used for SCF convergence

WARNING: Geometry Optimization
  ===> : Switching off AutoStart
         For restart on a previous wavefunction, please use MOREAD

================================================================================
                                       INPUT FILE
================================================================================
NAME = run.inp
|  1> # Geometry optimization for (AlH3)n cluster
|  2> 
|  3> %pal nprocs 24  end
|  4> 
|  5> %geom MaxIter 500 end
|  6> 
|  7> 
|  8> ! PBE def2-SV(P)
|  9> ! RKS	# closed shell for AlH3
| 10> ! D3    #  dispersion correction
| 11> ! gCP(DFT/SV(P))
| 12> ! Freq 	# Frequency analysis to check the stabiltity of the structures
| 13> 
| 14> ! NoPop # population analysis not necessary	
| 15> 
| 16> ! DEFGRID2
| 17> ! NormalSCF
| 18> ! SloppyOpt
| 19> 
| 20> ! SmallPrint
| 21> 
| 22> 
| 23> * xyzFile 0 1 start.xyz # only maingroup elements H and Al so there should be no net spin
| 24> 
| 25>                          ****END OF INPUT****
================================================================================

                       *****************************
                       * Geometry Optimization Run *
                       *****************************

Geometry optimization settings:
Update method            Update   .... BFGS
Choice of coordinates    CoordSys .... (2022) Redundant Internals
Initial Hessian          InHess   .... Almloef's Model
Max. no of cycles        MaxIter  .... 500

Convergence Tolerances:
Energy Change            TolE     ....  8.0000e-05 Eh
Max. Gradient            TolMAXG  ....  5.0000e-03 Eh/bohr
RMS Gradient             TolRMSG  ....  1.0000e-03 Eh/bohr
Max. Displacement        TolMAXD  ....  3.0000e-02 bohr
RMS Displacement         TolRMSD  ....  2.0000e-02 bohr
Strict Convergence                .... False

------------------------------------------------------------------------------
                        ORCA OPTIMIZATION COORDINATE SETUP
------------------------------------------------------------------------------

The optimization will be done in redundant internal coordinates (2022)
Making redundant internal coordinates   ...  (2022 redundants) done
Evaluating the initial hessian          ...  (Almloef) done
Evaluating the coordinates              ...  done
Calculating the B-matrix                .... done
Calculating the G-matrix                .... done
The number of degrees of freedom        ....  720

    -----------------------------------------------------------------
                    Redundant Internal Coordinates


    -----------------------------------------------------------------
         Definition                    Initial Value    Approx d2E/dq
    -----------------------------------------------------------------
      1. B(Zr  2,Zr  1)                  3.4090         0.038439   
      2. B(Zr  3,Zr  0)                  3.4350         0.034941   
      3. B(Zr  4,Zr  1)                  3.4359         0.034829   
      4. B(Zr  4,Zr  3)                  3.4080         0.038582   
      5. B(Zr  5,Zr  2)                  3.4353         0.034906   
      6. B(Zr  5,Zr  0)                  3.4089         0.038459   
      7. B(O   6,Zr  3)                  2.1346         0.367325   
      8. B(O   6,Zr  0)                  2.1049         0.409600   
      9. B(O   6,Zr  5)                  2.1211         0.385954   
     10. B(O   7,Zr  4)                  2.1371         0.363897   
     11. B(O   7,Zr  1)                  2.1067         0.406996   
     12. B(O   7,Zr  2)                  2.1245         0.381189   
     13. B(O   8,Zr  5)                  2.1354         0.366189   
     14. B(O   8,Zr  2)                  2.1060         0.407999   
     15. B(O   8,Zr  1)                  2.1205         0.386846   
     16. B(O   9,Zr  4)                  2.1231         0.383122   
     17. B(O   9,Zr  3)                  2.1076         0.405570   
     18. B(O   9,Zr  0)                  2.1353         0.366401   
     19. B(O  10,Zr  4)                  2.1049         0.409718   
     20. B(O  10,Zr  3)                  2.1226         0.383847   
     21. B(O  10,Zr  1)                  2.1350         0.366812   
     22. B(O  11,Zr  0)                  2.1224         0.384087   
     23. B(O  11,Zr  2)                  2.1359         0.365600   
     24. B(O  11,Zr  5)                  2.1066         0.407072   
     25. B(O  12,Zr  0)                  1.9812         0.645309   
     26. B(O  13,Zr  0)                  1.9830         0.640980   
     27. B(O  14,Zr  0)                  2.0681         0.469042   
     28. B(O  15,Zr  0)                  2.0343         0.530940   
     29. B(O  16,Zr  1)                  2.0635         0.476868   
     30. B(O  17,Zr  1)                  2.0335         0.532562   
     31. B(O  18,Zr  1)                  1.9832         0.640561   
     32. B(O  19,Zr  1)                  1.9830         0.641090   
     33. B(O  20,Zr  2)                  1.9829         0.641220   
     34. B(O  21,Zr  2)                  2.0348         0.529984   
     35. B(O  22,Zr  2)                  1.9802         0.647585   
     36. B(O  23,Zr  2)                  2.0673         0.470419   
     37. B(O  24,Zr  3)                  2.0343         0.530872   
     38. B(O  25,Zr  3)                  1.9828         0.641525   
     39. B(O  26,Zr  3)                  2.0634         0.477168   
     40. B(O  27,Zr  3)                  1.9830         0.641138   
     41. B(O  28,Zr  4)                  1.9810         0.645775   
     42. B(O  29,Zr  4)                  2.0684         0.468425   
     43. B(O  30,Zr  4)                  1.9814         0.644736   
     44. B(O  31,Zr  4)                  2.0343         0.531017   
     45. B(O  32,Zr  5)                  2.0640         0.476107   
     46. B(O  33,Zr  5)                  1.9829         0.641194   
     47. B(O  34,Zr  5)                  2.0337         0.532144   
     48. B(O  35,Zr  5)                  1.9827         0.641773   
     49. B(C  36,O  33)                  1.3017         0.773993   
     50. B(C  36,O  12)                  1.3016         0.774164   
     51. B(C  37,O  25)                  1.3005         0.777463   
     52. B(C  37,O  13)                  1.3005         0.777429   
     53. B(C  38,O  21)                  1.2977         0.785559   
     54. B(C  38,O  14)                  1.2998         0.779315   
     55. B(C  39,O  29)                  1.2997         0.779741   
     56. B(C  39,O  15)                  1.2976         0.785813   
     57. B(C  40,O  34)                  1.2974         0.786233   
     58. B(C  40,O  16)                  1.2994         0.780479   
     59. B(C  41,O  26)                  1.2998         0.779325   
     60. B(C  41,O  17)                  1.2975         0.785974   
     61. B(C  42,O  22)                  1.3016         0.774172   
     62. B(C  42,O  18)                  1.3017         0.773930   
     63. B(C  43,O  19)                  1.3004         0.777774   
     64. B(C  43,O  30)                  1.3004         0.777635   
     65. B(C  44,O  35)                  1.3005         0.777528   
     66. B(C  44,O  20)                  1.3006         0.777271   
     67. B(C  45,O  31)                  1.2976         0.785869   
     68. B(C  45,O  23)                  1.2998         0.779449   
     69. B(C  46,O  32)                  1.3001         0.778571   
     70. B(C  46,O  24)                  1.2976         0.785699   
     71. B(C  47,O  28)                  1.3017         0.774152   
     72. B(C  47,O  27)                  1.3017         0.773931   
     73. B(H  48,C  41)                  1.0870         0.364051   
     74. B(H  49,C  42)                  1.0918         0.357747   
     75. B(H  50,C  38)                  1.0870         0.364151   
     76. B(H  51,C  37)                  1.0913         0.358389   
     77. B(H  52,C  43)                  1.0913         0.358429   
     78. B(H  53,C  47)                  1.0918         0.357725   
     79. B(H  54,C  39)                  1.0869         0.364195   
     80. B(H  55,C  45)                  1.0870         0.364109   
     81. B(H  56,C  40)                  1.0868         0.364303   
     82. B(H  57,C  46)                  1.0870         0.364074   
     83. B(H  58,C  36)                  1.0918         0.357730   
     84. B(H  59,C  44)                  1.0913         0.358371   
     85. B(H  61,O  17)                  3.3064         0.010000   
     86. B(H  61,O  34)                  3.2023         0.010000   
     87. B(H  61,H  57)                  3.1645         0.010000   
     88. B(H  61,H  48)                  3.1346         0.010000   
     89. B(H  61,H  56)                  2.9080         0.010000   
     90. B(H  61,C  46)                  2.8355         0.010000   
     91. B(H  61,C  41)                  2.8155         0.010000   
     92. B(H  61,O  26)                  2.7363         0.010000   
     93. B(H  61,O  32)                  2.6492         0.010000   
     94. B(H  61,C  40)                  2.6371         0.010000   
     95. B(H  61,O  16)                  2.5738         0.010000   
     96. B(H  61,Al 60)                  1.5952         0.394410   
     97. B(H  62,H  57)                  2.7894         0.010000   
     98. B(H  62,Al 60)                  1.5963         0.392852   
     99. B(H  63,H  48)                  2.8277         0.010000   
    100. B(H  63,Al 60)                  1.5963         0.392836   
    101. A(O   9,Zr  0,O  13)           92.1458         0.495912   
    102. A(Zr  5,Zr  0,O   6)           36.3929         0.336137   
    103. A(Zr  5,Zr  0,O  15)          159.8153         0.351085   
    104. A(O  12,Zr  0,O  13)           83.1439         0.551526   
    105. A(O   6,Zr  0,O  12)           93.5947         0.506943   
    106. A(O   6,Zr  0,O   9)           66.7385         0.456689   
    107. A(O  11,Zr  0,O  12)           80.8507         0.500904   
    108. A(O  11,Zr  0,O  13)          143.2775         0.500277   
    109. A(O  11,Zr  0,O  15)          132.4149         0.483112   
    110. A(Zr  5,Zr  0,O  14)          104.7688         0.343834   
    111. A(O   6,Zr  0,O  14)          138.2041         0.477827   
    112. A(O  14,Zr  0,O  15)           75.3679         0.501346   
    113. A(O  12,Zr  0,O  15)          126.9613         0.532223   
    114. A(Zr  3,Zr  0,Zr  5)           70.1641         0.247493   
    115. A(O   9,Zr  0,O  15)           70.9800         0.478929   
    116. A(O   9,Zr  0,O  11)           91.9796         0.451376   
    117. A(Zr  5,Zr  0,O   9)           91.0043         0.329981   
    118. A(Zr  3,Zr  0,O  12)          125.5176         0.357034   
    119. A(Zr  3,Zr  0,O  14)          144.8376         0.338361   
    120. A(O   6,Zr  0,O  11)           67.1334         0.460634   
    121. A(Zr  3,Zr  0,O  15)           97.8127         0.345456   
    122. A(O   6,Zr  0,O  15)          133.9850         0.488891   
    123. A(Zr  3,Zr  0,O  13)           72.1601         0.356626   
    124. A(O   6,Zr  0,O  13)           81.2121         0.506307   
    125. A(Zr  5,Zr  0,O  11)           36.1303         0.332566   
    126. A(O   9,Zr  0,O  12)          160.2912         0.496532   
    127. A(Zr  3,Zr  0,O  11)           90.9105         0.327335   
    128. A(Zr  5,Zr  0,O  12)           72.3628         0.362917   
    129. A(Zr  3,Zr  0,O   9)           35.6749         0.324805   
    130. A(Zr  5,Zr  0,O  13)          107.3171         0.362500   
    131. A(Zr  3,Zr  0,O   6)           36.1726         0.330829   
    132. A(O  13,Zr  0,O  15)           83.0682         0.531548   
    133. A(O   9,Zr  0,O  14)          112.8259         0.468142   
    134. A(O  12,Zr  0,O  14)           82.3551         0.519961   
    135. A(O  11,Zr  0,O  14)           71.1635         0.472209   
    136. A(O  13,Zr  0,O  14)          138.6087         0.519305   
    137. A(O  16,Zr  1,O  19)          138.0149         0.520936   
    138. A(O   8,Zr  1,O  16)           71.2925         0.474270   
    139. A(O   7,Zr  1,O  18)           92.8772         0.505643   
    140. A(O  16,Zr  1,O  17)           75.9749         0.503179   
    141. A(O   7,Zr  1,O  16)          138.4541         0.478724   
    142. A(Zr  4,Zr  1,O  10)           35.5740         0.324693   
    143. A(Zr  4,Zr  1,O  16)          145.6691         0.339115   
    144. A(O  17,Zr  1,O  19)           82.8193         0.531871   
    145. A(Zr  2,Zr  1,Zr  4)           70.1717         0.247360   
    146. A(O   7,Zr  1,O  17)          133.8719         0.488590   
    147. A(Zr  2,Zr  1,O   7)           36.5011         0.335752   
    148. A(O  17,Zr  1,O  18)          127.5538         0.531788   
    149. A(Zr  2,Zr  1,O   8)           36.0930         0.332933   
    150. A(Zr  4,Zr  1,O   7)           36.2408         0.330305   
    151. A(O  10,Zr  1,O  16)          113.7893         0.469661   
    152. A(O   7,Zr  1,O  10)           66.7528         0.456252   
    153. A(O  10,Zr  1,O  17)           70.9588         0.479298   
    154. A(Zr  2,Zr  1,O  10)           90.7635         0.330014   
    155. A(Zr  2,Zr  1,O  19)          107.7034         0.362479   
    156. A(Zr  4,Zr  1,O  19)           72.2292         0.356442   
    157. A(O  16,Zr  1,O  18)           82.0142         0.520855   
    158. A(O  10,Zr  1,O  18)          159.5847         0.495955   
    159. A(O   8,Zr  1,O  19)          143.6779         0.500959   
    160. A(O   7,Zr  1,O   8)           67.1812         0.460699   
    161. A(O   8,Zr  1,O  17)          132.0914         0.484024   
    162. A(Zr  2,Zr  1,O  18)           72.1024         0.362428   
    163. A(O  10,Zr  1,O  19)           92.1396         0.496031   
    164. A(Zr  2,Zr  1,O  17)          159.5310         0.351236   
    165. A(Zr  2,Zr  1,O  16)          104.4868         0.344761   
    166. A(O  18,Zr  1,O  19)           82.9602         0.550772   
    167. A(Zr  4,Zr  1,O  18)          124.9217         0.356392   
    168. A(O   8,Zr  1,O  18)           81.3158         0.500882   
    169. A(Zr  4,Zr  1,O   8)           90.5982         0.327547   
    170. A(Zr  4,Zr  1,O  17)           97.6335         0.345447   
    171. A(O   7,Zr  1,O  19)           81.1977         0.505721   
    172. A(O   8,Zr  1,O  10)           91.3799         0.452056   
    173. A(O   8,Zr  2,O  21)          133.9703         0.488374   
    174. A(O   7,Zr  2,O   8)           67.1204         0.459668   
    175. A(Zr  1,Zr  2,O  21)          159.9998         0.350948   
    176. A(O  11,Zr  2,O  20)           92.0637         0.495745   
    177. A(Zr  5,Zr  2,O   8)           36.2000         0.330561   
    178. A(O   8,Zr  2,O  20)           81.2179         0.505973   
    179. A(O  11,Zr  2,O  22)          160.6054         0.496655   
    180. A(O  20,Zr  2,O  21)           83.0406         0.531405   
    181. A(O   7,Zr  2,O  21)          132.6401         0.482277   
    182. A(Zr  1,Zr  2,O   8)           36.3810         0.335890   
    183. A(O  21,Zr  2,O  23)           75.2918         0.501451   
    184. A(Zr  5,Zr  2,O  20)           72.1338         0.356588   
    185. A(Zr  5,Zr  2,O  21)           97.7705         0.345294   
    186. A(O   7,Zr  2,O  23)           71.1581         0.471806   
    187. A(O  20,Zr  2,O  22)           83.1543         0.551934   
    188. A(O   7,Zr  2,O  22)           80.7652         0.500526   
    189. A(Zr  5,Zr  2,O   7)           91.0560         0.326873   
    190. A(O  11,Zr  2,O  23)          112.6543         0.468205   
    191. A(Zr  5,Zr  2,O  22)          125.8096         0.357187   
    192. A(O   8,Zr  2,O  22)           93.9067         0.506906   
    193. A(Zr  1,Zr  2,O  22)           72.4999         0.363104   
    194. A(O   8,Zr  2,O  11)           66.7506         0.456182   
    195. A(Zr  5,Zr  2,O  11)           35.6456         0.324636   
    196. A(O   7,Zr  2,O  11)           92.2849         0.450576   
    197. A(Zr  1,Zr  2,Zr  5)           70.2417         0.247439   
    198. A(O  11,Zr  2,O  21)           70.9351         0.478577   
    199. A(Zr  1,Zr  2,O  23)          104.8657         0.343974   
    200. A(Zr  5,Zr  2,O  23)          144.6422         0.338471   
    201. A(Zr  1,Zr  2,O  20)          107.1762         0.362492   
    202. A(O   7,Zr  2,O  20)          143.1347         0.499607   
    203. A(O   8,Zr  2,O  23)          138.1557         0.477741   
    204. A(Zr  1,Zr  2,O   7)           36.1460         0.332121   
    205. A(Zr  1,Zr  2,O  11)           91.1855         0.329834   
    206. A(O  22,Zr  2,O  23)           82.3679         0.520590   
    207. A(O  20,Zr  2,O  23)          138.7323         0.519627   
    208. A(O  21,Zr  2,O  22)          126.6605         0.532395   
    209. A(O   6,Zr  3,O  10)           91.6203         0.451531   
    210. A(O   9,Zr  3,O  25)           81.1159         0.505454   
    211. A(O   9,Zr  3,O  10)           67.1197         0.459750   
    212. A(Zr  4,Zr  3,O  10)           36.1016         0.332708   
    213. A(Zr  0,Zr  3,O  27)          125.3742         0.356641   
    214. A(Zr  4,Zr  3,O  25)          107.3473         0.362750   
    215. A(O   6,Zr  3,O  25)           92.2365         0.496222   
    216. A(Zr  0,Zr  3,Zr  4)           70.2485         0.247608   
    217. A(Zr  0,Zr  3,O  26)          145.3574         0.339333   
    218. A(Zr  4,Zr  3,O  26)          104.6100         0.345012   
    219. A(O  10,Zr  3,O  26)           71.2859         0.473647   
    220. A(O   9,Zr  3,O  26)          138.3612         0.478469   
    221. A(O  25,Zr  3,O  26)          138.2972         0.521064   
    222. A(O  24,Zr  3,O  26)           75.9726         0.502940   
    223. A(O   6,Zr  3,O  27)          160.0423         0.496166   
    224. A(O  24,Zr  3,O  25)           82.8300         0.531621   
    225. A(Zr  4,Zr  3,O   6)           90.9299         0.330293   
    226. A(O   9,Zr  3,O  24)          133.7595         0.487985   
    227. A(O  10,Zr  3,O  27)           81.1055         0.500241   
    228. A(O  26,Zr  3,O  27)           81.9496         0.521005   
    229. A(O   9,Zr  3,O  27)           93.3778         0.505397   
    230. A(O   6,Zr  3,O  26)          113.4229         0.469835   
    231. A(O   6,Zr  3,O   9)           66.7038         0.456077   
    232. A(O   6,Zr  3,O  24)           70.9535         0.479140   
    233. A(O  24,Zr  3,O  27)          127.1647         0.531560   
    234. A(Zr  0,Zr  3,O  25)           72.1893         0.356677   
    235. A(Zr  0,Zr  3,O   9)           36.2163         0.330289   
    236. A(Zr  0,Zr  3,O   6)           35.5928         0.324940   
    237. A(O  25,Zr  3,O  27)           83.0035         0.550937   
    238. A(Zr  4,Zr  3,O   9)           36.4931         0.335763   
    239. A(Zr  4,Zr  3,O  27)           72.2337         0.362713   
    240. A(Zr  4,Zr  3,O  24)          159.8373         0.351267   
    241. A(Zr  0,Zr  3,O  10)           90.7308         0.327301   
    242. A(O  10,Zr  3,O  25)          143.3101         0.500298   
    243. A(O  10,Zr  3,O  24)          132.5172         0.483045   
    244. A(Zr  0,Zr  3,O  24)           97.5459         0.345449   
    245. A(O   9,Zr  4,O  10)           67.1598         0.460446   
    246. A(O   7,Zr  4,O  10)           66.7453         0.456143   
    247. A(Zr  3,Zr  4,O  10)           36.4549         0.336332   
    248. A(O  28,Zr  4,O  30)           83.1548         0.552214   
    249. A(O  30,Zr  4,O  31)           83.1561         0.532148   
    250. A(O  29,Zr  4,O  31)           75.2609         0.501237   
    251. A(O   7,Zr  4,O  31)           70.9016         0.478338   
    252. A(O  28,Zr  4,O  31)          126.9888         0.532310   
    253. A(O  10,Zr  4,O  31)          134.0340         0.488930   
    254. A(O   9,Zr  4,O  31)          132.1245         0.482901   
    255. A(Zr  3,Zr  4,O  31)          159.7607         0.351284   
    256. A(Zr  1,Zr  4,O  31)           97.8715         0.345278   
    257. A(O  29,Zr  4,O  30)          138.5445         0.519746   
    258. A(O  10,Zr  4,O  30)           81.3143         0.506886   
    259. A(O   9,Zr  4,O  30)          143.4673         0.500586   
    260. A(O   7,Zr  4,O  30)           92.0198         0.495818   
    261. A(Zr  1,Zr  4,Zr  3)           70.2317         0.247492   
    262. A(Zr  1,Zr  4,O   7)           35.6444         0.324268   
    263. A(Zr  3,Zr  4,O   9)           36.1843         0.332603   
    264. A(Zr  1,Zr  4,O   9)           90.8887         0.327026   
    265. A(Zr  3,Zr  4,O   7)           91.1477         0.329781   
    266. A(Zr  3,Zr  4,O  28)           72.3257         0.363160   
    267. A(O   7,Zr  4,O  28)          160.3107         0.495967   
    268. A(O   7,Zr  4,O   9)           92.0167         0.450608   
    269. A(Zr  1,Zr  4,O  28)          125.5145         0.356883   
    270. A(Zr  1,Zr  4,O  29)          144.8566         0.338106   
    271. A(O  10,Zr  4,O  28)           93.6191         0.507039   
    272. A(Zr  3,Zr  4,O  29)          104.6870         0.343943   
    273. A(O   9,Zr  4,O  28)           80.9882         0.500736   
    274. A(O  10,Zr  4,O  29)          138.1699         0.477737   
    275. A(O   9,Zr  4,O  29)           71.0964         0.471876   
    276. A(O  28,Zr  4,O  29)           82.3323         0.519903   
    277. A(Zr  3,Zr  4,O  30)          107.4376         0.363060   
    278. A(Zr  1,Zr  4,O  30)           72.2030         0.356785   
    279. A(O   7,Zr  4,O  29)          112.9304         0.467441   
    280. A(Zr  1,Zr  4,O  10)           36.1624         0.330669   
    281. A(O  11,Zr  5,O  35)           81.1667         0.505839   
    282. A(O  34,Zr  5,O  35)           82.8467         0.531899   
    283. A(O  33,Zr  5,O  35)           83.0995         0.550986   
    284. A(O  32,Zr  5,O  35)          138.2532         0.520884   
    285. A(O   8,Zr  5,O  35)           92.2790         0.495972   
    286. A(O   6,Zr  5,O  35)          143.4592         0.500844   
    287. A(Zr  2,Zr  5,O  35)           72.2495         0.356641   
    288. A(O  33,Zr  5,O  34)          127.3645         0.531809   
    289. A(O  32,Zr  5,O  34)           75.9532         0.502956   
    290. A(O  11,Zr  5,O  34)          133.8382         0.488536   
    291. A(Zr  0,Zr  5,O  35)          107.5243         0.362576   
    292. A(O  32,Zr  5,O  33)           81.9558         0.520796   
    293. A(O   6,Zr  5,O  34)          132.3282         0.483747   
    294. A(Zr  2,Zr  5,O  34)           97.6227         0.345530   
    295. A(Zr  0,Zr  5,O  34)          159.6301         0.351220   
    296. A(O  11,Zr  5,O  33)           93.1658         0.505754   
    297. A(O   8,Zr  5,O  33)          159.8830         0.495889   
    298. A(O   6,Zr  5,O  33)           81.0791         0.500759   
    299. A(Zr  0,Zr  5,O  33)           72.2018         0.362520   
    300. A(O  11,Zr  5,O  32)          138.3291         0.478599   
    301. A(O   8,Zr  5,O  32)          113.4360         0.469377   
    302. A(O   6,Zr  5,O  32)           71.2376         0.473930   
    303. A(Zr  2,Zr  5,O  32)          145.3730         0.339150   
    304. A(Zr  0,Zr  5,O  32)          104.5340         0.344698   
    305. A(Zr  2,Zr  5,O   6)           90.6359         0.327543   
    306. A(Zr  0,Zr  5,Zr  2)           70.1306         0.247457   
    307. A(O   8,Zr  5,O  34)           70.9763         0.479078   
    308. A(Zr  0,Zr  5,O   6)           36.0713         0.332833   
    309. A(O   8,Zr  5,O  11)           66.7476         0.456126   
    310. A(O   6,Zr  5,O  11)           67.1273         0.460521   
    311. A(Zr  2,Zr  5,O  11)           36.2181         0.330436   
    312. A(Zr  0,Zr  5,O  11)           36.4450         0.335791   
    313. A(O   6,Zr  5,O   8)           91.4630         0.451726   
    314. A(Zr  2,Zr  5,O  33)          125.2276         0.356586   
    315. A(Zr  2,Zr  5,O   8)           35.6242         0.324721   
    316. A(Zr  0,Zr  5,O   8)           90.7616         0.329949   
    317. A(Zr  3,O   6,Zr  5)          135.1263         0.451981   
    318. A(Zr  0,O   6,Zr  5)          107.5358         0.461042   
    319. A(Zr  0,O   6,Zr  3)          108.2346         0.456899   
    320. A(Zr  2,O   7,Zr  4)          134.8082         0.450194   
    321. A(Zr  1,O   7,Zr  4)          108.1148         0.455590   
    322. A(Zr  1,O   7,Zr  2)          107.3530         0.459462   
    323. A(Zr  1,O   8,Zr  2)          107.5259         0.460906   
    324. A(Zr  2,O   8,Zr  5)          108.1757         0.456315   
    325. A(Zr  1,O   8,Zr  5)          135.3971         0.451916   
    326. A(Zr  3,O   9,Zr  4)          107.3226         0.459592   
    327. A(Zr  0,O   9,Zr  4)          135.2068         0.451170   
    328. A(Zr  0,O   9,Zr  3)          108.1089         0.455867   
    329. A(Zr  3,O  10,Zr  4)          107.4435         0.460605   
    330. A(Zr  1,O  10,Zr  4)          108.2636         0.456807   
    331. A(Zr  1,O  10,Zr  3)          135.2382         0.451417   
    332. A(Zr  2,O  11,Zr  5)          108.1364         0.455993   
    333. A(Zr  0,O  11,Zr  5)          107.4247         0.460113   
    334. A(Zr  0,O  11,Zr  2)          134.8530         0.451197   
    335. A(Zr  0,O  12,C  36)          127.9688         0.505956   
    336. A(Zr  0,O  13,C  37)          128.8661         0.505718   
    337. A(Zr  0,O  14,C  38)          139.2671         0.477491   
    338. A(Zr  0,O  15,C  39)          129.3111         0.489297   
    339. A(Zr  1,O  16,C  40)          138.6505         0.479081   
    340. A(C  40,O  16,H  61)           78.2792         0.166404   
    341. A(Zr  1,O  16,H  61)          121.3335         0.169157   
    342. A(Zr  1,O  17,C  41)          130.3004         0.489592   
    343. A(C  41,O  17,H  61)           56.8779         0.131162   
    344. A(Zr  1,O  17,H  61)           95.7164         0.133695   
    345. A(Zr  1,O  18,C  42)          128.1761         0.505231   
    346. A(Zr  1,O  19,C  43)          128.9883         0.505776   
    347. A(Zr  2,O  20,C  44)          128.9258         0.505734   
    348. A(Zr  2,O  21,C  38)          129.1509         0.489104   
    349. A(Zr  2,O  22,C  42)          127.9018         0.506289   
    350. A(Zr  2,O  23,C  45)          139.2170         0.477764   
    351. A(Zr  3,O  24,C  46)          130.1494         0.489272   
    352. A(Zr  3,O  25,C  37)          128.9114         0.505802   
    353. A(Zr  3,O  26,C  41)          138.2245         0.479006   
    354. A(C  41,O  26,H  61)           79.8804         0.156597   
    355. A(Zr  3,O  26,H  61)          119.3833         0.159034   
    356. A(Zr  3,O  27,C  47)          127.9304         0.505316   
    357. A(Zr  4,O  28,C  47)          128.0334         0.506023   
    358. A(Zr  4,O  29,C  39)          139.3807         0.477424   
    359. A(Zr  4,O  30,C  43)          129.0435         0.506294   
    360. A(Zr  4,O  31,C  45)          129.2108         0.489317   
    361. A(C  46,O  32,H  61)           84.4329         0.161660   
    362. A(Zr  5,O  32,H  61)          117.6657         0.164258   
    363. A(Zr  5,O  32,C  46)          137.9885         0.478724   
    364. A(Zr  5,O  33,C  36)          128.0145         0.505332   
    365. A(Zr  5,O  34,C  40)          130.3718         0.489551   
    366. A(C  40,O  34,H  61)           53.1465         0.134976   
    367. A(Zr  5,O  34,H  61)           98.6785         0.137727   
    368. A(Zr  5,O  35,C  44)          128.8653         0.505847   
    369. A(O  12,C  36,O  33)          127.1846         0.464284   
    370. A(O  33,C  36,H  58)          116.4171         0.363804   
    371. A(O  12,C  36,H  58)          116.3982         0.363818   
    372. A(O  13,C  37,O  25)          127.3172         0.465022   
    373. A(O  25,C  37,H  51)          116.3304         0.364197   
    374. A(O  13,C  37,H  51)          116.3524         0.364194   
    375. A(O  14,C  38,O  21)          129.5383         0.466112   
    376. A(O  21,C  38,H  50)          115.2288         0.365841   
    377. A(O  14,C  38,H  50)          115.2326         0.365341   
    378. A(O  15,C  39,O  29)          129.5733         0.466186   
    379. A(O  29,C  39,H  54)          115.2092         0.365383   
    380. A(O  15,C  39,H  54)          115.2170         0.365869   
    381. A(O  16,C  40,O  34)          129.5694         0.466312   
    382. A(H  56,C  40,H  61)           93.2098         0.144910   
    383. A(O  34,C  40,H  61)          103.6695         0.165306   
    384. A(O  16,C  40,H  61)           72.8729         0.165179   
    385. A(O  34,C  40,H  56)          115.1430         0.365921   
    386. A(O  16,C  40,H  56)          115.2829         0.365461   
    387. A(O  17,C  41,O  26)          129.5232         0.466158   
    388. A(H  48,C  41,H  61)           96.7292         0.137193   
    389. A(O  26,C  41,H  61)           73.0876         0.154653   
    390. A(O  17,C  41,H  61)          100.4184         0.154779   
    391. A(O  26,C  41,H  48)          115.3203         0.365325   
    392. A(O  17,C  41,H  48)          115.1520         0.365857   
    393. A(O  18,C  42,O  22)          127.1898         0.464278   
    394. A(O  22,C  42,H  49)          116.3921         0.363821   
    395. A(O  18,C  42,H  49)          116.4180         0.363802   
    396. A(O  30,C  43,H  52)          116.3310         0.364218   
    397. A(O  19,C  43,H  52)          116.3241         0.364229   
    398. A(O  19,C  43,O  30)          127.3449         0.465079   
    399. A(O  35,C  44,H  59)          116.3124         0.364199   
    400. A(O  20,C  44,H  59)          116.3247         0.364179   
    401. A(O  20,C  44,O  35)          127.3629         0.465012   
    402. A(O  31,C  45,H  55)          115.2325         0.365858   
    403. A(O  23,C  45,H  55)          115.2352         0.365345   
    404. A(O  23,C  45,O  31)          129.5315         0.466160   
    405. A(H  57,C  46,H  61)           97.3832         0.136399   
    406. A(O  32,C  46,H  61)           68.4157         0.153555   
    407. A(O  24,C  46,H  61)          104.3519         0.153689   
    408. A(O  32,C  46,H  57)          115.2897         0.365268   
    409. A(O  24,C  46,H  57)          115.1865         0.365839   
    410. A(O  24,C  46,O  32)          129.5189         0.466046   
    411. A(O  28,C  47,H  53)          116.4164         0.363816   
    412. A(O  27,C  47,H  53)          116.4358         0.363798   
    413. A(O  27,C  47,O  28)          127.1477         0.464276   
    414. A(H  61,H  48,H  63)           53.6426         0.091630   
    415. A(C  41,H  48,H  61)           63.1262         0.109329   
    416. A(C  41,H  48,H  63)          116.6831         0.115241   
    417. A(C  40,H  56,H  61)           64.8796         0.113550   
    418. A(C  46,H  57,H  61)           62.7000         0.108831   
    419. A(H  61,H  57,H  62)           53.8239         0.091648   
    420. A(C  46,H  57,H  62)          114.7998         0.116089   
    421. A(H  62,Al 60,H  63)          118.8252         0.381867   
    422. A(H  61,Al 60,H  63)          115.8361         0.382129   
    423. A(H  61,Al 60,H  62)          116.6100         0.382132   
    424. A(O  17,H  61,H  57)          123.0239         0.092020   
    425. A(O  17,H  61,H  48)           36.3554         0.092096   
    426. A(O  17,H  61,H  56)           89.1050         0.092738   
    427. A(O  17,H  61,C  46)          105.3891         0.096218   
    428. A(O  17,H  61,C  41)           22.7037         0.096339   
    429. A(O  17,H  61,O  26)           44.5285         0.096557   
    430. A(O  17,H  61,O  32)          104.3637         0.097124   
    431. A(O  16,H  61,O  17)           48.8615         0.097650   
    432. A(O  17,H  61,Al 60)          121.3028         0.126151   
    433. A(O  34,H  61,H  57)           87.0703         0.092293   
    434. A(O  34,H  61,H  48)          126.6253         0.092376   
    435. A(O  34,H  61,H  56)           38.1401         0.093076   
    436. A(O  34,H  61,C  41)          108.1773         0.097003   
    437. A(O  26,H  61,O  34)          104.9577         0.097240   
    438. A(O  32,H  61,O  34)           49.9633         0.097859   
    439. A(O  34,H  61,C  40)           23.1840         0.098283   
    440. A(O  16,H  61,O  34)           46.4409         0.098432   
    441. A(O  34,H  61,Al 60)          144.9113         0.129509   
    442. A(H  48,H  61,H  57)          113.6657         0.090988   
    443. A(H  56,H  61,H  57)          119.3169         0.091400   
    444. A(C  46,H  61,H  57)           19.9169         0.093634   
    445. A(C  41,H  61,H  57)          108.3661         0.093712   
    446. A(O  26,H  61,H  57)           81.4544         0.093851   
    447. A(O  32,H  61,H  57)           39.4178         0.094216   
    448. A(O  16,H  61,H  57)          124.5635         0.094553   
    449. A(H  57,H  61,Al 60)           86.7524         0.112851   
    450. A(H  48,H  61,H  56)          119.8083         0.091460   
    451. A(C  46,H  61,H  48)          105.8047         0.093750   
    452. A(C  41,H  61,H  48)           20.1446         0.093830   
    453. A(O  26,H  61,H  48)           39.5179         0.093973   
    454. A(O  32,H  61,H  48)          121.3830         0.094347   
    455. A(C  40,H  61,H  48)          113.1609         0.094603   
    456. A(O  16,H  61,H  48)           84.3441         0.094693   
    457. A(H  48,H  61,Al 60)           87.2126         0.113450   
    458. A(C  40,H  61,H  57)          110.2421         0.094465   
    459. A(C  46,H  61,H  56)          114.1167         0.094736   
    460. A(C  41,H  61,H  56)          111.8080         0.094832   
    461. A(O  26,H  61,H  56)          126.1612         0.095005   
    462. A(O  32,H  61,H  56)           87.0389         0.095456   
    463. A(C  40,H  61,H  56)           21.9106         0.095765   
    464. A(O  16,H  61,H  56)           42.6795         0.095873   
    465. A(H  56,H  61,Al 60)          121.1202         0.118521   
    466. A(C  41,H  61,C  46)           94.9449         0.100261   
    467. A(O  26,H  61,C  46)           68.2917         0.100595   
    468. A(O  32,H  61,C  46)           27.1514         0.101466   
    469. A(C  40,H  61,C  46)           98.9532         0.102063   
    470. A(O  16,H  61,C  46)          106.8163         0.102273   
    471. A(C  46,H  61,Al 60)          104.8971         0.146005   
    472. A(O  26,H  61,C  41)           27.0320         0.100789   
    473. A(O  32,H  61,C  41)          104.3316         0.101675   
    474. A(O  34,H  61,C  46)           77.0107         0.096871   
    475. A(C  40,H  61,C  41)           99.0653         0.102282   
    476. A(O  16,H  61,C  41)           70.8720         0.102495   
    477. A(C  41,H  61,Al 60)          106.5524         0.146961   
    478. A(O  26,H  61,O  32)           82.0220         0.102051   
    479. A(O  26,H  61,C  40)          106.7995         0.102675   
    480. A(O  16,H  61,O  26)           83.8736         0.102895   
    481. A(O  26,H  61,Al 60)          108.1928         0.148677   
    482. A(O  17,H  61,C  40)           77.5828         0.097513   
    483. A(O  32,H  61,C  40)           72.4014         0.103703   
    484. A(O  16,H  61,O  32)           85.7362         0.103939   
    485. A(O  32,H  61,Al 60)          124.2812         0.153161   
    486. A(O  16,H  61,C  40)           28.8478         0.104654   
    487. A(C  40,H  61,Al 60)          142.9498         0.156232   
    488. A(O  16,H  61,Al 60)          148.2865         0.157313   
    489. A(O  17,H  61,O  34)           90.6248         0.094129   
    490. A(H  57,H  62,Al 60)          100.7276         0.121550   
    491. A(H  48,H  63,Al 60)           98.5396         0.120531   
    492. D(Zr  5,Zr  2,Zr  1,Zr  4)    104.2331         0.010000   
    493. D(Zr  5,Zr  2,Zr  1,O   7)    121.6651         0.010000   
    494. D(O   7,Zr  2,Zr  1,Zr  4)    -17.4320         0.010000   
    495. D(O   6,Zr  3,Zr  0,Zr  5)     16.9625         0.010000   
    496. D(Zr  4,Zr  3,Zr  0,O   6)   -122.0932         0.010000   
    497. D(Zr  4,Zr  3,Zr  0,Zr  5)   -105.1307         0.010000   
    498. D(Zr  3,Zr  4,Zr  1,O   7)   -122.5274         0.010000   
    499. D(O   7,Zr  4,Zr  3,Zr  0)     74.7887         0.010000   
    500. D(Zr  3,Zr  4,Zr  1,Zr  2)   -104.9841         0.010000   
    501. D(Zr  1,Zr  4,Zr  3,Zr  0)    104.2238         0.010000   
    502. D(Zr  1,Zr  4,Zr  3,O   6)     74.6763         0.010000   
    503. D(O   7,Zr  4,Zr  1,Zr  2)     17.5433         0.010000   
    504. D(Zr  0,Zr  5,Zr  2,Zr  1)   -105.1766         0.010000   
    505. D(O   6,Zr  5,Zr  0,Zr  3)    -16.8712         0.010000   
    506. D(Zr  2,Zr  5,Zr  0,O   6)    121.0748         0.010000   
    507. D(Zr  2,Zr  5,Zr  0,Zr  3)    104.2036         0.010000   
    508. D(O   6,Zr  5,Zr  2,Zr  1)    -74.8899         0.010000   
    509. D(Zr  0,Zr  5,Zr  2,O   7)    -75.0363         0.010000   
    510. D(Zr  3,O   6,Zr  0,O   9)    -24.4700         0.010000   
    511. D(Zr  0,O   6,Zr  5,O   8)    -89.2851         0.010000   
    512. D(Zr  5,O   6,Zr  3,Zr  0)   -141.3094         0.010000   
    513. D(Zr  3,O   6,Zr  5,Zr  0)    141.4894         0.010000   
    514. D(Zr  0,O   6,Zr  5,Zr  2)    -53.6640         0.010000   
    515. D(Zr  0,O   6,Zr  3,Zr  4)     52.8871         0.010000   
    516. D(Zr  3,O   6,Zr  0,Zr  5)   -152.4487         0.010000   
    517. D(Zr  5,O   6,Zr  0,Zr  3)    152.4487         0.010000   
    518. D(Zr  0,O   6,Zr  3,O   9)     24.8194         0.010000   
    519. D(Zr  4,O   7,Zr  1,Zr  2)   -151.5302         0.010000   
    520. D(Zr  1,O   7,Zr  2,Zr  5)    -53.2409         0.010000   
    521. D(Zr  2,O   7,Zr  1,O   8)     25.1473         0.010000   
    522. D(Zr  2,O   7,Zr  1,Zr  4)    151.5302         0.010000   
    523. D(Zr  2,O   7,Zr  4,Zr  1)   -140.1095         0.010000   
    524. D(Zr  1,O   7,Zr  4,O   9)     88.7123         0.010000   
    525. D(Zr  4,O   7,Zr  2,Zr  1)    140.3124         0.010000   
    526. D(Zr  1,O   7,Zr  2,O   8)    -25.3447         0.010000   
    527. D(Zr  1,O   7,Zr  4,Zr  3)     52.5238         0.010000   
    528. D(Zr  2,O   8,Zr  5,Zr  0)     52.9782         0.010000   
    529. D(Zr  1,O   8,Zr  5,Zr  2)   -141.6537         0.010000   
    530. D(Zr  1,O   8,Zr  5,Zr  0)    -88.6754         0.010000   
    531. D(Zr  1,O   8,Zr  2,O   7)     25.1935         0.010000   
    532. D(Zr  5,O   8,Zr  2,Zr  1)   -152.8157         0.010000   
    533. D(Zr  5,O   8,Zr  1,Zr  2)    141.8187         0.010000   
    534. D(Zr  1,O   8,Zr  2,Zr  5)    152.8157         0.010000   
    535. D(Zr  2,O   8,Zr  1,O   7)    -25.4097         0.010000   
    536. D(Zr  2,O   8,Zr  1,Zr  4)    -53.8321         0.010000   
    537. D(Zr  3,O   9,Zr  0,O   6)     24.7850         0.010000   
    538. D(Zr  0,O   9,Zr  3,O   6)    -24.4248         0.010000   
    539. D(Zr  0,O   9,Zr  4,Zr  3)    140.9215         0.010000   
    540. D(Zr  4,O   9,Zr  3,Zr  0)    152.1420         0.010000   
    541. D(Zr  0,O   9,Zr  4,Zr  1)     87.3737         0.010000   
    542. D(Zr  3,O   9,Zr  4,Zr  1)    -53.5479         0.010000   
    543. D(Zr  0,O   9,Zr  3,Zr  4)   -152.1420         0.010000   
    544. D(Zr  3,O   9,Zr  0,Zr  5)     52.6733         0.010000   
    545. D(Zr  4,O   9,Zr  0,Zr  3)   -140.7168         0.010000   
    546. D(Zr  1,O  10,Zr  4,O   7)    -24.3546         0.010000   
    547. D(Zr  1,O  10,Zr  4,Zr  3)   -152.5538         0.010000   
    548. D(Zr  4,O  10,Zr  3,Zr  0)    -53.7665         0.010000   
    549. D(Zr  1,O  10,Zr  3,Zr  4)    141.5679         0.010000   
    550. D(Zr  1,O  10,Zr  3,Zr  0)     87.8014         0.010000   
    551. D(Zr  4,O  10,Zr  1,Zr  2)     53.0044         0.010000   
    552. D(Zr  3,O  10,Zr  1,Zr  4)   -141.3575         0.010000   
    553. D(Zr  3,O  10,Zr  4,Zr  1)    152.5538         0.010000   
    554. D(Zr  3,O  10,Zr  1,Zr  2)    -88.3531         0.010000   
    555. D(Zr  2,O  11,Zr  5,Zr  0)   -151.7222         0.010000   
    556. D(Zr  0,O  11,Zr  5,Zr  2)    151.7222         0.010000   
    557. D(Zr  5,O  11,Zr  2,Zr  1)     52.4784         0.010000   
    558. D(Zr  0,O  11,Zr  2,Zr  5)   -140.3868         0.010000   
    559. D(Zr  0,O  11,Zr  2,Zr  1)    -87.9085         0.010000   
    560. D(Zr  5,O  11,Zr  0,Zr  3)    -53.3203         0.010000   
    561. D(Zr  0,O  11,Zr  5,O   6)     25.1098         0.010000   
    562. D(Zr  2,O  11,Zr  0,Zr  5)    140.5751         0.010000   
    563. D(Zr  2,O  11,Zr  0,Zr  3)     87.2548         0.010000   
    564. D(C  36,O  12,Zr  0,Zr  5)    -28.4793         0.010000   
    565. D(C  36,O  12,Zr  0,Zr  3)     19.8855         0.010000   
    566. D(C  37,O  13,Zr  0,Zr  5)    -88.6101         0.010000   
    567. D(C  37,O  13,Zr  0,Zr  3)    -26.8873         0.010000   
    568. D(C  38,O  14,Zr  0,Zr  5)      5.4523         0.010000   
    569. D(C  38,O  14,Zr  0,Zr  3)    -70.9498         0.010000   
    570. D(C  39,O  15,Zr  0,Zr  5)    -19.1257         0.010000   
    571. D(C  39,O  15,Zr  0,Zr  3)    -70.8530         0.010000   
    572. D(H  61,O  16,Zr  1,Zr  2)    115.0371         0.010000   
    573. D(C  40,O  16,Zr  1,Zr  4)    -70.2840         0.010000   
    574. D(C  40,O  16,Zr  1,Zr  2)      5.6592         0.010000   
    575. D(H  61,O  17,Zr  1,Zr  2)    -66.3343         0.010000   
    576. D(C  41,O  17,Zr  1,Zr  4)    -67.4786         0.010000   
    577. D(C  41,O  17,Zr  1,Zr  2)    -15.7657         0.010000   
    578. D(C  42,O  18,Zr  1,Zr  4)     19.8568         0.010000   
    579. D(C  42,O  18,Zr  1,Zr  2)    -28.8277         0.010000   
    580. D(C  43,O  19,Zr  1,Zr  4)    -26.1973         0.010000   
    581. D(C  43,O  19,Zr  1,Zr  2)    -87.7590         0.010000   
    582. D(C  44,O  20,Zr  2,Zr  5)    -26.8137         0.010000   
    583. D(C  44,O  20,Zr  2,Zr  1)    -88.6888         0.010000   
    584. D(C  38,O  21,Zr  2,Zr  5)    -71.1762         0.010000   
    585. D(C  38,O  21,Zr  2,Zr  1)    -19.6851         0.010000   
    586. D(C  42,O  22,Zr  2,Zr  5)     20.1470         0.010000   
    587. D(C  42,O  22,Zr  2,Zr  1)    -28.2042         0.010000   
    588. D(C  45,O  23,Zr  2,Zr  5)    -71.8059         0.010000   
    589. D(C  45,O  23,Zr  2,Zr  1)      4.8785         0.010000   
    590. D(C  46,O  24,Zr  3,Zr  4)    -16.2194         0.010000   
    591. D(C  46,O  24,Zr  3,Zr  0)    -67.2996         0.010000   
    592. D(C  37,O  25,Zr  3,Zr  4)    -88.4271         0.010000   
    593. D(C  37,O  25,Zr  3,Zr  0)    -26.6058         0.010000   
    594. D(C  41,O  26,Zr  3,Zr  4)      3.8888         0.010000   
    595. D(C  41,O  26,Zr  3,Zr  0)    -72.3960         0.010000   
    596. D(H  61,O  26,Zr  3,Zr  0)     36.7302         0.010000   
    597. D(C  47,O  27,Zr  3,Zr  4)    -28.9799         0.010000   
    598. D(C  47,O  27,Zr  3,Zr  0)     19.5139         0.010000   
    599. D(C  47,O  28,Zr  4,Zr  1)     19.9326         0.010000   
    600. D(C  47,O  28,Zr  4,Zr  3)    -28.4991         0.010000   
    601. D(C  39,O  29,Zr  4,Zr  3)      5.7997         0.010000   
    602. D(C  39,O  29,Zr  4,Zr  1)    -70.6041         0.010000   
    603. D(C  43,O  30,Zr  4,Zr  3)    -88.1736         0.010000   
    604. D(C  43,O  30,Zr  4,Zr  1)    -26.4129         0.010000   
    605. D(C  45,O  31,Zr  4,Zr  3)    -18.6779         0.010000   
    606. D(C  45,O  31,Zr  4,Zr  1)    -70.9438         0.010000   
    607. D(H  61,O  32,Zr  5,Zr  0)    117.9608         0.010000   
    608. D(C  46,O  32,Zr  5,Zr  2)    -72.7360         0.010000   
    609. D(C  46,O  32,Zr  5,Zr  0)      3.2310         0.010000   
    610. D(C  36,O  33,Zr  5,Zr  2)     19.5614         0.010000   
    611. D(C  36,O  33,Zr  5,Zr  0)    -28.8572         0.010000   
    612. D(H  61,O  34,Zr  5,Zr  0)    -64.8704         0.010000   
    613. D(C  40,O  34,Zr  5,Zr  2)    -68.0150         0.010000   
    614. D(C  40,O  34,Zr  5,Zr  0)    -16.6750         0.010000   
    615. D(C  44,O  35,Zr  5,Zr  2)    -26.4399         0.010000   
    616. D(C  44,O  35,Zr  5,Zr  0)    -88.0600         0.010000   
    617. D(H  58,C  36,O  12,Zr  0)   -159.3573         0.045840   
    618. D(O  33,C  36,O  12,Zr  0)     20.5736         0.045840   
    619. D(H  58,C  36,O  33,Zr  5)   -158.6626         0.045817   
    620. D(O  12,C  36,O  33,Zr  5)     21.4066         0.045817   
    621. D(H  51,C  37,O  25,Zr  3)   -160.5450         0.046276   
    622. D(O  13,C  37,O  25,Zr  3)     19.4194         0.046276   
    623. D(H  51,C  37,O  13,Zr  0)   -159.9797         0.046272   
    624. D(O  25,C  37,O  13,Zr  0)     20.0559         0.046272   
    625. D(H  50,C  38,O  21,Zr  2)   -162.6099         0.047358   
    626. D(O  14,C  38,O  21,Zr  2)     17.1769         0.047358   
    627. D(H  50,C  38,O  14,Zr  0)   -152.8665         0.046522   
    628. D(O  21,C  38,O  14,Zr  0)     27.3468         0.046522   
    629. D(H  54,C  39,O  29,Zr  4)   -153.2712         0.046579   
    630. D(O  15,C  39,O  29,Zr  4)     27.0024         0.046579   
    631. D(H  54,C  39,O  15,Zr  0)   -162.5962         0.047392   
    632. D(O  29,C  39,O  15,Zr  0)     17.1303         0.047392   
    633. D(H  56,C  40,O  34,Zr  5)   -167.3019         0.057163   
    634. D(O  16,C  40,O  34,H  61)     78.9195         0.057163   
    635. D(O  16,C  40,O  34,Zr  5)     11.8596         0.057163   
    636. D(H  56,C  40,O  16,Zr  1)   -150.0108         0.056229   
    637. D(O  34,C  40,O  16,H  61)    -93.7925         0.056229   
    638. D(O  34,C  40,O  16,Zr  1)     30.8287         0.056229   
    639. D(H  48,C  41,O  26,Zr  3)   -147.2276         0.056042   
    640. D(O  17,C  41,O  26,H  61)    -89.6664         0.056042   
    641. D(O  17,C  41,O  26,Zr  3)     33.5856         0.056042   
    642. D(H  48,C  41,O  17,Zr  1)   -169.1746         0.057121   
    643. D(O  26,C  41,O  17,H  61)     76.5990         0.057121   
    644. D(O  26,C  41,O  17,Zr  1)     10.0133         0.057121   
    645. D(H  49,C  42,O  22,Zr  2)   -159.6367         0.045841   
    646. D(O  18,C  42,O  22,Zr  2)     20.2382         0.045841   
    647. D(H  49,C  42,O  18,Zr  1)   -158.5955         0.045809   
    648. D(O  22,C  42,O  18,Zr  1)     21.5297         0.045809   
    649. D(H  52,C  43,O  30,Zr  4)   -160.3763         0.046299   
    650. D(O  19,C  43,O  30,Zr  4)     19.6398         0.046299   
    651. D(H  52,C  43,O  19,Zr  1)   -160.7728         0.046318   
    652. D(O  30,C  43,O  19,Zr  1)     19.2111         0.046318   
    653. D(H  59,C  44,O  35,Zr  5)   -160.7215         0.046285   
    654. D(O  20,C  44,O  35,Zr  5)     19.2548         0.046285   
    655. D(H  59,C  44,O  20,Zr  2)   -159.9728         0.046251   
    656. D(O  35,C  44,O  20,Zr  2)     20.0508         0.046251   
    657. D(H  55,C  45,O  31,Zr  4)   -162.8736         0.047400   
    658. D(O  23,C  45,O  31,Zr  4)     16.7952         0.047400   
    659. D(H  55,C  45,O  23,Zr  2)   -152.3404         0.046540   
    660. D(O  31,C  45,O  23,Zr  2)     27.9908         0.046540   
    661. D(H  57,C  46,O  32,Zr  5)   -145.8789         0.055921   
    662. D(O  24,C  46,O  32,H  61)    -91.1015         0.055921   
    663. D(O  24,C  46,O  32,Zr  5)     34.9723         0.055921   
    664. D(H  57,C  46,O  24,Zr  3)   -170.1923         0.052401   
    665. D(O  32,C  46,O  24,Zr  3)      8.9572         0.052401   
    666. D(H  53,C  47,O  28,Zr  4)   -159.4655         0.045838   
    667. D(O  27,C  47,O  28,Zr  4)     20.4747         0.045838   
    668. D(H  53,C  47,O  27,Zr  3)   -158.4611         0.045809   
    669. D(O  28,C  47,O  27,Zr  3)     21.5988         0.045809   
    670. D(H  61,H  48,C  41,O  17)    104.8663         0.136061   
    671. D(H  63,H  48,C  41,O  26)    -71.2913         0.136061   
    672. D(H  63,H  48,C  41,O  17)    108.0157         0.136061   
    673. D(H  61,H  56,C  40,O  34)    106.7255         0.124953   
    674. D(H  61,H  56,C  40,O  16)    -72.5596         0.124953   
    675. D(H  61,H  57,C  46,O  24)    109.7031         0.136082   
    676. D(H  62,H  57,C  46,O  32)    -83.5882         0.136082   
    677. D(H  62,H  57,C  46,O  24)     95.6862         0.136082   
    678. D(C  40,H  61,Al 60,H  62)    106.7687         0.011825   
    679. D(O  16,H  61,Al 60,H  63)    -54.3625         0.011825   
    680. D(O  16,H  61,H  57,C  46)     29.5326         0.010000   
    681. D(Al 60,H  61,H  57,H  62)      8.3419         0.010000   
    682. D(Al 60,H  61,H  57,C  46)   -155.8518         0.010000   
    683. D(Al 60,H  61,H  56,C  40)   -175.8169         0.010000   
    684. D(O  16,H  61,H  48,C  41)    -46.6735         0.010000   
    685. D(Al 60,H  61,H  48,H  63)    -12.5722         0.010000   
    686. D(Al 60,H  61,H  48,C  41)    163.9332         0.010000   
    687. D(O  16,H  61,C  46,O  24)     86.6595         0.010000   
    688. D(Al 60,H  61,C  46,O  32)    139.3316         0.010000   
    689. D(Al 60,H  61,C  46,O  24)    -93.4293         0.010000   
    690. D(Al 60,H  61,C  41,O  26)     97.7101         0.010000   
    691. D(Al 60,H  61,C  41,O  17)   -133.9444         0.010000   
    692. D(O  16,H  61,C  40,O  34)    127.6659         0.010000   
    693. D(Al 60,H  61,C  40,O  34)   -110.8969         0.010000   
    694. D(Al 60,H  61,C  40,O  16)    121.4373         0.010000   
    695. D(O  16,H  61,O  34,Zr  5)    102.9812         0.010000   
    696. D(Al 60,H  61,O  34,C  40)    101.7080         0.010000   
    697. D(O  16,H  61,C  41,O  17)     12.8013         0.010000   
    698. D(Al 60,H  61,O  34,Zr  5)   -123.5049         0.010000   
    699. D(O  16,H  61,O  32,Zr  5)     -0.9932         0.010000   
    700. D(Al 60,H  61,O  32,C  46)    -49.6567         0.010000   
    701. D(Al 60,H  61,O  32,Zr  5)    167.9893         0.010000   
    702. D(O  16,H  61,O  26,Zr  3)    -81.2354         0.010000   
    703. D(Al 60,H  61,O  26,C  41)    -90.9004         0.010000   
    704. D(Al 60,H  61,O  26,Zr  3)    128.8456         0.010000   
    705. D(O  16,H  61,H  56,C  40)     39.9760         0.010000   
    706. D(O  16,H  61,O  17,Zr  1)    -28.5588         0.010000   
    707. D(Al 60,H  61,O  17,C  41)     53.8776         0.010000   
    708. D(Al 60,H  61,O  17,Zr  1)   -170.8197         0.010000   
    709. D(O  16,H  61,Al 60,H  62)    158.3154         0.011825   
    710. D(C  40,H  61,O  16,Zr  1)   -140.4689         0.010000   
    711. D(Al 60,H  61,O  16,C  40)   -102.0589         0.010000   
    712. D(Al 60,H  61,O  16,Zr  1)    117.4722         0.010000   
    713. D(H  57,H  62,Al 60,H  63)   -131.0128         0.010000   
    714. D(H  57,H  62,Al 60,H  61)     15.2989         0.010000   
    715. D(Al 60,H  62,H  57,H  61)     -8.4719         0.010000   
    716. D(Al 60,H  62,H  57,C  46)      6.9923         0.010000   
    717. D(H  48,H  63,Al 60,H  62)    123.8411         0.010000   
    718. D(H  48,H  63,Al 60,H  61)    -22.7235         0.010000   
    719. D(Al 60,H  63,H  48,H  61)     12.6914         0.010000   
    720. D(Al 60,H  63,H  48,C  41)      9.2026         0.010000   
    -----------------------------------------------------------------

Number of atoms                         .... 64
Number of degrees of freedom            .... 720


         *************************************************************
         *                GEOMETRY OPTIMIZATION CYCLE   1            *
         *************************************************************
---------------------------------
CARTESIAN COORDINATES (ANGSTROEM)
---------------------------------
  Zr    -0.333378    2.055096    1.540901
  Zr     0.347909   -2.132289   -1.495951
  Zr     1.765229   -1.269609    1.482032
  Zr    -1.742030    1.203982   -1.474139
  Zr     1.654327    1.038817   -1.702199
  Zr    -1.656145   -1.081198    1.726412
  O     -1.660969    0.717859    0.602781
  O      1.683784   -0.782361   -0.584242
  O     -0.038821   -1.862490    0.571452
  O      0.050034    1.810663   -0.545401
  O     -0.112641   -0.087447   -1.901690
  O      0.126210    0.021541    1.938655
  O     -1.205798    1.875269    3.310569
  O     -1.831114    3.307889    1.194868
  O      1.385495    1.970985    2.687740
  O      0.797254    3.614908    0.887394
  O     -1.294595   -3.268149   -0.976115
  O     -0.855997   -2.035380   -3.131879
  O      1.317381   -3.716564   -0.800719
  O      1.784440   -2.157236   -2.862704
  O      1.176268   -2.608773    2.820615
  O      2.219848   -0.178846    3.138525
  O      2.792403   -2.798250    0.754328
  O      3.478832   -0.231420    0.972850
  O     -3.629726    0.858475   -0.799021
  O     -2.217940    3.090810   -1.093461
  O     -2.418952   -0.347627   -2.653888
  O     -1.217154    1.945793   -3.236638
  O      1.037008    2.459703   -2.936865
  O      2.332502    2.662702   -0.615279
  O      2.090967    0.093119   -3.387767
  O      3.578840    0.578511   -1.230368
  O     -3.429564   -0.958256    0.677654
  O     -2.650361    0.072059    2.996693
  O     -2.068845   -3.008902    1.226870
  O     -0.976477   -1.918342    3.390247
  C     -2.218835    1.123487    3.631306
  C     -2.329458    3.689232    0.055771
  C      2.092677    1.096788    3.339867
  C      1.863427    3.604389    0.147873
  C     -1.927505   -3.633350    0.098404
  C     -1.919685   -1.325109   -3.350198
  C      2.368669   -3.743760   -0.033544
  C      2.230255   -1.182467   -3.598959
  C      0.115893   -2.599761    3.573594
  C      4.079473    0.215874   -0.089520
  C     -4.081311   -0.073953   -0.017692
  C     -0.106005    2.545218   -3.553721
  H     -2.481530   -1.596145   -4.240424
  H      2.959389   -4.661762   -0.051354
  H      2.664224    1.493237    4.175111
  H     -2.906667    4.615335    0.065274
  H      2.783567   -1.467087   -4.495451
  H     -0.135657    3.189891   -4.434373
  H      2.453760    4.516668    0.173450
  H      5.159895    0.303620   -0.008718
  H     -2.422226   -4.599305    0.040040
  H     -5.164292   -0.131357    0.056146
  H     -2.767801    1.406820    4.531517
  H      0.145979   -3.236378    4.459468
  Al    -5.065797   -2.711731   -2.250086
  H     -3.688458   -2.469810   -1.482519
  H     -6.356282   -1.990671   -1.647669
  H     -4.957149   -2.899898   -3.831544

----------------------------
CARTESIAN COORDINATES (A.U.)
----------------------------
  NO LB      ZA    FRAG     MASS         X           Y           Z
   0 Zr   12.0000*   0    91.220   -0.629993    3.883569    2.911882
   1 Zr   12.0000*   0    91.220    0.657453   -4.029442   -2.826939
   2 Zr   12.0000*   0    91.220    3.335799   -2.399212    2.800635
   3 Zr   12.0000*   0    91.220   -3.291959    2.275197   -2.785720
   4 Zr   12.0000*   0    91.220    3.126225    1.963079   -3.216691
   5 Zr   12.0000*   0    91.220   -3.129660   -2.043168    3.262445
   6 O     8.0000    0    15.999   -3.138777    1.356557    1.139092
   7 O     8.0000    0    15.999    3.181891   -1.478449   -1.104057
   8 O     8.0000    0    15.999   -0.073361   -3.519596    1.079888
   9 O     8.0000    0    15.999    0.094550    3.421658   -1.030659
  10 O     8.0000    0    15.999   -0.212860   -0.165251   -3.593673
  11 O     8.0000    0    15.999    0.238502    0.040707    3.663527
  12 O     8.0000    0    15.999   -2.278629    3.543744    6.256069
  13 O     8.0000    0    15.999   -3.460305    6.251005    2.257974
  14 O     8.0000    0    15.999    2.618207    3.724622    5.079093
  15 O     8.0000    0    15.999    1.506592    6.831187    1.676931
  16 O     8.0000    0    15.999   -2.446431   -6.175906   -1.844591
  17 O     8.0000    0    15.999   -1.617599   -3.846310   -5.918393
  18 O     8.0000    0    15.999    2.489489   -7.023288   -1.513140
  19 O     8.0000    0    15.999    3.372104   -4.076586   -5.409727
  20 O     8.0000    0    15.999    2.222825   -4.929866    5.330190
  21 O     8.0000    0    15.999    4.194906   -0.337969    5.930953
  22 O     8.0000    0    15.999    5.276877   -5.287926    1.425474
  23 O     8.0000    0    15.999    6.574040   -0.437320    1.838421
  24 O     8.0000    0    15.999   -6.859188    1.622283   -1.509932
  25 O     8.0000    0    15.999   -4.191299    5.840784   -2.066342
  26 O     8.0000    0    15.999   -4.571157   -0.656919   -5.015122
  27 O     8.0000    0    15.999   -2.300088    3.677016   -6.116359
  28 O     8.0000    0    15.999    1.959661    4.648164   -5.549871
  29 O     8.0000    0    15.999    4.407790    5.031777   -1.162709
  30 O     8.0000    0    15.999    3.951356    0.175970   -6.401952
  31 O     8.0000    0    15.999    6.763027    1.093227   -2.325059
  32 O     8.0000    0    15.999   -6.480937   -1.810841    1.280580
  33 O     8.0000    0    15.999   -5.008456    0.136171    5.662930
  34 O     8.0000    0    15.999   -3.909551   -5.686001    2.318448
  35 O     8.0000    0    15.999   -1.845274   -3.625141    6.406639
  36 C     6.0000    0    12.011   -4.192991    2.123082    6.862173
  37 C     6.0000    0    12.011   -4.402038    6.971637    0.105392
  38 C     6.0000    0    12.011    3.954586    2.072629    6.311434
  39 C     6.0000    0    12.011    3.521366    6.811309    0.279440
  40 C     6.0000    0    12.011   -3.642457   -6.866037    0.185957
  41 C     6.0000    0    12.011   -3.627679   -2.504093   -6.330956
  42 C     6.0000    0    12.011    4.476136   -7.074682   -0.063388
  43 C     6.0000    0    12.011    4.214571   -2.234539   -6.801046
  44 C     6.0000    0    12.011    0.219006   -4.912836    6.753114
  45 C     6.0000    0    12.011    7.709087    0.407943   -0.169169
  46 C     6.0000    0    12.011   -7.712560   -0.139752   -0.033434
  47 C     6.0000    0    12.011   -0.200320    4.809766   -6.715559
  48 H     1.0000    0     1.008   -4.689412   -3.016277   -8.013240
  49 H     1.0000    0     1.008    5.592434   -8.809453   -0.097044
  50 H     1.0000    0     1.008    5.034654    2.821809    7.889817
  51 H     1.0000    0     1.008   -5.492805    8.721719    0.123350
  52 H     1.0000    0     1.008    5.260179   -2.772392   -8.495172
  53 H     1.0000    0     1.008   -0.256354    6.028021   -8.379751
  54 H     1.0000    0     1.008    4.636934    8.535265    0.327772
  55 H     1.0000    0     1.008    9.750789    0.573758   -0.016475
  56 H     1.0000    0     1.008   -4.577344   -8.691427    0.075665
  57 H     1.0000    0     1.008   -9.759098   -0.248229    0.106101
  58 H     1.0000    0     1.008   -5.230385    2.658504    8.563326
  59 H     1.0000    0     1.008    0.275860   -6.115868    8.427172
  60 Al   13.0000    0    26.982   -9.572969   -5.124428   -4.252047
  61 H     1.0000    0     1.008   -6.970176   -4.667264   -2.801555
  62 H     1.0000    0     1.008  -12.011632   -3.761823   -3.113643
  63 H     1.0000    0     1.008   -9.367653   -5.480013   -7.240570
* core charge reduced due to ECP

--------------------------------
INTERNAL COORDINATES (ANGSTROEM)
--------------------------------
 Zr     0   0   0     0.000000000000     0.00000000     0.00000000
 Zr     1   0   0     5.217357913312     0.00000000     0.00000000
 Zr     2   1   0     3.409017361817    48.90703476     0.00000000
 Zr     1   2   3     3.434991471615    48.98785204   179.33978125
 Zr     4   1   2     3.408009551189    70.24853096   307.23778547
 Zr     1   2   3     3.408880647355    48.99965183   278.55461358
 O      1   2   3     2.104939619654    46.61262927   228.79409917
 O      2   1   3     2.106675229067    46.89122941   310.13666853
 O      3   2   1     2.106005751947    36.38100306    68.55771143
 O      4   1   2     2.107630954502    36.21626909   290.06362395
 O      5   4   1     2.104861159342    36.45486239   121.02231826
 O      6   1   2     2.106624654579    36.44500828    69.16417480
 O      1   2   3     1.981206609971   120.30288557   291.89074012
 O      1   2   3     1.983038926692   120.27118716   191.46174078
 O      1   2   3     2.068052018764   100.46354848    19.09586158
 O      1   2   3     2.034309558288   110.84409982    97.29236365
 O      2   1   3     2.063547428157   101.02330677    99.68753424
 O      2   1   3     2.033479507623   110.65333106   178.70955208
 O      2   1   3     1.983216982164   120.06117455    12.59886349
 O      2   1   3     1.982992157735   120.38951789   272.50498369
 O      3   2   1     1.982936927044   107.17617772   115.01027076
 O      3   2   1     2.034800153982   159.99984285   356.42749916
 O      3   2   1     1.980248386321    72.49991264   191.81491829
 O      3   2   1     2.067253822630   104.86568073   268.64902623
 O      4   1   2     2.034344325328    97.54592541   110.68256301
 O      4   1   2     1.982807516206    72.18933307   190.61552024
 O      4   1   2     2.063376159435   145.35743284    34.47478583
 O      4   1   2     1.982971915544   125.37422996   257.97152713
 O      5   4   1     1.981009998319    72.32565269   243.89906227
 O      5   4   1     2.068410033536   104.68698760   320.70291976
 O      5   4   1     1.981448477079   107.43764106   167.26707260
 O      5   4   1     2.034270105764   159.76070748    47.87080755
 O      6   1   2     2.063982463261   104.53399098   267.73406065
 O      6   1   2     1.982947924315    72.20180372   191.32901868
 O      6   1   2     2.033693043743   159.63006995   356.46656685
 O      6   1   2     1.982702206222   107.52434005   114.84380068
 C     13   1   2     1.301649661701   127.96875860   320.99539304
 C     26   4   1     1.300491895883   128.91136360   333.39423793
 C     22   3   2     1.297671888667   129.15088259   340.31492679
 C     16   1   2     1.297584087995   129.31109843   338.11260909
 C     35   6   1     1.297438738119   130.37182933   343.32499153
 C     18   2   1     1.297528444723   130.30036984   341.45235701
 C     23   3   2     1.301646570191   127.90180391   331.79580640
 C     20   2   1     1.300382999402   128.98825272   324.45949282
 C     36   6   1     1.300469196370   128.86533670   271.93998741
 C     32   5   4     1.297564568168   129.21077761   341.32209590
 C     25   4   1     1.297623519714   130.14938349   292.70036565
 C     29   5   4     1.301653669085   128.03339988   331.50092988
 H     42  18   2     1.087029365160   115.15203019   190.82540883
 H     43  23   3     1.091784412534   116.39212389   200.36328145
 H     39  22   3     1.086954961858   115.22883942   197.39014467
 H     38  26   4     1.091296490989   116.33037105   199.45497167
 H     44  20   2     1.091265978442   116.32414443   199.22721531
 H     48  29   5     1.091801482409   116.41642048   200.53452585
 H     40  16   1     1.086921823280   115.21701496   197.40383740
 H     46  32   5     1.086986329539   115.23253176   197.12637916
 H     41  35   6     1.086841067461   115.14300589   192.69811021
 H     47  25   4     1.087012335870   115.18652529   189.80766641
 H     37  13   1     1.091797330757   116.39820565   200.64273061
 H     45  36   6     1.091310367338   116.31243051   199.27851894
 Al    49  42  18     3.447377467827    89.73197939   112.21545582
 H     61  49  42     1.595226142990    65.25892414   345.70746553
 H     61  49  42     1.596303710651   132.66621267    89.94759884
 H     61  49  42     1.596315039075    54.20751945   188.21547911

---------------------------
INTERNAL COORDINATES (A.U.)
---------------------------
 Zr     0   0   0     0.000000000000     0.00000000     0.00000000
 Zr     1   0   0     9.859377598807     0.00000000     0.00000000
 Zr     2   1   0     6.442109199617    48.90703476     0.00000000
 Zr     1   2   3     6.491193153708    48.98785204   179.33978125
 Zr     4   1   2     6.440204713535    70.24853096   307.23778547
 Zr     1   2   3     6.441850846725    48.99965183   278.55461358
 O      1   2   3     3.977759409585    46.61262927   228.79409917
 O      2   1   3     3.981039236053    46.89122941   310.13666853
 O      3   2   1     3.979774107643    36.38100306    68.55771143
 O      4   1   2     3.982845295384    36.21626909   290.06362395
 O      5   4   1     3.977611141084    36.45486239   121.02231826
 O      6   1   2     3.980943664120    36.44500828    69.16417480
 O      1   2   3     3.743937907559   120.30288557   291.89074012
 O      1   2   3     3.747400484354   120.27118716   191.46174078
 O      1   2   3     3.908051946168   100.46354848    19.09586158
[...]
179:   1923.23   0.043138  218.00  0.007000  ( 0.071760  0.006513  0.042517)
180:   2881.53   0.009278   46.89  0.001005  (-0.001707  0.007521  0.030746)
181:   2882.67   0.026153  132.16  0.002831  ( 0.049541  0.005339  0.018663)
182:   2888.18   0.015914   80.42  0.001719  (-0.006145 -0.037205  0.017248)
183:   2888.55   0.031572  159.55  0.003411  ( 0.033626  0.045379  0.014864)
184:   2888.87   0.010539   53.26  0.001138  (-0.015189  0.013176  0.027095)
185:   2890.30   0.027423  138.58  0.002961  ( 0.048558  0.016262  0.018398)
186:   2906.11   0.018877   95.40  0.002027  (-0.025246  0.036824  0.005802)
187:   2906.30   0.015245   77.04  0.001637  ( 0.016814 -0.001122 -0.036782)
188:   2906.63   0.012064   60.97  0.001295  (-0.004832  0.024444 -0.025969)
189:   2908.31   0.041524  209.84  0.004456  ( 0.027659 -0.004952 -0.060547)
190:   2908.69   0.037939  191.73  0.004070  ( 0.025464 -0.054901  0.020193)
191:   2909.61   0.003123   15.78  0.000335  ( 0.012248 -0.013428 -0.002154)

* The epsilon (eps) is given for a Dirac delta lineshape.
** The dipole moment derivative (T) already includes vibrational overlap.

The first frequency considered to be a vibration is 7
The total number of vibrations considered is 185


--------------------------
THERMOCHEMISTRY AT 298.15K
--------------------------

Temperature         ...   298.15 K
Pressure            ...     1.00 atm
Total Mass          ...  1213.52 AMU
Quasi RRHO          ...     True
Cut-Off Frequency   ...     1.00 cm^-1

Throughout the following assumptions are being made:
  (1) The electronic state is orbitally nondegenerate
  (2) There are no thermally accessible electronically excited states
  (3) Hindered rotations indicated by low frequency modes are not
      treated as such but are treated as vibrations and this may
      cause some error
  (4) All equations used are the standard statistical mechanics
      equations for an ideal gas
  (5) All vibrations are strictly harmonic

freq.      30.92  E(vib)   ...       0.55 
freq.      40.95  E(vib)   ...       0.54 
freq.      45.04  E(vib)   ...       0.53 
freq.      47.07  E(vib)   ...       0.53 
freq.      58.51  E(vib)   ...       0.51 
freq.      64.12  E(vib)   ...       0.51 
freq.      66.65  E(vib)   ...       0.50 
freq.      76.24  E(vib)   ...       0.49 
freq.      79.69  E(vib)   ...       0.49 
freq.      80.26  E(vib)   ...       0.49 
freq.      95.51  E(vib)   ...       0.47 
freq.      95.63  E(vib)   ...       0.47 
freq.      96.37  E(vib)   ...       0.47 
freq.      98.05  E(vib)   ...       0.46 
freq.     103.88  E(vib)   ...       0.46 
freq.     107.37  E(vib)   ...       0.45 
freq.     108.07  E(vib)   ...       0.45 
freq.     109.42  E(vib)   ...       0.45 
freq.     112.08  E(vib)   ...       0.45 
freq.     114.23  E(vib)   ...       0.44 
freq.     121.25  E(vib)   ...       0.44 
freq.     130.11  E(vib)   ...       0.43 
freq.     130.99  E(vib)   ...       0.42 
freq.     140.67  E(vib)   ...       0.41 
freq.     150.11  E(vib)   ...       0.40 
freq.     150.27  E(vib)   ...       0.40 
freq.     151.58  E(vib)   ...       0.40 
freq.     152.97  E(vib)   ...       0.40 
freq.     156.22  E(vib)   ...       0.40 
freq.     157.29  E(vib)   ...       0.40 
freq.     159.05  E(vib)   ...       0.39 
freq.     164.05  E(vib)   ...       0.39 
freq.     166.60  E(vib)   ...       0.39 
freq.     168.86  E(vib)   ...       0.38 
freq.     169.21  E(vib)   ...       0.38 
freq.     172.92  E(vib)   ...       0.38 
freq.     173.71  E(vib)   ...       0.38 
freq.     185.51  E(vib)   ...       0.37 
freq.     186.01  E(vib)   ...       0.37 
freq.     189.49  E(vib)   ...       0.36 
freq.     194.04  E(vib)   ...       0.36 
freq.     195.90  E(vib)   ...       0.36 
freq.     196.54  E(vib)   ...       0.36 
freq.     202.41  E(vib)   ...       0.35 
freq.     208.01  E(vib)   ...       0.34 
freq.     210.51  E(vib)   ...       0.34 
freq.     211.23  E(vib)   ...       0.34 
freq.     220.95  E(vib)   ...       0.33 
freq.     226.48  E(vib)   ...       0.33 
freq.     230.09  E(vib)   ...       0.32 
freq.     232.80  E(vib)   ...       0.32 
freq.     235.69  E(vib)   ...       0.32 
freq.     244.12  E(vib)   ...       0.31 
freq.     260.09  E(vib)   ...       0.30 
freq.     261.26  E(vib)   ...       0.30 
freq.     263.41  E(vib)   ...       0.29 
freq.     263.52  E(vib)   ...       0.29 
freq.     264.95  E(vib)   ...       0.29 
freq.     266.24  E(vib)   ...       0.29 
freq.     270.18  E(vib)   ...       0.29 
freq.     272.29  E(vib)   ...       0.29 
freq.     273.39  E(vib)   ...       0.29 
freq.     275.31  E(vib)   ...       0.28 
freq.     277.62  E(vib)   ...       0.28 
freq.     278.15  E(vib)   ...       0.28 
freq.     281.80  E(vib)   ...       0.28 
freq.     283.59  E(vib)   ...       0.28 
freq.     289.86  E(vib)   ...       0.27 
freq.     291.02  E(vib)   ...       0.27 
freq.     293.83  E(vib)   ...       0.27 
freq.     295.62  E(vib)   ...       0.27 
freq.     298.75  E(vib)   ...       0.26 
freq.     299.16  E(vib)   ...       0.26 
freq.     308.71  E(vib)   ...       0.26 
freq.     311.64  E(vib)   ...       0.25 
freq.     312.09  E(vib)   ...       0.25 
freq.     314.86  E(vib)   ...       0.25 
freq.     316.99  E(vib)   ...       0.25 
freq.     318.04  E(vib)   ...       0.25 
freq.     322.92  E(vib)   ...       0.25 
freq.     324.34  E(vib)   ...       0.25 
freq.     326.20  E(vib)   ...       0.24 
freq.     340.73  E(vib)   ...       0.23 
freq.     341.75  E(vib)   ...       0.23 
freq.     352.89  E(vib)   ...       0.22 
freq.     353.60  E(vib)   ...       0.22 
freq.     365.31  E(vib)   ...       0.22 
freq.     370.01  E(vib)   ...       0.21 
freq.     385.47  E(vib)   ...       0.20 
freq.     394.73  E(vib)   ...       0.20 
freq.     402.27  E(vib)   ...       0.19 
freq.     403.23  E(vib)   ...       0.19 
freq.     403.82  E(vib)   ...       0.19 
freq.     416.18  E(vib)   ...       0.18 
freq.     416.99  E(vib)   ...       0.18 
freq.     419.86  E(vib)   ...       0.18 
freq.     420.95  E(vib)   ...       0.18 
freq.     467.50  E(vib)   ...       0.16 
freq.     476.51  E(vib)   ...       0.15 
freq.     477.51  E(vib)   ...       0.15 
freq.     527.50  E(vib)   ...       0.13 
freq.     539.01  E(vib)   ...       0.12 
freq.     618.60  E(vib)   ...       0.09 
freq.     670.65  E(vib)   ...       0.08 
freq.     672.95  E(vib)   ...       0.08 
freq.     677.76  E(vib)   ...       0.08 
freq.     681.94  E(vib)   ...       0.08 
freq.     682.66  E(vib)   ...       0.08 
freq.     734.59  E(vib)   ...       0.06 
freq.     735.67  E(vib)   ...       0.06 
freq.     736.92  E(vib)   ...       0.06 
freq.     737.01  E(vib)   ...       0.06 
freq.     737.51  E(vib)   ...       0.06 
freq.     739.54  E(vib)   ...       0.06 
freq.     739.63  E(vib)   ...       0.06 
freq.     739.79  E(vib)   ...       0.06 
freq.     740.54  E(vib)   ...       0.06 
freq.     740.65  E(vib)   ...       0.06 
freq.     741.31  E(vib)   ...       0.06 
freq.     741.89  E(vib)   ...       0.06 
freq.     751.20  E(vib)   ...       0.06 
freq.     759.42  E(vib)   ...       0.06 
freq.     999.24  E(vib)   ...       0.02 
freq.    1000.14  E(vib)   ...       0.02 
freq.    1000.31  E(vib)   ...       0.02 
freq.    1000.34  E(vib)   ...       0.02 
freq.    1001.41  E(vib)   ...       0.02 
freq.    1001.90  E(vib)   ...       0.02 
freq.    1003.65  E(vib)   ...       0.02 
freq.    1004.01  E(vib)   ...       0.02 
freq.    1004.14  E(vib)   ...       0.02 
freq.    1004.88  E(vib)   ...       0.02 
freq.    1005.15  E(vib)   ...       0.02 
freq.    1005.38  E(vib)   ...       0.02 
freq.    1344.54  E(vib)   ...       0.01 
freq.    1347.76  E(vib)   ...       0.01 
freq.    1348.25  E(vib)   ...       0.01 
freq.    1348.59  E(vib)   ...       0.01 
freq.    1351.02  E(vib)   ...       0.01 
freq.    1351.52  E(vib)   ...       0.01 
freq.    1352.29  E(vib)   ...       0.01 
freq.    1352.76  E(vib)   ...       0.01 
freq.    1353.64  E(vib)   ...       0.01 
freq.    1353.78  E(vib)   ...       0.01 
freq.    1353.94  E(vib)   ...       0.01 
freq.    1354.54  E(vib)   ...       0.01 
freq.    1362.07  E(vib)   ...       0.01 
freq.    1362.17  E(vib)   ...       0.01 
freq.    1362.73  E(vib)   ...       0.01 
freq.    1363.80  E(vib)   ...       0.01 
freq.    1365.67  E(vib)   ...       0.01 
freq.    1366.82  E(vib)   ...       0.01 
freq.    1369.78  E(vib)   ...       0.01 
freq.    1371.46  E(vib)   ...       0.01 
freq.    1371.88  E(vib)   ...       0.01 
freq.    1375.76  E(vib)   ...       0.01 
freq.    1376.12  E(vib)   ...       0.01 
freq.    1383.75  E(vib)   ...       0.00 
freq.    1544.28  E(vib)   ...       0.00 
freq.    1554.31  E(vib)   ...       0.00 
freq.    1565.15  E(vib)   ...       0.00 
freq.    1565.24  E(vib)   ...       0.00 
freq.    1571.06  E(vib)   ...       0.00 
freq.    1577.94  E(vib)   ...       0.00 
freq.    1578.36  E(vib)   ...       0.00 
freq.    1630.76  E(vib)   ...       0.00 
freq.    1632.12  E(vib)   ...       0.00 
freq.    1637.59  E(vib)   ...       0.00 
freq.    1638.28  E(vib)   ...       0.00 
freq.    1638.90  E(vib)   ...       0.00 
freq.    1846.20  E(vib)   ...       0.00 
freq.    1860.67  E(vib)   ...       0.00 
freq.    1923.23  E(vib)   ...       0.00 
freq.    2881.53  E(vib)   ...       0.00 
freq.    2882.67  E(vib)   ...       0.00 
freq.    2888.18  E(vib)   ...       0.00 
freq.    2888.55  E(vib)   ...       0.00 
freq.    2888.87  E(vib)   ...       0.00 
freq.    2890.30  E(vib)   ...       0.00 
freq.    2906.11  E(vib)   ...       0.00 
freq.    2906.30  E(vib)   ...       0.00 
freq.    2906.63  E(vib)   ...       0.00 
freq.    2908.31  E(vib)   ...       0.00 
freq.    2908.69  E(vib)   ...       0.00 
freq.    2909.61  E(vib)   ...       0.00 

------------
INNER ENERGY
------------

The inner energy is: U= E(el) + E(ZPE) + E(vib) + E(rot) + E(trans)
    E(el)   - is the total energy from the electronic structure calculation
              = E(kin-el) + E(nuc-el) + E(el-el) + E(nuc-nuc)
    E(ZPE)  - the the zero temperature vibrational energy from the frequency calculation
    E(vib)  - the the finite temperature correction to E(ZPE) due to population
              of excited vibrational states
    E(rot)  - is the rotational thermal energy
    E(trans)- is the translational thermal energy

Summary of contributions to the inner energy U:
Electronic energy                ...  -3244.51371426 Eh
Zero point energy                ...      0.32553337 Eh     204.27 kcal/mol
Thermal vibrational correction   ...      0.05636386 Eh      35.37 kcal/mol
Thermal rotational correction    ...      0.00141627 Eh       0.89 kcal/mol
Thermal translational correction ...      0.00141627 Eh       0.89 kcal/mol
-----------------------------------------------------------------------
Total thermal energy                  -3244.12898448 Eh


Summary of corrections to the electronic energy:
(perhaps to be used in another calculation)
Total thermal correction                  0.05919640 Eh      37.15 kcal/mol
Non-thermal (ZPE) correction              0.32553337 Eh     204.27 kcal/mol
-----------------------------------------------------------------------
Total correction                          0.38472977 Eh     241.42 kcal/mol


--------
ENTHALPY
--------

The enthalpy is H = U + kB*T
                kB is Boltzmann's constant
Total thermal energy              ...  -3244.12898448 Eh 
Thermal Enthalpy correction       ...      0.00094421 Eh       0.59 kcal/mol
-----------------------------------------------------------------------
Total Enthalpy                    ...  -3244.12804027 Eh


Note: Only C1 symmetry has been detected, increase convergence thresholds 
      if your molecule has a higher symmetry. Symmetry factor of 1.0 is   
      used for the rotational entropy correction. 
 

Note: Rotational entropy computed according to Herzberg 
Infrared and Raman Spectra, Chapter V,1, Van Nostrand Reinhold, 1945 
Point Group:  C1, Symmetry Number:   1  
Rotational constants in cm-1:     0.001789     0.001642     0.001636 

Vibrational entropy computed according to the QRRHO of S. Grimme
Chem.Eur.J. 2012 18 9955 using a reference frequency of 100.0 cm-1


-------
ENTROPY
-------

The entropy contributions are T*S = T*(S(el)+S(vib)+S(rot)+S(trans))
     S(el)   - electronic entropy
     S(vib)  - vibrational entropy
     S(rot)  - rotational entropy
     S(trans)- translational entropy
The entropies will be listed as multiplied by the temperature to get
units of energy

Electronic entropy                ...      0.00000000 Eh      0.00 kcal/mol
Vibrational entropy               ...      0.10111667 Eh     63.45 kcal/mol
Rotational entropy                ...      0.01855326 Eh     11.64 kcal/mol
Translational entropy             ...      0.02240642 Eh     14.06 kcal/mol
-----------------------------------------------------------------------
Final entropy term                ...      0.14207635 Eh     89.15 kcal/mol

In case the symmetry of your molecule has not been determined correctly
or in case you have a reason to use a different symmetry number we print 
out the resulting rotational entropy values for sn=1,12:

 non-linear molecules -----------------------------------
|  sn= 1 | S(rot)=       0.01855326 Eh     11.64 kcal/mol|
|  sn= 2 | S(rot)=       0.01789881 Eh     11.23 kcal/mol|
|  sn= 3 | S(rot)=       0.01751597 Eh     10.99 kcal/mol|
|  sn= 4 | S(rot)=       0.01724435 Eh     10.82 kcal/mol|
|  sn= 5 | S(rot)=       0.01703366 Eh     10.69 kcal/mol|
|  sn= 6 | S(rot)=       0.01686152 Eh     10.58 kcal/mol|
|  sn= 7 | S(rot)=       0.01671597 Eh     10.49 kcal/mol|
|  sn= 8 | S(rot)=       0.01658989 Eh     10.41 kcal/mol|
|  sn= 9 | S(rot)=       0.01647869 Eh     10.34 kcal/mol|
|  sn=10 | S(rot)=       0.01637921 Eh     10.28 kcal/mol|
|  sn=11 | S(rot)=       0.01628922 Eh     10.22 kcal/mol|
|  sn=12 | S(rot)=       0.01620706 Eh     10.17 kcal/mol|
 linear molecules ---------------------------------------
|  Dinfh | S(rot)=       0.01138345 Eh      7.14 kcal/mol|
|  Cinfv | S(rot)=       0.01203791 Eh      7.55 kcal/mol|
 --------------------------------------------------------


-------------------
GIBBS FREE ENERGY
-------------------

The Gibbs free energy is G = H - T*S

Total enthalpy                    ...  -3244.12804027 Eh 
Total entropy correction          ...     -0.14207635 Eh    -89.15 kcal/mol
-----------------------------------------------------------------------
Final Gibbs free energy         ...  -3244.27011662 Eh

For completeness - the Gibbs free energy minus the electronic energy
G-E(el)                           ...      0.24359763 Eh    152.86 kcal/mol


Maximum memory used throughout the entire PROP-calculation: 131.3 MB

--------------------------------
SUGGESTED CITATIONS FOR THIS RUN
--------------------------------

Below you find a list of papers that are relevant to this ORCA run
We neither can nor want to force you to cite these papers, but we appreciate if you do
You receive ORCA, which is the product of decades of hard work by many enthusiastic individuals, for free
The only thing we kindly ask in return is that you cite our papers,
We deeply appreciate it, if you show your appreciation for ORCA by not just citing the generic ORCA reference.

Please note that relegating all ORCA citations to the supporting information does *not* help us.
SI sections are not indexed - citations you put there will not count into any citation statistics
But we need these citations in order to attract the funding resources that allow us to do what we are doing

Therefore, if you are a happy ORCA user, please consider citing a few of the papers listed below in the main body of your paper

In addition to the list printed below, the program has created the file run.bibtex that contains the list in bibtex format
You can import this file easily into all common literature databanks and citation aid programs


List of essential papers. We consider these as the minimum necessary citations

  1. Neese, F.
     Software update: the ORCA program system, version 6.0
     WIRES Comput. Molec. Sci. 2025 15(1), e70019
     doi.org/10.1002/wcms.7019

List of papers to cite with high priority. The work reported in these papers was absolutely
necessary for this run to complete.
Our perspective: the developers of density functionals and basis sets usually get cited in chemistry papers
Good! But without the algorithms to do something with them, the functionals or basis sets would not do anything.
Hence, in our opinion, the algorithm design and method developments papers are equally worthy of getting cited

  1. Neese, F.
     An improvement of the resolution of the identity approximation for the formation of the Coulomb matrix
     J. Comp. Chem. 2003 24(14), 1740-1747
     doi.org/10.1002/jcc.10318
  2. Grimme, S.; Antony, J.; Ehrlich, S.; Krieg, H.
     A consistent and accurate ab initio parametrization of density functional dispersion correction (DFT-D) for the 94 elements H-Pu
     J. Chem. Phys. 2010 132 , 154104
     doi.org/10.1063/1.3382344
  3. Grimme, S.; Ehrlich, S.; Goerigk, L.
     Effect of the damping function in dispersion corrected density functional theory
     J. Comput. Chem. 2011 32(7), 1456-1465
     doi.org/10.1002/jcc.21759
  4. Bykov, D.; Petrenko, T.; Izsak, R.; Kossmann, S.; Becker, U.; Valeev, E.; Neese, F.
     Efficient implementation of the analytic second derivatives of Hartree-Fock and hybrid DFT energies: a detailed analysis of different approximations
     Molec. Phys. 2015 113 , 1961-1977
     doi.org/10.1080/00268976.2015.1025114
  5. Helmich-Paris, B.
     A trust-region augmented Hessian implementation for restricted and unrestricted Hartree–Fock and Kohn–Sham methods
     J. Chem. Phys. 2021 154 , 164104
     doi.org/10.1063/5.0040798
  6. Neese, F.
     The SHARK Integral Generation and Digestion System
     J. Comp. Chem. 2022 44(3), 381
     doi.org/10.1002/jcc.26942

List of suggested additional citations. These are papers that are important in the 'surrounding' of 
of this run, or papers that preceded the highly important papers. If you like your results we are grateful for a citation.

  1. Neese, F.
     The ORCA program system
     WIRES Comput. Molec. Sci. 2012 2(1), 73-78
     doi.org/10.1002/wcms.81
  2. Neese, F.
     Software update: the ORCA program system, version 4.0
     WIRES Comput. Molec. Sci. 2018 8(1), 1-6
     doi.org/10.1002/wcms.1327
  3. Neese, F.; Wennmohs, F.; Becker, U.; Riplinger, C.
     The ORCA quantum chemistry program package
     J. Chem. Phys. 2020 152(22), 224108
     doi.org/10.1063/5.0004608
  4. Neese, F.
     Software update: The ORCA program system—Version 5.0
     WIRES Comput. Molec. Sci. 2022 12(1), e1606
     doi.org/10.1002/wcms.1606

List of optional additional citations

  1. Neese, F.
     Approximate second-order SCF convergence for spin unrestricted wavefunctions
     Chem. Phys. Lett. 2000 325(1-3), 93-98
     doi.org/10.1016/s0009-2614(00)00662-x

Timings for individual modules:

Sum of individual times          ...     6270.409 sec (= 104.507 min)
Startup calculation              ...      234.971 sec (=   3.916 min)   3.7 %
SCF iterations                   ...     1580.386 sec (=  26.340 min)  25.2 %
Property integrals               ...     1502.578 sec (=  25.043 min)  24.0 %
SCF Response                     ...      993.685 sec (=  16.561 min)  15.8 %
Property calculations            ...     1413.755 sec (=  23.563 min)  22.5 %
SCF Gradient evaluation          ...      536.485 sec (=   8.941 min)   8.6 %
Geometry relaxation              ...        8.550 sec (=   0.142 min)   0.1 %
                             ****ORCA TERMINATED NORMALLY****
TOTAL RUN TIME: 0 days 1 hours 44 minutes 45 seconds 990 msec
