
     Program PWSCF v.7.3.1 starts on  4Jun2025 at  8:14: 5 

     This program is part of the open-source Quantum ESPRESSO suite
     for quantum simulation of materials; please cite
         "P. Giannozzi et al., J. Phys.:Condens. Matter 21 395502 (2009);
         "P. Giannozzi et al., J. Phys.:Condens. Matter 29 465901 (2017);
         "P. Giannozzi et al., J. Chem. Phys. 152 154105 (2020);
          URL http://www.quantum-espresso.org", 
     in publications or presentations arising from this work. More details at
     http://www.quantum-espresso.org/quote

     Parallel version (MPI), running on   256 processors

     MPI processes distributed on     1 nodes
     1532554 MiB available memory on the printing compute node when the environment starts

     Waiting for input...
     Reading input from standard input

     Current dimensions of program PWSCF are:
     Max number of different atomic species (ntypx) = 10
     Max number of k-points (npk) =  40000
     Max angular momentum in pseudopotentials (lmaxx) =  4
     file H.pbe-kjpaw_psl.1.0.0.UPF: wavefunction(s)  1S renormalized
     file Zr.pbe-spn-kjpaw_psl.1.0.0.UPF: wavefunction(s)  4S 4P renormalized
     file C.pbe-n-kjpaw_psl.1.0.0.UPF: wavefunction(s)  2S 2P renormalized
     file O.pbe-n-kjpaw_psl.1.0.0.UPF: wavefunction(s)  2S 2P renormalized

     IMPORTANT: XC functional enforced from input :
     Exchange-correlation= PBE
                           (   1   4   3   4   0   0   0)
     Any further DFT definition will be discarded
     Please, verify this is what you really want


     gamma-point specific algorithms are used
     Message from routine setup:
     using ibrav=0 with symmetry is DISCOURAGED, use correct ibrav instead

     R & G space division:  proc/nbgrp/npool/nimage =     256
     WARNING: too many processors for an effective parallelization!
     wavefunctions fft division:  task group distribution
                                  #TG    x Z-proc =       8     32
     Subspace diagonalization in iterative solution of the eigenvalue problem:
     one sub-group per band group will be used
     custom distributed-memory algorithm (size of sub-group:  2*  2 procs)


     Parallelization info
     --------------------
     sticks:   dense  smooth     PW     G-vecs:    dense   smooth      PW
     Min         124      82     20                14820     8066    1002
     Max         126      84     22                14836     8088    1020
     Sum       31815   21235   5303              3796127  2066895  258275

     Using Pencil Decomposition


     Title: 
     UiO-66-dehydrox GeomOpt                                                    


     bravais-lattice index     =            0
     lattice parameter (alat)  =      27.5901  a.u.
     unit-cell volume          =   15298.4621 (a.u.)^3
     number of atoms/cell      =          108
     number of atomic types    =            4
     number of electrons       =       468.00
     number of Kohn-Sham states=          234
     kinetic-energy cutoff     =     100.0000  Ry
     charge density cutoff     =     600.0000  Ry
     scf convergence threshold =      1.0E-08
     mixing beta               =       0.7000
     number of iterations used =            8  plain     mixing
     energy convergence thresh.=      3.6E-06
     force convergence thresh. =      1.0E-05
     press convergence thresh. =      5.0E-01
     Exchange-correlation= PBE
                           (   1   4   3   4   0   0   0)
     nstep                     =          750


     celldm(1)=  27.590096  celldm(2)=   0.000000  celldm(3)=   0.000000
     celldm(4)=   0.000000  celldm(5)=   0.000000  celldm(6)=   0.000000

     crystal axes: (cart. coord. in units of alat)
               a(1) = (   0.997642   0.000087   0.000062 )  
               a(2) = (   0.473331   0.878208   0.000062 )  
               a(3) = (   0.473331   0.282619   0.831491 )  

     reciprocal axes: (cart. coord. in units 2 pi/alat)
               b(1) = (  1.002435 -0.540258 -0.387011 )  
               b(2) = ( -0.000075  1.138750 -0.387012 )  
               b(3) = ( -0.000075 -0.000045  1.202717 )  


     PseudoPot. # 1 for H  read from file:
     /home/mehlhorn/pseudos/UiO-66_pbe-spn-kjpaw/H.pbe-kjpaw_psl.1.0.0.UPF
     MD5 check sum: d81a744832360e4a8af0b0b5b123bc2a
     Pseudo is Projector augmented-wave, Zval =  1.0
     Generated using &quot;atomic&quot; code by A. Dal Corso  v.6.3MaX
     Shape of augmentation charge: PSQ
     Using radial grid of  929 points,  2 beta functions with: 
                l(1) =   0
                l(2) =   0
     Q(r) pseudized with 0 coefficients 


     PseudoPot. # 2 for Zr read from file:
     /home/mehlhorn/pseudos/UiO-66_pbe-spn-kjpaw/Zr.pbe-spn-kjpaw_psl.1.0.0.UPF
     MD5 check sum: 02112c41713a0468aff2bb39ef194e36
     Pseudo is Projector augmented-wave + core cor, Zval = 12.0
     Generated using &quot;atomic&quot; code by A. Dal Corso  v.6.2.2
     Shape of augmentation charge: PSQ
     Using radial grid of 1225 points,  6 beta functions with: 
                l(1) =   0
                l(2) =   0
                l(3) =   1
                l(4) =   1
                l(5) =   2
                l(6) =   2
     Q(r) pseudized with 0 coefficients 


     PseudoPot. # 3 for C  read from file:
     /home/mehlhorn/pseudos/UiO-66_pbe-spn-kjpaw/C.pbe-n-kjpaw_psl.1.0.0.UPF
     MD5 check sum: 5f16ad9a65e90284d1d834d4ab3b0f7d
     Pseudo is Projector augmented-wave + core cor, Zval =  4.0
     Generated using &quot;atomic&quot; code by A. Dal Corso  v.6.3
     Shape of augmentation charge: PSQ
     Using radial grid of 1073 points,  4 beta functions with: 
                l(1) =   0
                l(2) =   0
                l(3) =   1
                l(4) =   1
     Q(r) pseudized with 0 coefficients 


     PseudoPot. # 4 for O  read from file:
     /home/mehlhorn/pseudos/UiO-66_pbe-spn-kjpaw/O.pbe-n-kjpaw_psl.1.0.0.UPF
     MD5 check sum: e99d9cef9b487d1ca56f5b95ecd0fd7a
     Pseudo is Projector augmented-wave + core cor, Zval =  6.0
     Generated using &quot;atomic&quot; code by A. Dal Corso  v.6.3
     Shape of augmentation charge: PSQ
     Using radial grid of 1095 points,  4 beta functions with: 
                l(1) =   0
                l(2) =   0
                l(3) =   1
                l(4) =   1
     Q(r) pseudized with 0 coefficients 


     atomic species   valence    mass     pseudopotential
     H                 1.00     1.00750     H ( 1.00)
     Zr               12.00    91.22400     Zr( 1.00)
     C                 4.00    12.01060     C ( 1.00)
     O                 6.00    15.99900     O ( 1.00)

      2 Sym. Ops., with inversion, found



   Cartesian axes

     site n.     atom                  positions (alat units)
         1        Zr     tau(   1) = (   0.9851018   0.1390969   0.1016593  )
         2        Zr     tau(   2) = (   0.9592011   1.0218154   0.7299553  )
         3        Zr     tau(   3) = (   0.5914383   0.8003192   0.0989921  )
         4        Zr     tau(   4) = (   1.3528646   0.3605937   0.7326217  )
         5        Zr     tau(   5) = (   0.5897545   0.3540447   0.7259131  )
         6        Zr     tau(   6) = (   1.3545479   0.8068685   0.1057015  )
         7        O      tau(   7) = (   1.0813101   0.2536819   0.0705312  )
         8        O      tau(   8) = (   0.8629933   0.9072313   0.7610834  )
         9        O      tau(   9) = (   0.6435861   0.8815048   0.2175001  )
        10        O      tau(  10) = (   1.3007173   0.2794084   0.6141145  )
        11        O      tau(  11) = (   0.7362658   0.3343331   0.7646523  )
        12        O      tau(  12) = (   1.2080376   0.8265801   0.0669623  )
        13        O      tau(  13) = (   1.2129379   0.3069142   0.7631490  )
        14        O      tau(  14) = (   0.7313655   0.8539990   0.0684656  )
        15        O      tau(  15) = (   1.2984098   0.6781686   0.0450558  )
        16        O      tau(  16) = (   0.6458936   0.4827446   0.7865588  )
        17        O      tau(  17) = (   0.8455690   1.0192797   0.6276114  )
        18        O      tau(  18) = (   1.0987343   0.1416336   0.2040032  )
        19        O      tau(  19) = (   1.0496388   1.0173777   0.6102290  )
        20        O      tau(  20) = (   0.8946646   0.1435355   0.2213856  )
        21        O      tau(  21) = (   1.2947158   0.4946601   0.7669425  )
        22        O      tau(  22) = (   0.6495875   0.6662531   0.0646721  )
        23        O      tau(  23) = (   1.3935433   0.7198012   0.2215967  )
        24        O      tau(  24) = (   0.5507601   0.4411120   0.6100179  )
        25        O      tau(  25) = (   0.5500568   0.7116447   0.2154460  )
        26        O      tau(  26) = (   1.3942466   0.4492685   0.6161686  )
        27        O      tau(  27) = (   0.6420736   0.2788428   0.6044852  )
        28        O      tau(  28) = (   1.3022298   0.8820704   0.2271294  )
        29        O      tau(  29) = (   0.8874086   0.2511721   0.0695253  )
        30        O      tau(  30) = (   1.0568948   0.9097412   0.7620893  )
        31        O      tau(  31) = (   0.8779266   0.0527475   0.0396758  )
        32        O      tau(  32) = (   1.0663768   1.1081657   0.7919388  )
        33        O      tau(  33) = (   0.4644754   0.7469889   0.0371773  )
        34        O      tau(  34) = (   1.4798280   0.4139243   0.7944373  )
        35        O      tau(  35) = (   0.4628985   0.2781802   0.6953083  )
        36        O      tau(  36) = (   1.4814049   0.8827330   0.1363062  )
        37        C      tau(  37) = (   1.3136567   0.9631137   0.2571892  )
        38        C      tau(  38) = (   0.6306467   0.1977995   0.5744254  )
        39        C      tau(  39) = (   1.1103247   0.8939305   0.8291503  )
        40        C      tau(  40) = (   0.8339786   0.2669827   0.0024643  )
        41        C      tau(  41) = (   1.4710132   0.4685971   0.5796208  )
        42        C      tau(  42) = (   0.4732901   0.6923161   0.2519937  )
        43        C      tau(  43) = (   0.8010212   0.8977785   0.8217204  )
        44        C      tau(  44) = (   1.1432822   0.2631347   0.0098941  )
        45        C      tau(  45) = (   1.3191843   0.1990592   0.5856550  )
        46        C      tau(  46) = (   0.6251191   0.9618540   0.2459596  )
        47        C      tau(  47) = (   1.1703180   0.8678827   0.0000415  )
        48        C      tau(  48) = (   0.7739854   0.2930305   0.8315731  )
        49        C      tau(  49) = (   1.1899776   0.3542054   0.0042454  )
        50        C      tau(  50) = (   0.7543257   0.8067079   0.8273692  )
        51        C      tau(  51) = (   0.6683575   0.9915969   0.3340054  )
        52        C      tau(  52) = (   1.2759459   0.1693163   0.4976092  )
        53        C      tau(  53) = (   0.8763083   0.2870094   0.8314054  )
        54        C      tau(  54) = (   1.0679951   0.8739039   0.0002092  )
        55        C      tau(  55) = (   0.6844868   0.1687764   0.4922590  )
        56        C      tau(  56) = (   1.2598166   0.9921369   0.3393556  )
        57        C      tau(  57) = (   0.7828110   0.3557143   0.0014204  )
        58        C      tau(  58) = (   1.1614924   0.8051989   0.8301942  )
        59        C      tau(  59) = (   0.4732821   0.6341984   0.3363424  )
        60        C      tau(  60) = (   1.4710213   0.5267149   0.4952722  )
        61        C      tau(  61) = (   1.1608276   0.4267644   0.0601268  )
        62        C      tau(  62) = (   0.7834758   0.7341489   0.7714878  )
        63        C      tau(  63) = (   0.7216572   0.9297638   0.3847267  )
        64        C      tau(  64) = (   1.2226462   0.2311494   0.4468879  )
        65        C      tau(  65) = (   0.9263550   0.3205858   0.7565405  )
        66        C      tau(  66) = (   1.0179483   0.8403275   0.0750740  )
        67        C      tau(  67) = (   1.0214926   0.3162079   0.7565880  )
        68        C      tau(  68) = (   0.9228108   0.8447053   0.0750266  )
        69        C      tau(  69) = (   1.2047581   0.5111615   0.0559655  )
        70        C      tau(  70) = (   0.7395453   0.6497517   0.7756491  )
        71        C      tau(  71) = (   0.7629338   0.9574236   0.4659755  )
        72        C      tau(  72) = (   1.1813695   0.2034896   0.3656391  )
        73        C      tau(  73) = (   1.1495853   0.9574744   0.4583216  )
        74        C      tau(  74) = (   0.7947180   0.2034388   0.3732930  )
        75        C      tau(  75) = (   1.1985448   0.6600170   0.7590984  )
        76        C      tau(  76) = (   0.7457585   0.5008962   0.0725162  )
        77        C      tau(  77) = (   1.3882184   0.6134241   0.3806843  )
        78        C      tau(  78) = (   0.5560850   0.5474892   0.4509303  )
        79        C      tau(  79) = (   0.5560335   0.6009034   0.3720600  )
        80        C      tau(  80) = (   1.3882698   0.5600098   0.4595546  )
        81        C      tau(  81) = (   0.7440836   0.2306663   0.4492426  )
        82        C      tau(  82) = (   1.2002198   0.9302469   0.3823720  )
        83        C      tau(  83) = (   0.7927565   0.4180521   0.0738589  )
        84        C      tau(  84) = (   1.1515469   0.7428611   0.7577557  )
        85        H      tau(  85) = (   1.1915033   0.6110768   0.7032409  )
        86        H      tau(  86) = (   0.7528001   0.5498364   0.1283737  )
        87        H      tau(  87) = (   1.3244590   0.6397832   0.3523175  )
        88        H      tau(  88) = (   0.6198444   0.5211301   0.4792971  )
        89        H      tau(  89) = (   1.1031610   0.9100616   0.4924056  )
        90        H      tau(  90) = (   0.8411424   0.2508516   0.3392090  )
        91        H      tau(  91) = (   0.8377109   0.4003936   0.1307198  )
        92        H      tau(  92) = (   1.1065925   0.7605196   0.7008948  )
        93        H      tau(  93) = (   0.6197524   0.6176342   0.3370461  )
        94        H      tau(  94) = (   1.3245509   0.5432790   0.4945685  )
        95        H      tau(  95) = (   0.7498631   0.2999314   0.4763503  )
        96        H      tau(  96) = (   1.1944402   0.8609818   0.3552643  )
        97        H      tau(  97) = (   0.7299019   0.8600999   0.3593414  )
        98        H      tau(  98) = (   1.2144015   0.3008133   0.4722732  )
        99        H      tau(  99) = (   0.8893757   0.3498776   0.6987484  )
       100        H      tau( 100) = (   1.0549277   0.8110356   0.1328662  )
       101        H      tau( 101) = (   1.1034130   0.4156953   0.1064558  )
       102        H      tau( 102) = (   0.8408904   0.7452179   0.7251588  )
       103        H      tau( 103) = (   0.8040115   0.9099254   0.5062599  )
       104        H      tau( 104) = (   1.1402919   0.2509879   0.3253547  )
       105        H      tau( 105) = (   1.0611027   0.3415250   0.6986541  )
       106        H      tau( 106) = (   0.8832007   0.8193882   0.1329604  )
       107        H      tau( 107) = (   1.1824302   0.5681885   0.0985782  )
       108        H      tau( 108) = (   0.7618732   0.5927247   0.7330364  )

     number of k points=     1
                       cart. coord. in units 2pi/alat
        k(    1) = (   0.0000000   0.0000000   0.0000000), wk =   2.0000000

     Dense  grid:  1898064 G-vectors     FFT dimensions: ( 216, 216, 216)

     Smooth grid:  1033448 G-vectors     FFT dimensions: ( 180, 180, 180)

     Estimated max dynamical RAM per process >      67.81 MB

     Estimated total dynamical RAM >      16.95 GB

     Initial potential from superposition of free atoms

     starting charge     467.9848, renormalised to     468.0000

     negative rho (up, down):  4.783E-06 0.000E+00
     Starting wfcs are  414 randomized atomic wfcs
     Checking if some PAW data can be deallocated... 

     total cpu time spent up to now is        7.3 secs

     Self-consistent Calculation

     iteration #  1     ecut=   100.00 Ry     beta= 0.70
     Davidson diagonalization with overlap
     ethr =  1.00E-02,  avg # of iterations =  2.0

     total cpu time spent up to now is       13.9 secs

     total energy              =   -4001.18178940 Ry
     estimated scf accuracy    <      17.24777406 Ry

     iteration #  2     ecut=   100.00 Ry     beta= 0.70
     Davidson diagonalization with overlap
     ethr =  3.69E-03,  avg # of iterations = 11.0

     total cpu time spent up to now is       24.2 secs

     total energy              =   -4003.99460047 Ry
     estimated scf accuracy    <      20.85701746 Ry

     iteration #  3     ecut=   100.00 Ry     beta= 0.70
     Davidson diagonalization with overlap
     ethr =  3.69E-03,  avg # of iterations =  8.0

     negative rho (up, down):  8.964E-08 0.000E+00

     total cpu time spent up to now is       31.8 secs

     total energy              =   -4008.19770877 Ry
     estimated scf accuracy    <       4.00756079 Ry

     iteration #  4     ecut=   100.00 Ry     beta= 0.70
     Davidson diagonalization with overlap
     ethr =  8.56E-04,  avg # of iterations =  6.0

     negative rho (up, down):  2.403E-05 0.000E+00

     total cpu time spent up to now is       37.6 secs

     total energy              =   -4008.21444635 Ry
     estimated scf accuracy    <       0.79705845 Ry

     iteration #  5     ecut=   100.00 Ry     beta= 0.70
     Davidson diagonalization with overlap
     ethr =  1.70E-04,  avg # of iterations = 15.0

     negative rho (up, down):  2.987E-05 0.000E+00

     total cpu time spent up to now is       50.5 secs

     total energy              =   -4009.24211220 Ry
     estimated scf accuracy    <       2.44611205 Ry

     iteration #  6     ecut=   100.00 Ry     beta= 0.70
     Davidson diagonalization with overlap
     ethr =  1.70E-04,  avg # of iterations =  2.0

     negative rho (up, down):  5.192E-05 0.000E+00

     total cpu time spent up to now is       55.4 secs

     total energy              =   -4008.52507519 Ry
     estimated scf accuracy    <       1.52147177 Ry

     iteration #  7     ecut=   100.00 Ry     beta= 0.70
     Davidson diagonalization with overlap
     ethr =  1.70E-04,  avg # of iterations =  9.0

     negative rho (up, down):  5.624E-05 0.000E+00

     total cpu time spent up to now is       65.9 secs

     total energy              =   -4009.19808961 Ry
     estimated scf accuracy    <       0.39164777 Ry

     iteration #  8     ecut=   100.00 Ry     beta= 0.70
     Davidson diagonalization with overlap
     ethr =  8.37E-05,  avg # of iterations =  2.0

     negative rho (up, down):  7.808E-05 0.000E+00

     total cpu time spent up to now is       71.0 secs

     total energy              =   -4009.10081097 Ry
     estimated scf accuracy    <       0.28502541 Ry

     iteration #  9     ecut=   100.00 Ry     beta= 0.70
     Davidson diagonalization with overlap
     ethr =  6.09E-05,  avg # of iterations =  8.0

     negative rho (up, down):  7.848E-05 0.000E+00

     total cpu time spent up to now is       77.4 secs

     total energy              =   -4009.16819459 Ry
     estimated scf accuracy    <       0.01482479 Ry

     iteration # 10     ecut=   100.00 Ry     beta= 0.70
     Davidson diagonalization with overlap
     ethr =  3.17E-06,  avg # of iterations =  9.0

     negative rho (up, down):  8.083E-05 0.000E+00

     total cpu time spent up to now is       86.4 secs

     total energy              =   -4009.17487429 Ry
     estimated scf accuracy    <       0.00853690 Ry

     iteration # 11     ecut=   100.00 Ry     beta= 0.70
     Davidson diagonalization with overlap
     ethr =  1.82E-06,  avg # of iterations =  2.0

     negative rho (up, down):  8.299E-05 0.000E+00

     total cpu time spent up to now is       91.6 secs

     total energy              =   -4009.17450172 Ry
     estimated scf accuracy    <       0.00351349 Ry

     iteration # 12     ecut=   100.00 Ry     beta= 0.70
     Davidson diagonalization with overlap
     ethr =  7.51E-07,  avg # of iterations =  8.0

     negative rho (up, down):  8.512E-05 0.000E+00

     total cpu time spent up to now is      101.7 secs

     total energy              =   -4009.17611859 Ry
     estimated scf accuracy    <       0.00545254 Ry

     iteration # 13     ecut=   100.00 Ry     beta= 0.70
     Davidson diagonalization with overlap
     ethr =  7.51E-07,  avg # of iterations =  2.0

     negative rho (up, down):  8.705E-05 0.000E+00

     total cpu time spent up to now is      106.4 secs

     total energy              =   -4009.17427389 Ry
     estimated scf accuracy    <       0.00292256 Ry

     iteration # 14     ecut=   100.00 Ry     beta= 0.70
     Davidson diagonalization with overlap
     ethr =  6.24E-07,  avg # of iterations =  8.0

     negative rho (up, down):  8.731E-05 0.000E+00

     total cpu time spent up to now is      116.6 secs

     total energy              =   -4009.17638564 Ry
     estimated scf accuracy    <       0.00428251 Ry

     iteration # 15     ecut=   100.00 Ry     beta= 0.70
     Davidson diagonalization with overlap
     ethr =  6.24E-07,  avg # of iterations =  2.0

     negative rho (up, down):  8.683E-05 0.000E+00

     total cpu time spent up to now is      121.4 secs

     total energy              =   -4009.17535304 Ry
     estimated scf accuracy    <       0.00260453 Ry

     iteration # 16     ecut=   100.00 Ry     beta= 0.70
     Davidson diagonalization with overlap
     ethr =  5.57E-07,  avg # of iterations =  7.0

     negative rho (up, down):  8.679E-05 0.000E+00

     total cpu time spent up to now is      128.4 secs

     total energy              =   -4009.17614377 Ry
     estimated scf accuracy    <       0.00016736 Ry

     iteration # 17     ecut=   100.00 Ry     beta= 0.70
     Davidson diagonalization with overlap
     ethr =  3.58E-08,  avg # of iterations =  6.0

     negative rho (up, down):  8.659E-05 0.000E+00

     total cpu time spent up to now is      135.8 secs

     total energy              =   -4009.17623970 Ry
     estimated scf accuracy    <       0.00021314 Ry

     iteration # 18     ecut=   100.00 Ry     beta= 0.70
     Davidson diagonalization with overlap
     ethr =  3.58E-08,  avg # of iterations =  2.0

     negative rho (up, down):  8.678E-05 0.000E+00

     total cpu time spent up to now is      140.9 secs

     total energy              =   -4009.17611915 Ry
     estimated scf accuracy    <       0.00026697 Ry

     iteration # 19     ecut=   100.00 Ry     beta= 0.70
     Davidson diagonalization with overlap
     ethr =  3.58E-08,  avg # of iterations =  8.0

     negative rho (up, down):  8.677E-05 0.000E+00

     total cpu time spent up to now is      148.1 secs

     total energy              =   -4009.17616682 Ry
     estimated scf accuracy    <       0.00001573 Ry

     iteration # 20     ecut=   100.00 Ry     beta= 0.70
     Davidson diagonalization with overlap
     ethr =  3.36E-09,  avg # of iterations =  5.0

     negative rho (up, down):  8.678E-05 0.000E+00

     total cpu time spent up to now is      154.1 secs

     total energy              =   -4009.17616573 Ry
     estimated scf accuracy    <       0.00000688 Ry

     iteration # 21     ecut=   100.00 Ry     beta= 0.70
     Davidson diagonalization with overlap
     ethr =  1.47E-09,  avg # of iterations = 15.0

     negative rho (up, down):  8.680E-05 0.000E+00

     total cpu time spent up to now is      165.2 secs

     total energy              =   -4009.17617016 Ry
     estimated scf accuracy    <       0.00002179 Ry

     iteration # 22     ecut=   100.00 Ry     beta= 0.70
     Davidson diagonalization with overlap
     ethr =  1.47E-09,  avg # of iterations =  7.0

     negative rho (up, down):  8.680E-05 0.000E+00

     total cpu time spent up to now is      171.0 secs

     total energy              =   -4009.17616952 Ry
     estimated scf accuracy    <       0.00000642 Ry

     iteration # 23     ecut=   100.00 Ry     beta= 0.70
     Davidson diagonalization with overlap
     ethr =  1.37E-09,  avg # of iterations =  7.0

     negative rho (up, down):  8.680E-05 0.000E+00

     total cpu time spent up to now is      176.7 secs

     total energy              =   -4009.17616964 Ry
     estimated scf accuracy    <       0.00000198 Ry

     iteration # 24     ecut=   100.00 Ry     beta= 0.70
     Davidson diagonalization with overlap
     ethr =  4.23E-10,  avg # of iterations =  8.0

     negative rho (up, down):  8.680E-05 0.000E+00

     total cpu time spent up to now is      185.2 secs

     total energy              =   -4009.17617114 Ry
     estimated scf accuracy    <       0.00000157 Ry

     iteration # 25     ecut=   100.00 Ry     beta= 0.70
     Davidson diagonalization with overlap
     ethr =  3.36E-10,  avg # of iterations =  1.0

     negative rho (up, down):  8.680E-05 0.000E+00

     total cpu time spent up to now is      189.6 secs

     total energy              =   -4009.17617137 Ry
     estimated scf accuracy    <       0.00000137 Ry

     iteration # 26     ecut=   100.00 Ry     beta= 0.70
     Davidson diagonalization with overlap
     ethr =  2.92E-10,  avg # of iterations =  2.0

     negative rho (up, down):  8.680E-05 0.000E+00

     total cpu time spent up to now is      194.5 secs

     total energy              =   -4009.17617142 Ry
     estimated scf accuracy    <       0.00000190 Ry

     iteration # 27     ecut=   100.00 Ry     beta= 0.70
     Davidson diagonalization with overlap
     ethr =  2.92E-10,  avg # of iterations =  2.0

     negative rho (up, down):  8.680E-05 0.000E+00

     total cpu time spent up to now is      199.4 secs

     total energy              =   -4009.17617130 Ry
     estimated scf accuracy    <       0.00000206 Ry

     iteration # 28     ecut=   100.00 Ry     beta= 0.70
     Davidson diagonalization with overlap
     ethr =  2.92E-10,  avg # of iterations =  2.0

     negative rho (up, down):  8.680E-05 0.000E+00

     total cpu time spent up to now is      204.1 secs

     total energy              =   -4009.17617068 Ry
     estimated scf accuracy    <       0.00000189 Ry

     iteration # 29     ecut=   100.00 Ry     beta= 0.70
     Davidson diagonalization with overlap
     ethr =  2.92E-10,  avg # of iterations =  2.0

     negative rho (up, down):  8.680E-05 0.000E+00

     total cpu time spent up to now is      209.2 secs

     total energy              =   -4009.17617054 Ry
     estimated scf accuracy    <       0.00000081 Ry

     iteration # 30     ecut=   100.00 Ry     beta= 0.70
     Davidson diagonalization with overlap
     ethr =  1.73E-10,  avg # of iterations =  7.0

     negative rho (up, down):  8.680E-05 0.000E+00

     total cpu time spent up to now is      216.9 secs

     total energy              =   -4009.17617087 Ry
     estimated scf accuracy    <       0.00000015 Ry

     iteration # 31     ecut=   100.00 Ry     beta= 0.70
     Davidson diagonalization with overlap
     ethr =  3.31E-11,  avg # of iterations =  2.0

     negative rho (up, down):  8.680E-05 0.000E+00

     total cpu time spent up to now is      221.8 secs

     total energy              =   -4009.17617084 Ry
     estimated scf accuracy    <       0.00000012 Ry

     iteration # 32     ecut=   100.00 Ry     beta= 0.70
     Davidson diagonalization with overlap
     ethr =  2.54E-11,  avg # of iterations =  8.0

     negative rho (up, down):  8.680E-05 0.000E+00

     total cpu time spent up to now is      228.1 secs

     total energy              =   -4009.17617086 Ry
     estimated scf accuracy    <       0.00000002 Ry

     iteration # 33     ecut=   100.00 Ry     beta= 0.70
     Davidson diagonalization with overlap
     ethr =  3.93E-12,  avg # of iterations =  7.0

     negative rho (up, down):  8.680E-05 0.000E+00

     total cpu time spent up to now is      238.0 secs

     total energy              =   -4009.17617087 Ry
     estimated scf accuracy    <       0.00000002 Ry

     iteration # 34     ecut=   100.00 Ry     beta= 0.70
     Davidson diagonalization with overlap
     ethr =  3.49E-12,  avg # of iterations =  2.0

     negative rho (up, down):  8.680E-05 0.000E+00

     total cpu time spent up to now is      243.0 secs

     End of self-consistent calculation

          k = 0.0000 0.0000 0.0000 (129138 PWs)   bands (ev):

   -49.6144 -49.5981 -49.5980 -49.5859 -49.5838 -49.5838 -28.1041 -28.0010
   -28.0010 -27.9076 -27.9076 -27.8996 -27.7722 -27.7273 -27.7273 -27.7207
   -27.7206 -27.6941 -27.6216 -27.6216 -27.5859 -27.5723 -27.5722 -27.5717
   -22.8389 -22.7918 -22.7918 -22.7861 -22.7860 -22.7606 -22.5839 -22.5772
   -22.5199 -22.5199 -22.5176 -22.5175 -20.5523 -20.5361 -20.5360 -20.5065
   -20.5065 -20.4708 -20.3468 -20.3468 -20.3235 -20.3234 -20.2401 -20.2360
   -17.9946 -17.7622 -17.7621 -17.5683 -17.5682 -17.5260 -17.3916 -17.3905
   -17.3905 -17.2136 -17.2136 -17.2114 -15.0496 -15.0495 -15.0401 -14.8617
   -14.8409 -14.8409 -14.4881 -14.4859 -14.4858 -14.3141 -14.3140 -14.3119
   -12.2909 -12.2547 -12.2546 -12.0949 -12.0363 -12.0362 -10.9630 -10.9629
   -10.9515 -10.7861 -10.7861 -10.7693 -10.2308 -10.2308 -10.1497 -10.0276
    -9.8540  -9.8540  -9.6148  -9.5557  -9.5557  -9.4462  -9.3767  -9.3766
    -8.7839  -8.6120  -8.5366  -8.5365  -8.3947  -8.3946  -8.3543  -8.1971
    -8.1971  -8.1492  -8.1492  -7.8691  -7.8667  -7.8666  -7.7622  -7.7622
    -7.6627  -7.6482  -7.6481  -7.6393  -7.5377  -7.3852  -7.3852  -7.2539
    -7.1553  -6.9172  -6.9172  -6.8586  -6.8322  -6.8318  -6.8318  -6.7358
    -6.7358  -6.6987  -6.6886  -6.6886  -6.6665  -6.6665  -6.6558  -6.5693
    -6.5340  -6.5340  -6.5117  -6.4522  -6.4247  -6.4247  -6.3474  -6.3473
    -6.2151  -6.1884  -6.1883  -6.0315  -6.0315  -6.0141  -5.7281  -5.6341
    -5.6341  -5.4574  -5.2481  -5.2480  -5.1308  -5.0006  -4.9572  -4.9571
    -4.8900  -4.8899  -4.8896  -4.8895  -4.8659  -4.7826  -4.7678  -4.7678
    -4.7315  -4.2506  -4.2505  -4.1976  -4.1502  -4.1502  -4.1501  -4.1437
    -4.1436  -3.9863  -3.9862  -3.9774  -3.9773  -3.9593  -3.8051  -3.6425
    -3.6425  -3.6106  -3.5192  -3.4022  -3.3713  -3.3712  -3.2984  -3.2417
    -3.2417  -3.2066  -3.1673  -3.1673  -3.0819  -3.0422  -3.0422  -2.9792
    -2.9791  -2.9224  -2.9224  -2.8177  -2.7472  -2.6838  -2.6838  -2.6834
    -2.6361  -2.6361  -2.5825  -2.5824  -2.5318  -2.5307  -2.5307  -2.4833
    -2.4261  -2.4261  -2.3922  -2.3789  -2.3780  -2.3723  -2.3723  -2.3446
    -2.3446  -2.2858  -2.2390  -2.2389  -2.1742  -2.1741  -2.1576  -1.6320
    -1.6319  -1.4964

     highest occupied level (ev):    -1.4964

!    total energy              =   -4009.17617086 Ry
     total all-electron energy =    -51389.593277 Ry
     estimated scf accuracy    <          7.3E-09 Ry

     The total energy is the sum of the following terms:
     one-electron contribution =   -6098.78403992 Ry
     hartree contribution      =    3180.87695397 Ry
     xc contribution           =    -570.38726787 Ry
     ewald contribution        =    1322.83527882 Ry
     one-center paw contrib.   =   -1843.71709586 Ry

     convergence has been achieved in  34 iterations

     negative rho (up, down):  8.680E-05 0.000E+00

     Forces acting on atoms (cartesian axes, Ry/au):

     atom    1 type  2   force =    -0.00000818   -0.00002070   -0.00001265
     atom    2 type  2   force =     0.00000818    0.00002070    0.00001265
     atom    3 type  2   force =    -0.00003102   -0.00000020   -0.00003194
     atom    4 type  2   force =     0.00003102    0.00000020    0.00003194
     atom    5 type  2   force =    -0.00000483   -0.00001031    0.00000245
     atom    6 type  2   force =     0.00000483    0.00001031   -0.00000245
     atom    7 type  4   force =    -0.00002600   -0.00000237    0.00003380
     atom    8 type  4   force =     0.00002600    0.00000237   -0.00003380
     atom    9 type  4   force =     0.00000233    0.00000754   -0.00000021
     atom   10 type  4   force =    -0.00000233   -0.00000754    0.00000021
     atom   11 type  4   force =    -0.00000222    0.00000912   -0.00000983
     atom   12 type  4   force =     0.00000222   -0.00000912    0.00000983
     atom   13 type  4   force =     0.00000807   -0.00000065    0.00000187
     atom   14 type  4   force =    -0.00000807    0.00000065   -0.00000187
     atom   15 type  4   force =     0.00001225   -0.00000474   -0.00001247
     atom   16 type  4   force =    -0.00001225    0.00000474    0.00001247
     atom   17 type  4   force =     0.00001372   -0.00001160    0.00001430
     atom   18 type  4   force =    -0.00001372    0.00001160   -0.00001430
     atom   19 type  4   force =    -0.00001569   -0.00000918    0.00000357
     atom   20 type  4   force =     0.00001569    0.00000918   -0.00000357
     atom   21 type  4   force =    -0.00000066    0.00001573    0.00002926
     atom   22 type  4   force =     0.00000066   -0.00001573   -0.00002926
     atom   23 type  4   force =    -0.00002965   -0.00000295   -0.00000380
     atom   24 type  4   force =     0.00002965    0.00000295    0.00000380
     atom   25 type  4   force =    -0.00005856   -0.00001465    0.00002398
     atom   26 type  4   force =     0.00005856    0.00001465   -0.00002398
     atom   27 type  4   force =     0.00000038    0.00000456   -0.00000081
     atom   28 type  4   force =    -0.00000038   -0.00000456    0.00000081
     atom   29 type  4   force =     0.00002329   -0.00000862    0.00003150
     atom   30 type  4   force =    -0.00002329    0.00000862   -0.00003150
     atom   31 type  4   force =     0.00000402    0.00001153    0.00002088
     atom   32 type  4   force =    -0.00000402   -0.00001153   -0.00002088
     atom   33 type  4   force =     0.00001502   -0.00001072   -0.00000135
     atom   34 type  4   force =    -0.00001502    0.00001072    0.00000135
     atom   35 type  4   force =     0.00001714    0.00000450   -0.00000928
     atom   36 type  4   force =    -0.00001714   -0.00000450    0.00000928
     atom   37 type  3   force =    -0.00003395   -0.00003042    0.00001222
     atom   38 type  3   force =     0.00003395    0.00003042   -0.00001222
     atom   39 type  3   force =     0.00001920   -0.00002680    0.00001892
     atom   40 type  3   force =    -0.00001920    0.00002680   -0.00001892
     atom   41 type  3   force =    -0.00008978    0.00000080   -0.00000401
     atom   42 type  3   force =     0.00008978   -0.00000080    0.00000401
     atom   43 type  3   force =    -0.00004044   -0.00000143    0.00002462
     atom   44 type  3   force =     0.00004044    0.00000143   -0.00002462
     atom   45 type  3   force =    -0.00002521    0.00000876   -0.00001158
     atom   46 type  3   force =     0.00002521   -0.00000876    0.00001158
     atom   47 type  3   force =    -0.00001308   -0.00003247    0.00003798
     atom   48 type  3   force =     0.00001308    0.00003247   -0.00003798
     atom   49 type  3   force =    -0.00003124    0.00001286    0.00004836
     atom   50 type  3   force =     0.00003124   -0.00001286   -0.00004836
     atom   51 type  3   force =    -0.00000693    0.00002627   -0.00001679
     atom   52 type  3   force =     0.00000693   -0.00002627    0.00001679
     atom   53 type  3   force =    -0.00001916   -0.00000098    0.00002792
     atom   54 type  3   force =     0.00001916    0.00000098   -0.00002792
     atom   55 type  3   force =     0.00001028    0.00000648   -0.00001158
     atom   56 type  3   force =    -0.00001028   -0.00000648    0.00001158
     atom   57 type  3   force =    -0.00000910   -0.00001477   -0.00002518
     atom   58 type  3   force =     0.00000910    0.00001477    0.00002518
     atom   59 type  3   force =    -0.00008309    0.00000009    0.00001015
     atom   60 type  3   force =     0.00008309   -0.00000009   -0.00001015
     atom   61 type  3   force =     0.00004886    0.00000270   -0.00002834
     atom   62 type  3   force =    -0.00004886   -0.00000270    0.00002834
     atom   63 type  3   force =     0.00003584    0.00000799    0.00004269
     atom   64 type  3   force =    -0.00003584   -0.00000799   -0.00004269
     atom   65 type  3   force =     0.00007180    0.00001111   -0.00000789
     atom   66 type  3   force =    -0.00007180   -0.00001111    0.00000789
     atom   67 type  3   force =    -0.00004853   -0.00001198    0.00003911
     atom   68 type  3   force =     0.00004853    0.00001198   -0.00003911
     atom   69 type  3   force =    -0.00001692   -0.00000430    0.00001842
     atom   70 type  3   force =     0.00001692    0.00000430   -0.00001842
     atom   71 type  3   force =    -0.00002294    0.00003248   -0.00002633
     atom   72 type  3   force =     0.00002294   -0.00003248    0.00002633
     atom   73 type  3   force =     0.00000432   -0.00000602   -0.00000458
     atom   74 type  3   force =    -0.00000432    0.00000602    0.00000458
     atom   75 type  3   force =    -0.00000743    0.00004554    0.00002482
     atom   76 type  3   force =     0.00000743   -0.00004554   -0.00002482
     atom   77 type  3   force =     0.00006512   -0.00001112    0.00000939
     atom   78 type  3   force =    -0.00006512    0.00001112   -0.00000939
     atom   79 type  3   force =     0.00004430   -0.00003751    0.00002096
     atom   80 type  3   force =    -0.00004430    0.00003751   -0.00002096
     atom   81 type  3   force =    -0.00001314   -0.00001539   -0.00001603
     atom   82 type  3   force =     0.00001314    0.00001539    0.00001603
     atom   83 type  3   force =    -0.00003643    0.00004752    0.00001550
     atom   84 type  3   force =     0.00003643   -0.00004752   -0.00001550
     atom   85 type  1   force =     0.00000438   -0.00000921   -0.00001057
     atom   86 type  1   force =    -0.00000438    0.00000921    0.00001057
     atom   87 type  1   force =    -0.00001459    0.00001067   -0.00000562
     atom   88 type  1   force =     0.00001459   -0.00001067    0.00000562
     atom   89 type  1   force =     0.00000345    0.00000169    0.00000384
     atom   90 type  1   force =    -0.00000345   -0.00000169   -0.00000384
     atom   91 type  1   force =    -0.00000501   -0.00000871    0.00000322
     atom   92 type  1   force =     0.00000501    0.00000871   -0.00000322
     atom   93 type  1   force =    -0.00001318   -0.00000690   -0.00000407
     atom   94 type  1   force =     0.00001318    0.00000690    0.00000407
     atom   95 type  1   force =    -0.00000856    0.00000280   -0.00000319
     atom   96 type  1   force =     0.00000856   -0.00000280    0.00000319
     atom   97 type  1   force =     0.00001144    0.00000275    0.00000115
     atom   98 type  1   force =    -0.00001144   -0.00000275   -0.00000115
     atom   99 type  1   force =     0.00000501    0.00001041    0.00000044
     atom  100 type  1   force =    -0.00000501   -0.00001041   -0.00000044
     atom  101 type  1   force =    -0.00000089    0.00000494    0.00001600
     atom  102 type  1   force =     0.00000089   -0.00000494   -0.00001600
     atom  103 type  1   force =     0.00001174    0.00000735    0.00000951
     atom  104 type  1   force =    -0.00001174   -0.00000735   -0.00000951
     atom  105 type  1   force =     0.00001781    0.00000629    0.00000024
     atom  106 type  1   force =    -0.00001781   -0.00000629   -0.00000024
     atom  107 type  1   force =     0.00001861   -0.00000314   -0.00000817
     atom  108 type  1   force =    -0.00001861    0.00000314    0.00000817

     Total force =     0.000409     Total SCF correction =     0.000225
     SCF correction compared to forces is large: reduce conv_thr to get better values


     Computing stress (Cartesian axis) and pressure


     negative rho (up, down):  8.680E-05 0.000E+00
          total   stress  (Ry/bohr**3)                   (kbar)     P=        0.19
   0.00000130  -0.00000001  -0.00000001            0.19       -0.00       -0.00
  -0.00000001   0.00000130  -0.00000002           -0.00        0.19       -0.00
  -0.00000001  -0.00000002   0.00000132           -0.00       -0.00        0.19


     BFGS Geometry Optimization
     Energy error            =      0.0E+00 Ry
     Gradient error          =      9.0E-05 Ry/Bohr
     Cell gradient error     =      1.9E-01 kbar

     number of scf cycles    =   1
     number of bfgs steps    =   0

     enthalpy           new  =   -4009.1761708595 Ry

     new trust radius        =       0.0008147507 bohr
     new conv_thr            =       0.0000000100 Ry

     new unit-cell volume =  15299.95916 a.u.^3 (  2267.22003 Ang^3 )
     density =      1.19237 g/cm^3

CELL_PARAMETERS (alat= 27.59009591)
   0.997674444   0.000086638   0.000061718
   0.473345992   0.878236280   0.000061794
   0.473345716   0.282627269   0.831517713

ATOMIC_POSITIONS (crystal)
Zr               0.8730088901        0.1189786759        0.1221870875
Zr               0.1269911099        0.8810203241        0.8778129125
Zr               0.1221874166        0.8730088423        0.1189779998
Zr               0.8778125834        0.1269911577        0.8810210002
Zr               0.1189783802        0.1221870851        0.8730084715
Zr               0.8810206198        0.8778129149        0.1269915285
O                0.9195911215        0.2615022105        0.0847385466
O                0.0804088785        0.7384977895        0.9152614534
O                0.0847377202        0.9195909683        0.2615034059
O                0.9152622798        0.0804090317        0.7384965941
O                0.2615031790        0.0847379679        0.9195901208
O                0.7384968210        0.9152620321        0.0804098792
O                0.7547312323        0.0540600685        0.9177483123
O                0.2452687677        0.9459399315        0.0822516877
O                0.9177482448        0.7547301815        0.0540614468
O                0.0822517552        0.2452698185        0.9459385532
O                0.0540614327        0.9177481223        0.7547308239
O                0.9459385673        0.0822518777        0.2452691761
O                0.2663817435        0.9222944401        0.7338090114
O                0.7336182565        0.0777055599        0.2661909886
O                0.7338078570        0.2663818253        0.9222974149
O                0.2661921430        0.7336181747        0.0777025851
O                0.9222960402        0.7338087917        0.2663816440
O                0.0777039598        0.2661912083        0.7336183560
O                0.0835418402        0.7269634283        0.2590485861
O                0.9164581598        0.2730365717        0.7409514139
O                0.2590471959        0.0835416570        0.7269642914
O                0.7409528041        0.9164583430        0.2730357086
O                0.7269647803        0.2590477677        0.0835431602
O                0.2730352197        0.7409522323        0.9164568398
O                0.8362113052        0.0446454966        0.0476517962
O                0.1637886948        0.9553545034        0.9523482038
O                0.0476519861        0.8362106255        0.0446454593
O                0.9523480139        0.1637893745        0.9553545407
O                0.0446450206        0.0476510417        0.8362119264
O                0.9553549794        0.9523489583        0.1637880736
C                0.6969888888        0.9971109279        0.3091850767
C                0.3030111112        0.0028890721        0.6908149233
C                0.3091852736        0.6969883025        0.9971111863
C                0.6908147264        0.3030116975        0.0028888137
C                0.9971082388        0.3091847917        0.6969890422
C                0.0028917612        0.6908152083        0.3030109578
C               -0.0000775522        0.7042698818        0.9881983226
C                1.0000775522        0.2957301182        0.0118016774
C                0.9881967280       -0.0000750501        0.7042695332
C                0.0118032720        1.0000750501        0.2957304668
C                0.7042699488        0.9881959609       -0.0000747317
C                0.2957300512        0.0118040391        1.0000747317
C                0.9998672436        0.4016189847        0.0050033909
C                0.0001327564        0.5983810153        0.9949966091
C                0.0050019390        0.9998686268        0.4016188188
C                0.9949980610        0.0001313732        0.5983811812
C                0.4016184830        0.0050022935        0.9998686147
C                0.5983815170        0.9949977065        0.0001313853
C                0.4044612403        0.0016332781        0.5919892208
C                0.5955387597        0.9983667219        0.4080107792
C                0.5919898281        0.4044610416        0.0016328457
C                0.4080101719        0.5955389584        0.9983671543
C                0.0016320925        0.5919896183        0.4044613835
C                0.9983679075        0.4080103817        0.5955386165
C                0.9098231454        0.4626216725        0.0722084863
C                0.0901768546        0.5373783275        0.9277915137
C                0.0722086622        0.9098208347        0.4626236492
C                0.9277913378        0.0901791653        0.5373763508
C                0.4626242644        0.0722082601        0.9098205412
C                0.5373757356        0.9277917399        0.0901794588
C                0.5603355901        0.0671958929        0.9098727722
C                0.4396644099        0.9328041071        0.0901272278
C                0.9098718467        0.5603351586        0.0671986590
C                0.0901281533        0.4396648414        0.9328013410
C                0.0671965262        0.9098730809        0.5603356863
C                0.9328034738        0.0901269191        0.4396643137
C                0.4577255096        0.9128621611        0.5511022393
C                0.5422744904        0.0871378389        0.4488977607
C                0.5511022630        0.4577263197        0.9128627470
C                0.4488977370        0.5422736803        0.0871372530
C                0.9128641317        0.5511028776        0.4577248491
C                0.0871358683        0.4488971224        0.5422751509
C                0.0887549993        0.5402439230        0.4474153498
C                0.9112450007        0.4597560770        0.5525846502
C                0.4474140027        0.0887530047        0.5402452649
C                0.5525859973        0.9112469953        0.4597547351
C                0.5402436768        0.4474149774        0.0887541519
C                0.4597563232        0.5525850226        0.9112458481
H                0.5921033310        0.4236119537        0.8456831420
H                0.4078966690        0.5763880463        0.1543168580
H                0.8456839023        0.5921034759        0.4236105364
H                0.1543160977        0.4078965241        0.5763894636
H                0.4236120852        0.8456835883        0.5921016254
H                0.5763879148        0.1543164117        0.4078983746
H                0.5728443375        0.4052949785        0.1571386144
H                0.4271556625        0.5947050215        0.8428613856
H                0.1571384843        0.5728437418        0.4052969377
H                0.8428615157        0.4271562582        0.5947030623
H                0.4052952094        0.1571377753        0.5728452313
H                0.5947047906        0.8428622247        0.4271547687
H                0.1279341132        0.8403151581        0.4320930571
H                0.8720658868        0.1596848419        0.5679069429
H                0.4320933773        0.1279332394        0.8403146922
H                0.5679066227        0.8720667606        0.1596853078
H                0.8403165269        0.4320907287        0.1279358961
H                0.1596834731        0.5679092713        0.8720641039
H                0.1184462499        0.8401892989        0.6087870192
H                0.8815537501        0.1598107011        0.3912129808
H                0.6087880410        0.1184450972        0.8401889251
H                0.3912119590        0.8815549028        0.1598110749
H                0.8401903022        0.6087851765        0.1184476220
H                0.1598096978        0.3912148235        0.8815523780



     Writing config-only to output data dir ./pwscf.save/ :
     XML data file
     NEW-OLD atomic charge density approx. for the potential

     negative rho (up, down):  8.686E-05 0.000E+00

     total cpu time spent up to now is      250.0 secs

     Self-consistent Calculation

     iteration #  1     ecut=   100.00 Ry     beta= 0.70
     Davidson diagonalization with overlap
     ethr =  1.00E-06,  avg # of iterations =  2.0

     Threshold (ethr) on eigenvalues was too large:
     Diagonalizing with lowered threshold

     Davidson diagonalization with overlap
     ethr =  7.14E-11,  avg # of iterations =  5.0

     negative rho (up, down):  8.679E-05 0.000E+00

     total cpu time spent up to now is      265.2 secs

     total energy              =   -4009.17617227 Ry
     estimated scf accuracy    <       0.00000024 Ry

     iteration #  2     ecut=   100.00 Ry     beta= 0.70
     Davidson diagonalization with overlap
     ethr =  5.09E-11,  avg # of iterations =  8.0

     negative rho (up, down):  8.680E-05 0.000E+00

     total cpu time spent up to now is      274.7 secs

     total energy              =   -4009.17617229 Ry
     estimated scf accuracy    <       0.00000027 Ry

     iteration #  3     ecut=   100.00 Ry     beta= 0.70
     Davidson diagonalization with overlap
     ethr =  5.09E-11,  avg # of iterations =  8.0

     negative rho (up, down):  8.679E-05 0.000E+00

     total cpu time spent up to now is      281.3 secs

     total energy              =   -4009.17617234 Ry
     estimated scf accuracy    <       0.00000002 Ry

     iteration #  4     ecut=   100.00 Ry     beta= 0.70
     Davidson diagonalization with overlap
     ethr =  3.51E-12,  avg # of iterations = 12.0

     negative rho (up, down):  8.677E-05 0.000E+00

     total cpu time spent up to now is      291.6 secs

     End of self-consistent calculation

          k = 0.0000 0.0000 0.0000 (129138 PWs)   bands (ev):

   -49.6155 -49.5992 -49.5991 -49.5870 -49.5850 -49.5849 -28.1049 -28.0019
   -28.0019 -27.9085 -27.9084 -27.9005 -27.7731 -27.7283 -27.7282 -27.7217
   -27.7216 -27.6951 -27.6226 -27.6226 -27.5869 -27.5733 -27.5733 -27.5727
   -22.8387 -22.7917 -22.7915 -22.7859 -22.7858 -22.7604 -22.5837 -22.5770
   -22.5196 -22.5196 -22.5173 -22.5172 -20.5523 -20.5361 -20.5360 -20.5065
   -20.5064 -20.4708 -20.3468 -20.3467 -20.3234 -20.3234 -20.2400 -20.2359
   -17.9948 -17.7624 -17.7624 -17.5686 -17.5685 -17.5262 -17.3916 -17.3905
   -17.3905 -17.2136 -17.2136 -17.2114 -15.0496 -15.0496 -15.0401 -14.8617
   -14.8410 -14.8409 -14.4883 -14.4861 -14.4861 -14.3144 -14.3143 -14.3122
   -12.2912 -12.2549 -12.2548 -12.0953 -12.0366 -12.0366 -10.9631 -10.9630
   -10.9516 -10.7862 -10.7861 -10.7694 -10.2312 -10.2312 -10.1501 -10.0280
    -9.8544  -9.8544  -9.6150  -9.5559  -9.5559  -9.4465  -9.3769  -9.3768
    -8.7840  -8.6121  -8.5368  -8.5367  -8.3948  -8.3948  -8.3544  -8.1972
    -8.1972  -8.1494  -8.1494  -7.8693  -7.8669  -7.8668  -7.7623  -7.7623
    -7.6629  -7.6484  -7.6483  -7.6395  -7.5380  -7.3854  -7.3854  -7.2541
    -7.1552  -6.9172  -6.9171  -6.8587  -6.8321  -6.8318  -6.8318  -6.7360
    -6.7360  -6.6989  -6.6887  -6.6887  -6.6667  -6.6667  -6.6559  -6.5694
    -6.5342  -6.5341  -6.5117  -6.4524  -6.4249  -6.4248  -6.3473  -6.3473
    -6.2153  -6.1887  -6.1886  -6.0318  -6.0317  -6.0144  -5.7282  -5.6344
    -5.6343  -5.4577  -5.2485  -5.2484  -5.1311  -5.0008  -4.9573  -4.9573
    -4.8902  -4.8901  -4.8899  -4.8899  -4.8662  -4.7828  -4.7680  -4.7680
    -4.7318  -4.2509  -4.2509  -4.1979  -4.1506  -4.1505  -4.1504  -4.1439
    -4.1439  -3.9865  -3.9864  -3.9775  -3.9775  -3.9595  -3.8054  -3.6428
    -3.6428  -3.6110  -3.5196  -3.4025  -3.3715  -3.3715  -3.2989  -3.2420
    -3.2420  -3.2071  -3.1677  -3.1677  -3.0823  -3.0426  -3.0425  -2.9795
    -2.9795  -2.9228  -2.9228  -2.8181  -2.7475  -2.6842  -2.6842  -2.6838
    -2.6365  -2.6365  -2.5829  -2.5828  -2.5321  -2.5312  -2.5311  -2.4837
    -2.4265  -2.4264  -2.3927  -2.3792  -2.3785  -2.3728  -2.3727  -2.3450
    -2.3450  -2.2861  -2.2394  -2.2393  -2.1747  -2.1746  -2.1580  -1.6323
    -1.6323  -1.4968

     highest occupied level (ev):    -1.4968

!    total energy              =   -4009.17617234 Ry
     total all-electron energy =    -51389.593279 Ry
     estimated scf accuracy    <          6.6E-09 Ry

     The total energy is the sum of the following terms:
     one-electron contribution =   -6098.69572039 Ry
     hartree contribution      =    3180.82345302 Ry
     xc contribution           =    -570.38133139 Ry
     ewald contribution        =    1322.79435643 Ry
     one-center paw contrib.   =   -1843.71693002 Ry

     convergence has been achieved in   4 iterations

     negative rho (up, down):  8.677E-05 0.000E+00

     Forces acting on atoms (cartesian axes, Ry/au):

     atom    1 type  2   force =    -0.00001314   -0.00003632   -0.00001718
     atom    2 type  2   force =     0.00001314    0.00003632    0.00001718
     atom    3 type  2   force =    -0.00004061    0.00000437   -0.00004081
     atom    4 type  2   force =     0.00004061   -0.00000437    0.00004081
     atom    5 type  2   force =    -0.00005188   -0.00001388    0.00001485
     atom    6 type  2   force =     0.00005188    0.00001388   -0.00001485
     atom    7 type  4   force =     0.00009339   -0.00000172   -0.00009287
     atom    8 type  4   force =    -0.00009339    0.00000172    0.00009287
     atom    9 type  4   force =    -0.00001731    0.00005843    0.00000857
     atom   10 type  4   force =     0.00001731   -0.00005843   -0.00000857
     atom   11 type  4   force =     0.00002449   -0.00003354    0.00006105
     atom   12 type  4   force =    -0.00002449    0.00003354   -0.00006105
     atom   13 type  4   force =    -0.00002885   -0.00004123    0.00009222
     atom   14 type  4   force =     0.00002885    0.00004123   -0.00009222
     atom   15 type  4   force =     0.00003440   -0.00004216   -0.00004454
     atom   16 type  4   force =    -0.00003440    0.00004216    0.00004454
     atom   17 type  4   force =    -0.00006147    0.00009345   -0.00004674
     atom   18 type  4   force =     0.00006147   -0.00009345    0.00004674
     atom   19 type  4   force =     0.00007112    0.00009594   -0.00004574
     atom   20 type  4   force =    -0.00007112   -0.00009594    0.00004574
     atom   21 type  4   force =     0.00001543    0.00002480    0.00005262
     atom   22 type  4   force =    -0.00001543   -0.00002480   -0.00005262
     atom   23 type  4   force =     0.00013205   -0.00003390    0.00002542
     atom   24 type  4   force =    -0.00013205    0.00003390   -0.00002542
     atom   25 type  4   force =    -0.00001004    0.00000361   -0.00000317
     atom   26 type  4   force =     0.00001004   -0.00000361    0.00000317
     atom   27 type  4   force =    -0.00001705   -0.00008127   -0.00002021
     atom   28 type  4   force =     0.00001705    0.00008127    0.00002021
     atom   29 type  4   force =    -0.00007971    0.00001713   -0.00010670
     atom   30 type  4   force =     0.00007971   -0.00001713    0.00010670
     atom   31 type  4   force =     0.00002379   -0.00000896   -0.00000426
     atom   32 type  4   force =    -0.00002379    0.00000896    0.00000426
     atom   33 type  4   force =     0.00001005    0.00002860   -0.00000087
     atom   34 type  4   force =    -0.00001005   -0.00002860    0.00000087
     atom   35 type  4   force =     0.00000264    0.00001744    0.00002454
     atom   36 type  4   force =    -0.00000264   -0.00001744   -0.00002454
     atom   37 type  3   force =     0.00003563    0.00001552   -0.00004169
     atom   38 type  3   force =    -0.00003563   -0.00001552    0.00004169
     atom   39 type  3   force =    -0.00005619    0.00002631   -0.00005407
     atom   40 type  3   force =     0.00005619   -0.00002631    0.00005407
     atom   41 type  3   force =     0.00012421   -0.00001868    0.00000643
     atom   42 type  3   force =    -0.00012421    0.00001868   -0.00000643
     atom   43 type  3   force =     0.00006801    0.00002959   -0.00006874
     atom   44 type  3   force =    -0.00006801   -0.00002959    0.00006874
     atom   45 type  3   force =     0.00003160   -0.00002135    0.00005187
     atom   46 type  3   force =    -0.00003160    0.00002135   -0.00005187
     atom   47 type  3   force =     0.00004895    0.00000326   -0.00002819
     atom   48 type  3   force =    -0.00004895   -0.00000326    0.00002819
     atom   49 type  3   force =     0.00006201    0.00000010   -0.00003921
     atom   50 type  3   force =    -0.00006201   -0.00000010    0.00003921
     atom   51 type  3   force =     0.00004803   -0.00003516    0.00003375
     atom   52 type  3   force =    -0.00004803    0.00003516   -0.00003375
     atom   53 type  3   force =     0.00005062    0.00003128   -0.00004288
     atom   54 type  3   force =    -0.00005062   -0.00003128    0.00004288
     atom   55 type  3   force =     0.00000671   -0.00001682   -0.00001791
     atom   56 type  3   force =    -0.00000671    0.00001682    0.00001791
     atom   57 type  3   force =    -0.00001140    0.00005539    0.00003418
     atom   58 type  3   force =     0.00001140   -0.00005539   -0.00003418
     atom   59 type  3   force =     0.00011459   -0.00002751    0.00002072
     atom   60 type  3   force =    -0.00011459    0.00002751   -0.00002072
     atom   61 type  3   force =    -0.00001195    0.00001338    0.00003026
     atom   62 type  3   force =     0.00001195   -0.00001338   -0.00003026
     atom   63 type  3   force =    -0.00002729    0.00004552   -0.00003848
     atom   64 type  3   force =     0.00002729   -0.00004552    0.00003848
     atom   65 type  3   force =    -0.00005692   -0.00001225    0.00005469
     atom   66 type  3   force =     0.00005692    0.00001225   -0.00005469
     atom   67 type  3   force =     0.00006598    0.00000206   -0.00000458
     atom   68 type  3   force =    -0.00006598   -0.00000206    0.00000458
     atom   69 type  3   force =     0.00006382   -0.00001615   -0.00005929
     atom   70 type  3   force =    -0.00006382    0.00001615    0.00005929
     atom   71 type  3   force =     0.00001957    0.00000378    0.00002822
     atom   72 type  3   force =    -0.00001957   -0.00000378   -0.00002822
     atom   73 type  3   force =     0.00002040    0.00002931   -0.00000417
     atom   74 type  3   force =    -0.00002040   -0.00002931    0.00000417
     atom   75 type  3   force =     0.00002213   -0.00003938   -0.00000804
     atom   76 type  3   force =    -0.00002213    0.00003938    0.00000804
     atom   77 type  3   force =    -0.00006346    0.00001169    0.00000013
     atom   78 type  3   force =     0.00006346   -0.00001169   -0.00000013
     atom   79 type  3   force =    -0.00010902    0.00000899   -0.00001685
     atom   80 type  3   force =     0.00010902   -0.00000899    0.00001685
     atom   81 type  3   force =    -0.00000599   -0.00001319   -0.00001854
     atom   82 type  3   force =     0.00000599    0.00001319    0.00001854
     atom   83 type  3   force =    -0.00000592   -0.00005916   -0.00003813
     atom   84 type  3   force =     0.00000592    0.00005916    0.00003813
     atom   85 type  1   force =     0.00001111    0.00004932    0.00005344
     atom   86 type  1   force =    -0.00001111   -0.00004932   -0.00005344
     atom   87 type  1   force =     0.00007267   -0.00002303    0.00002992
     atom   88 type  1   force =    -0.00007267    0.00002303   -0.00002992
     atom   89 type  1   force =     0.00003389    0.00003218   -0.00001867
     atom   90 type  1   force =    -0.00003389   -0.00003218    0.00001867
     atom   91 type  1   force =    -0.00004506    0.00001131   -0.00004240
     atom   92 type  1   force =     0.00004506   -0.00001131    0.00004240
     atom   93 type  1   force =    -0.00003478   -0.00001784    0.00001454
     atom   94 type  1   force =     0.00003478    0.00001784   -0.00001454
     atom   95 type  1   force =    -0.00001408   -0.00005404   -0.00002567
     atom   96 type  1   force =     0.00001408    0.00005404    0.00002567
     atom   97 type  1   force =     0.00000858    0.00005660    0.00002559
     atom   98 type  1   force =    -0.00000858   -0.00005660   -0.00002559
     atom   99 type  1   force =     0.00004436   -0.00001364    0.00004775
     atom  100 type  1   force =    -0.00004436    0.00001364   -0.00004775
     atom  101 type  1   force =     0.00006877    0.00001685   -0.00004019
     atom  102 type  1   force =    -0.00006877   -0.00001685    0.00004019
     atom  103 type  1   force =    -0.00003404    0.00005954   -0.00003547
     atom  104 type  1   force =     0.00003404   -0.00005954    0.00003547
     atom  105 type  1   force =    -0.00003450   -0.00002545    0.00007273
     atom  106 type  1   force =     0.00003450    0.00002545   -0.00007273
     atom  107 type  1   force =     0.00002518   -0.00003033   -0.00002490
     atom  108 type  1   force =    -0.00002518    0.00003033    0.00002490

     Total force =     0.000795     Total SCF correction =     0.000241
     SCF correction compared to forces is large: reduce conv_thr to get better values


     Computing stress (Cartesian axis) and pressure


     negative rho (up, down):  8.677E-05 0.000E+00
          total   stress  (Ry/bohr**3)                   (kbar)     P=        0.10
   0.00000073   0.00000003   0.00000001            0.11        0.00        0.00
   0.00000003   0.00000072   0.00000003            0.00        0.11        0.00
   0.00000001   0.00000003   0.00000069            0.00        0.00        0.10

     Energy error            =      1.5E-06 Ry
     Gradient error          =      1.3E-04 Ry/Bohr
     Cell gradient error     =      1.1E-01 kbar

     number of scf cycles    =   2
     number of bfgs steps    =   1

     enthalpy           old  =   -4009.1761708595 Ry
     enthalpy           new  =   -4009.1761723430 Ry

     CASE: enthalpy          _new < enthalpy          _old

     new trust radius        =       0.0017269362 bohr
     new conv_thr            =            1.0E-10 Ry

     new unit-cell volume =  15303.14364 a.u.^3 (  2267.69193 Ang^3 )
     density =      1.19212 g/cm^3

CELL_PARAMETERS (alat= 27.59009591)
   0.997744080   0.000087732   0.000061778
   0.473379988   0.878297939   0.000062620
   0.473379109   0.282648215   0.831575124

ATOMIC_POSITIONS (crystal)
Zr               0.8730100473        0.1189757043        0.1221851430
Zr               0.1269899527        0.8810232957        0.8778148570
Zr               0.1221849115        0.8730106619        0.1189732822
Zr               0.8778150885        0.1269893381        0.8810257178
Zr               0.1189752279        0.1221851932        0.8730097148
Zr               0.8810237721        0.8778148068        0.1269902852
O                0.9195976593        0.2615036593        0.0847333034
O                0.0804023407        0.7384963407        0.9152666966
O                0.0847343820        0.9195952941        0.2615040398
O                0.9152656180        0.0804047059        0.7384959602
O                0.2615042263        0.0847347098        0.9195942063
O                0.7384957737        0.9152652902        0.0804057937
O                0.7547289155        0.0540548373        0.9177553458
O                0.2452710845        0.9459451627        0.0822446542
O                0.9177537478        0.7547282318        0.0540574527
O                0.0822462522        0.2452717682        0.9459425473
O                0.0540561734        0.9177551059        0.7547280457
O                0.9459438266        0.0822448941        0.2452719543
O                0.2663835467        0.9223018729        0.7338057539
O                0.7336164533        0.0776981271        0.2661942461
O                0.7338058342        0.2663826002        0.9223028824
O                0.2661941658        0.7336173998        0.0776971176
O                0.9223037062        0.7338056799        0.2663833598
O                0.0776962938        0.2661943201        0.7336166402
O                0.0835385892        0.7269626487        0.2590495851
O                0.9164614108        0.2730373513        0.7409504149
O                0.2590492862        0.0835365936        0.7269627300
O                0.7409507138        0.9164634064        0.2730372700
O                0.7269624649        0.2590506273        0.0835367588
O                0.2730375351        0.7409493727        0.9164632412
O                0.8362127616        0.0446451785        0.0476525527
O                0.1637872384        0.9553548215        0.9523474473
O                0.0476525880        0.8362121819        0.0446453242
O                0.9523474120        0.1637878181        0.9553546758
O                0.0446447895        0.0476520638        0.8362132937
O                0.9553552105        0.9523479362        0.1637867063
C                0.6969906500        0.9971113536        0.3091825710
C                0.3030093500        0.0028886464        0.6908174290
C                0.3091833027        0.6969898621        0.9971080954
C                0.6908166973        0.3030101379        0.0028919046
C                0.9971126905        0.3091834107        0.6969893190
C                0.0028873095        0.6908165893        0.3030106810
C               -0.0000747385        0.7042731744        0.9881944211
C                1.0000747385        0.2957268256        0.0118055789
C                0.9881970801       -0.0000772061        0.7042728380
C                0.0118029199        1.0000772061        0.2957271620
C                0.7042731498        0.9881946587       -0.0000748933
C                0.2957268502        0.0118053413        1.0000748933
C                0.9998696335        0.4016197663        0.0050029353
C                0.0001303665        0.5983802337        0.9949970647
C                0.0050046933        0.9998668672        0.4016204913
C                0.9949953067        0.0001331328        0.5983795087
C                0.4016203735        0.0050050480        0.9998668288
C                0.5983796265        0.9949949520        0.0001331712
C                0.4044631465        0.0016330220        0.5919872765
C                0.5955368535        0.9983669780        0.4080127235
C                0.5919867833        0.4044638560        0.0016341179
C                0.4080132167        0.5955361440        0.9983658821
C                0.0016359622        0.5919869931        0.4044634654
C                0.9983640378        0.4080130069        0.5955365346
C                0.9098237203        0.4626224951        0.0722093004
C                0.0901762797        0.5373775049        0.9277906996
C                0.0722069913        0.9098246900        0.4626229569
C                0.9277930087        0.0901753100        0.5373770431
C                0.4626227462        0.0722067378        0.9098242479
C                0.5373772538        0.9277932622        0.0901757521
C                0.5603373099        0.0671949166        0.9098744448
C                0.4396626901        0.9328050834        0.0901255552
C                0.9098768959        0.5603349271        0.0671951486
C                0.0901231041        0.4396650729        0.9328048514
C                0.0671956411        0.9098746904        0.5603364504
C                0.9328043589        0.0901253096        0.4396635496
C                0.4577263004        0.9128641318        0.5511016893
C                0.5422736996        0.0871358682        0.4488983107
C                0.5511033893        0.4577255213        0.9128634228
C                0.4488966107        0.5422744787        0.0871365772
C                0.9128626563        0.5511030082        0.4577253436
C                0.0871373437        0.4488969918        0.5422746564
C                0.0887506940        0.5402427912        0.4474151641
C                0.9112493060        0.4597572088        0.5525848359
C                0.4474145795        0.0887520285        0.5402430432
C                0.5525854205        0.9112479715        0.4597569568
C                0.5402433033        0.4474137503        0.0887520833
C                0.4597566967        0.5525862497        0.9112479167
H                0.5921016446        0.4236138986        0.8456866170
H                0.4078983554        0.5763861014        0.1543133830
H                0.8456877317        0.5921017257        0.4236124967
H                0.1543122683        0.4078982743        0.5763875033
H                0.4236136199        0.8456863505        0.5921004189
H                0.5763863801        0.1543136495        0.4078995811
H                0.5728420895        0.4052963319        0.1571355911
H                0.4271579105        0.5947036681        0.8428644089
H                0.1571362147        0.5728418503        0.4052978217
H                0.8428637853        0.4271581497        0.5947021783
H                0.4052963940        0.1571347375        0.5728431361
H                0.5947036060        0.8428652625        0.4271568639
H                0.1279325284        0.8403186851        0.4320950409
H                0.8720674716        0.1596813149        0.5679049591
H                0.4320954303        0.1279316127        0.8403183070
H                0.5679045697        0.8720683873        0.1596816930
H                0.8403208240        0.4320928771        0.1279336975
H                0.1596791760        0.5679071229        0.8720663025
H                0.1184431384        0.8401945999        0.6087848415
H                0.8815568616        0.1598054001        0.3912151585
H                0.6087855931        0.1184418272        0.8401944091
H                0.3912144069        0.8815581728        0.1598055909
H                0.8401945171        0.6087836006        0.1184453276
H                0.1598054829        0.3912163994        0.8815546724



     Writing config-only to output data dir ./pwscf.save/ :
     XML data file
     NEW-OLD atomic charge density approx. for the potential

     negative rho (up, down):  8.696E-05 0.000E+00

     total cpu time spent up to now is      298.4 secs

     Self-consistent Calculation

     iteration #  1     ecut=   100.00 Ry     beta= 0.70
     Davidson diagonalization with overlap
     ethr =  1.00E-06,  avg # of iterations =  2.0

     Threshold (ethr) on eigenvalues was too large:
     Diagonalizing with lowered threshold

     Davidson diagonalization with overlap
     ethr =  6.09E-10,  avg # of iterations =  7.0

     negative rho (up, down):  8.679E-05 0.000E+00

     total cpu time spent up to now is      315.8 secs

     total energy              =   -4009.17617368 Ry
     estimated scf accuracy    <       0.00000070 Ry

     iteration #  2     ecut=   100.00 Ry     beta= 0.70
     Davidson diagonalization with overlap
     ethr =  1.49E-10,  avg # of iterations =  3.0

     negative rho (up, down):  8.676E-05 0.000E+00

     total cpu time spent up to now is      322.8 secs

     total energy              =   -4009.17617384 Ry
     estimated scf accuracy    <       0.00000006 Ry

     iteration #  3     ecut=   100.00 Ry     beta= 0.70
     Davidson diagonalization with overlap
     ethr =  1.37E-11,  avg # of iterations = 11.0

     negative rho (up, down):  8.676E-05 0.000E+00

     total cpu time spent up to now is      334.6 secs

     total energy              =   -4009.17617388 Ry
     estimated scf accuracy    <       0.00000007 Ry

     iteration #  4     ecut=   100.00 Ry     beta= 0.70
     Davidson diagonalization with overlap
     ethr =  1.37E-11,  avg # of iterations =  8.0

     negative rho (up, down):  8.673E-05 0.000E+00

     total cpu time spent up to now is      340.6 secs

     total energy              =   -4009.17617388 Ry
     estimated scf accuracy    <       0.00000001 Ry

     iteration #  5     ecut=   100.00 Ry     beta= 0.70
     Davidson diagonalization with overlap
     ethr =  2.76E-12,  avg # of iterations = 14.0

     negative rho (up, down):  8.674E-05 0.000E+00

     total cpu time spent up to now is      354.6 secs

     total energy              =   -4009.17617389 Ry
     estimated scf accuracy    <       0.00000006 Ry

     iteration #  6     ecut=   100.00 Ry     beta= 0.70
     Davidson diagonalization with overlap
     ethr =  2.76E-12,  avg # of iterations =  2.0

     negative rho (up, down):  8.673E-05 0.000E+00

     total cpu time spent up to now is      359.8 secs

     total energy              =   -4009.17617386 Ry
     estimated scf accuracy    <       0.00000004 Ry

     iteration #  7     ecut=   100.00 Ry     beta= 0.70
     Davidson diagonalization with overlap
     ethr =  2.76E-12,  avg # of iterations = 18.0

     negative rho (up, down):  8.673E-05 0.000E+00

     total cpu time spent up to now is      375.0 secs

     total energy              =   -4009.17617389 Ry
     estimated scf accuracy    <       0.00000009 Ry

     iteration #  8     ecut=   100.00 Ry     beta= 0.70
     Davidson diagonalization with overlap
     ethr =  2.76E-12,  avg # of iterations =  7.0

     negative rho (up, down):  8.673E-05 0.000E+00

     total cpu time spent up to now is      382.5 secs

     total energy              =   -4009.17617389 Ry
     estimated scf accuracy    <       0.00000002 Ry

     iteration #  9     ecut=   100.00 Ry     beta= 0.70
     Davidson diagonalization with overlap
     ethr =  2.76E-12,  avg # of iterations =  2.0

     negative rho (up, down):  8.673E-05 0.000E+00

     total cpu time spent up to now is      387.4 secs

     total energy              =   -4009.17617388 Ry
     estimated scf accuracy    <       0.00000001 Ry

     iteration # 10     ecut=   100.00 Ry     beta= 0.70
     Davidson diagonalization with overlap
     ethr =  2.46E-12,  avg # of iterations =  7.0

     negative rho (up, down):  8.673E-05 0.000E+00

     total cpu time spent up to now is      393.0 secs

     total energy              =   -4009.17617389 Ry
     estimated scf accuracy    <          3.1E-09 Ry

     iteration # 11     ecut=   100.00 Ry     beta= 0.70
     Davidson diagonalization with overlap
     ethr =  6.53E-13,  avg # of iterations =  7.0

     negative rho (up, down):  8.673E-05 0.000E+00

     total cpu time spent up to now is      401.9 secs

     total energy              =   -4009.17617389 Ry
     estimated scf accuracy    <          1.1E-10 Ry

     iteration # 12     ecut=   100.00 Ry     beta= 0.70
     Davidson diagonalization with overlap
     ethr =  1.00E-13,  avg # of iterations =  9.0

     negative rho (up, down):  8.673E-05 0.000E+00

     total cpu time spent up to now is      411.6 secs

     total energy              =   -4009.17617389 Ry
     estimated scf accuracy    <          6.0E-10 Ry

     iteration # 13     ecut=   100.00 Ry     beta= 0.70
     Davidson diagonalization with overlap
     ethr =  1.00E-13,  avg # of iterations =  1.0

     negative rho (up, down):  8.673E-05 0.000E+00

     total cpu time spent up to now is      416.1 secs

     total energy              =   -4009.17617389 Ry
     estimated scf accuracy    <          5.2E-10 Ry

     iteration # 14     ecut=   100.00 Ry     beta= 0.70
     Davidson diagonalization with overlap
     ethr =  1.00E-13,  avg # of iterations =  2.0

     negative rho (up, down):  8.673E-05 0.000E+00

     total cpu time spent up to now is      421.2 secs

     total energy              =   -4009.17617389 Ry
     estimated scf accuracy    <          1.9E-10 Ry

     iteration # 15     ecut=   100.00 Ry     beta= 0.70
     Davidson diagonalization with overlap
     ethr =  1.00E-13,  avg # of iterations =  2.0

     negative rho (up, down):  8.673E-05 0.000E+00

     total cpu time spent up to now is      426.3 secs

     End of self-consistent calculation

          k = 0.0000 0.0000 0.0000 (129138 PWs)   bands (ev):

   -49.6186 -49.6023 -49.6021 -49.5901 -49.5881 -49.5879 -28.1074 -28.0044
   -28.0044 -27.9110 -27.9109 -27.9032 -27.7758 -27.7311 -27.7309 -27.7245
   -27.7244 -27.6977 -27.6253 -27.6253 -27.5896 -27.5761 -27.5760 -27.5755
   -22.8397 -22.7927 -22.7926 -22.7869 -22.7868 -22.7614 -22.5846 -22.5780
   -22.5207 -22.5205 -22.5184 -22.5182 -20.5534 -20.5372 -20.5370 -20.5076
   -20.5075 -20.4719 -20.3478 -20.3477 -20.3245 -20.3244 -20.2411 -20.2370
   -17.9969 -17.7646 -17.7645 -17.5706 -17.5705 -17.5283 -17.3915 -17.3905
   -17.3905 -17.2135 -17.2134 -17.2112 -15.0497 -15.0496 -15.0402 -14.8617
   -14.8410 -14.8410 -14.4886 -14.4864 -14.4863 -14.3145 -14.3144 -14.3124
   -12.2911 -12.2548 -12.2548 -12.0950 -12.0364 -12.0363 -10.9636 -10.9635
   -10.9521 -10.7867 -10.7866 -10.7699 -10.2319 -10.2318 -10.1507 -10.0286
    -9.8550  -9.8549  -9.6155  -9.5563  -9.5563  -9.4469  -9.3772  -9.3771
    -8.7845  -8.6125  -8.5375  -8.5374  -8.3955  -8.3954  -8.3550  -8.1977
    -8.1976  -8.1500  -8.1499  -7.8698  -7.8678  -7.8678  -7.7630  -7.7630
    -7.6638  -7.6493  -7.6491  -7.6400  -7.5387  -7.3861  -7.3860  -7.2550
    -7.1557  -6.9180  -6.9178  -6.8593  -6.8327  -6.8324  -6.8324  -6.7369
    -6.7368  -6.6998  -6.6893  -6.6893  -6.6675  -6.6674  -6.6565  -6.5703
    -6.5350  -6.5350  -6.5126  -6.4532  -6.4256  -6.4256  -6.3482  -6.3481
    -6.2159  -6.1892  -6.1892  -6.0322  -6.0322  -6.0148  -5.7292  -5.6355
    -5.6355  -5.4588  -5.2494  -5.2493  -5.1330  -5.0012  -4.9581  -4.9581
    -4.8914  -4.8913  -4.8913  -4.8912  -4.8674  -4.7831  -4.7687  -4.7687
    -4.7333  -4.2521  -4.2520  -4.1993  -4.1516  -4.1515  -4.1514  -4.1452
    -4.1452  -3.9878  -3.9878  -3.9785  -3.9785  -3.9605  -3.8061  -3.6436
    -3.6436  -3.6118  -3.5216  -3.4038  -3.3729  -3.3729  -3.2997  -3.2430
    -3.2430  -3.2078  -3.1687  -3.1686  -3.0833  -3.0436  -3.0435  -2.9805
    -2.9804  -2.9239  -2.9238  -2.8191  -2.7486  -2.6854  -2.6853  -2.6849
    -2.6378  -2.6378  -2.5839  -2.5838  -2.5334  -2.5322  -2.5322  -2.4847
    -2.4274  -2.4273  -2.3932  -2.3800  -2.3795  -2.3743  -2.3742  -2.3456
    -2.3456  -2.2869  -2.2400  -2.2399  -2.1753  -2.1752  -2.1585  -1.6343
    -1.6342  -1.4989

     highest occupied level (ev):    -1.4989

!    total energy              =   -4009.17617389 Ry
     total all-electron energy =    -51389.593280 Ry
     estimated scf accuracy    <          4.1E-11 Ry

     The total energy is the sum of the following terms:
     one-electron contribution =   -6098.64534095 Ry
     hartree contribution      =    3180.77557330 Ry
     xc contribution           =    -570.37296427 Ry
     ewald contribution        =    1322.78313995 Ry
     one-center paw contrib.   =   -1843.71658193 Ry

     convergence has been achieved in  15 iterations

     negative rho (up, down):  8.673E-05 0.000E+00

     Forces acting on atoms (cartesian axes, Ry/au):

     atom    1 type  2   force =    -0.00002432   -0.00005512   -0.00002103
     atom    2 type  2   force =     0.00002432    0.00005512    0.00002103
     atom    3 type  2   force =    -0.00001720   -0.00001742   -0.00000084
     atom    4 type  2   force =     0.00001720    0.00001742    0.00000084
     atom    5 type  2   force =    -0.00004172   -0.00001754    0.00000721
     atom    6 type  2   force =     0.00004172    0.00001754   -0.00000721
     atom    7 type  4   force =    -0.00002656   -0.00005965    0.00000537
     atom    8 type  4   force =     0.00002656    0.00005965   -0.00000537
     atom    9 type  4   force =    -0.00005106    0.00007993   -0.00003276
     atom   10 type  4   force =     0.00005106   -0.00007993    0.00003276
[...]
     atom    2 type  2   force =    -0.00001337   -0.00001149   -0.00000915
     atom    3 type  2   force =    -0.00000746    0.00001463   -0.00001318
     atom    4 type  2   force =     0.00000746   -0.00001463    0.00001318
     atom    5 type  2   force =     0.00000478    0.00000958    0.00000639
     atom    6 type  2   force =    -0.00000478   -0.00000958   -0.00000639
     atom    7 type  4   force =     0.00000572   -0.00001015   -0.00000353
     atom    8 type  4   force =    -0.00000572    0.00001015    0.00000353
     atom    9 type  4   force =     0.00001561   -0.00005944   -0.00003025
     atom   10 type  4   force =    -0.00001561    0.00005944    0.00003025
     atom   11 type  4   force =     0.00000023   -0.00000627    0.00002187
     atom   12 type  4   force =    -0.00000023    0.00000627   -0.00002187
     atom   13 type  4   force =     0.00001540    0.00004267   -0.00001842
     atom   14 type  4   force =    -0.00001540   -0.00004267    0.00001842
     atom   15 type  4   force =     0.00000870    0.00000528    0.00003779
     atom   16 type  4   force =    -0.00000870   -0.00000528   -0.00003779
     atom   17 type  4   force =     0.00000413    0.00003239   -0.00003122
     atom   18 type  4   force =    -0.00000413   -0.00003239    0.00003122
     atom   19 type  4   force =     0.00000025    0.00000421    0.00000965
     atom   20 type  4   force =    -0.00000025   -0.00000421   -0.00000965
     atom   21 type  4   force =     0.00000099   -0.00003624   -0.00004168
     atom   22 type  4   force =    -0.00000099    0.00003624    0.00004168
     atom   23 type  4   force =     0.00002822    0.00000299    0.00000169
     atom   24 type  4   force =    -0.00002822   -0.00000299   -0.00000169
     atom   25 type  4   force =     0.00005349    0.00001679   -0.00002469
     atom   26 type  4   force =    -0.00005349   -0.00001679    0.00002469
     atom   27 type  4   force =     0.00000410    0.00002147    0.00001190
     atom   28 type  4   force =    -0.00000410   -0.00002147   -0.00001190
     atom   29 type  4   force =    -0.00001710    0.00000194   -0.00002907
     atom   30 type  4   force =     0.00001710   -0.00000194    0.00002907
     atom   31 type  4   force =     0.00000290   -0.00002305   -0.00002456
     atom   32 type  4   force =    -0.00000290    0.00002305    0.00002456
     atom   33 type  4   force =    -0.00001173    0.00001734   -0.00001327
     atom   34 type  4   force =     0.00001173   -0.00001734    0.00001327
     atom   35 type  4   force =    -0.00002777    0.00000154    0.00001944
     atom   36 type  4   force =     0.00002777   -0.00000154   -0.00001944
     atom   37 type  3   force =     0.00001402    0.00000915   -0.00001615
     atom   38 type  3   force =    -0.00001402   -0.00000915    0.00001615
     atom   39 type  3   force =    -0.00005285   -0.00000681   -0.00008080
     atom   40 type  3   force =     0.00005285    0.00000681    0.00008080
     atom   41 type  3   force =     0.00007553   -0.00001236    0.00000559
     atom   42 type  3   force =    -0.00007553    0.00001236   -0.00000559
     atom   43 type  3   force =     0.00003599    0.00000374   -0.00002324
     atom   44 type  3   force =    -0.00003599   -0.00000374    0.00002324
     atom   45 type  3   force =     0.00005402   -0.00008034    0.00001307
     atom   46 type  3   force =    -0.00005402    0.00008034   -0.00001307
     atom   47 type  3   force =     0.00001791   -0.00002241    0.00005280
     atom   48 type  3   force =    -0.00001791    0.00002241   -0.00005280
     atom   49 type  3   force =     0.00001067   -0.00003049   -0.00001739
     atom   50 type  3   force =    -0.00001067    0.00003049    0.00001739
     atom   51 type  3   force =     0.00001644   -0.00005822   -0.00001390
     atom   52 type  3   force =    -0.00001644    0.00005822    0.00001390
     atom   53 type  3   force =    -0.00002078   -0.00000114    0.00001159
     atom   54 type  3   force =     0.00002078    0.00000114   -0.00001159
     atom   55 type  3   force =    -0.00000851    0.00001588    0.00001798
     atom   56 type  3   force =     0.00000851   -0.00001588   -0.00001798
     atom   57 type  3   force =    -0.00000845   -0.00003019   -0.00004002
     atom   58 type  3   force =     0.00000845    0.00003019    0.00004002
     atom   59 type  3   force =     0.00005859    0.00000833   -0.00002195
     atom   60 type  3   force =    -0.00005859   -0.00000833    0.00002195
     atom   61 type  3   force =    -0.00000694    0.00000796    0.00002093
     atom   62 type  3   force =     0.00000694   -0.00000796   -0.00002093
     atom   63 type  3   force =    -0.00001185    0.00004322   -0.00001149
     atom   64 type  3   force =     0.00001185   -0.00004322    0.00001149
     atom   65 type  3   force =     0.00000191    0.00001014   -0.00000229
     atom   66 type  3   force =    -0.00000191   -0.00001014    0.00000229
     atom   67 type  3   force =     0.00000492   -0.00000774    0.00002131
     atom   68 type  3   force =    -0.00000492    0.00000774   -0.00002131
     atom   69 type  3   force =     0.00002815   -0.00000669   -0.00002432
     atom   70 type  3   force =    -0.00002815    0.00000669    0.00002432
     atom   71 type  3   force =     0.00001517   -0.00002565    0.00000591
     atom   72 type  3   force =    -0.00001517    0.00002565   -0.00000591
     atom   73 type  3   force =     0.00000321    0.00000167    0.00000337
     atom   74 type  3   force =    -0.00000321   -0.00000167   -0.00000337
     atom   75 type  3   force =     0.00002451    0.00000764    0.00003853
     atom   76 type  3   force =    -0.00002451   -0.00000764   -0.00003853
     atom   77 type  3   force =    -0.00003302    0.00000517    0.00000477
     atom   78 type  3   force =     0.00003302   -0.00000517   -0.00000477
     atom   79 type  3   force =    -0.00005375    0.00000354   -0.00000341
     atom   80 type  3   force =     0.00005375   -0.00000354    0.00000341
     atom   81 type  3   force =    -0.00001006   -0.00001258   -0.00000032
     atom   82 type  3   force =     0.00001006    0.00001258    0.00000032
     atom   83 type  3   force =     0.00000822    0.00000385    0.00002523
     atom   84 type  3   force =    -0.00000822   -0.00000385   -0.00002523
     atom   85 type  1   force =     0.00000046    0.00000726   -0.00000775
     atom   86 type  1   force =    -0.00000046   -0.00000726    0.00000775
     atom   87 type  1   force =     0.00001643   -0.00000462    0.00001693
     atom   88 type  1   force =    -0.00001643    0.00000462   -0.00001693
     atom   89 type  1   force =     0.00001320   -0.00000005   -0.00000430
     atom   90 type  1   force =    -0.00001320    0.00000005    0.00000430
     atom   91 type  1   force =    -0.00002148    0.00000799   -0.00000543
     atom   92 type  1   force =     0.00002148   -0.00000799    0.00000543
     atom   93 type  1   force =     0.00000817   -0.00001346   -0.00000037
     atom   94 type  1   force =    -0.00000817    0.00001346    0.00000037
     atom   95 type  1   force =    -0.00000123    0.00000073   -0.00001555
     atom   96 type  1   force =     0.00000123   -0.00000073    0.00001555
     atom   97 type  1   force =     0.00002670   -0.00000771    0.00001012
     atom   98 type  1   force =    -0.00002670    0.00000771   -0.00001012
     atom   99 type  1   force =     0.00002580    0.00001367    0.00000235
     atom  100 type  1   force =    -0.00002580   -0.00001367   -0.00000235
     atom  101 type  1   force =     0.00001985    0.00001890    0.00001031
     atom  102 type  1   force =    -0.00001985   -0.00001890   -0.00001031
     atom  103 type  1   force =    -0.00000663    0.00001153   -0.00001459
     atom  104 type  1   force =     0.00000663   -0.00001153    0.00001459
     atom  105 type  1   force =    -0.00000471    0.00000454    0.00000277
     atom  106 type  1   force =     0.00000471   -0.00000454   -0.00000277
     atom  107 type  1   force =    -0.00000045   -0.00000283    0.00000653
     atom  108 type  1   force =     0.00000045    0.00000283   -0.00000653

     Total force =     0.000416     Total SCF correction =     0.000014


     Computing stress (Cartesian axis) and pressure


     negative rho (up, down):  8.673E-05 0.000E+00
          total   stress  (Ry/bohr**3)                   (kbar)     P=       -0.00
  -0.00000003   0.00000003  -0.00000002           -0.01        0.00       -0.00
   0.00000003   0.00000000   0.00000004            0.00        0.00        0.01
  -0.00000002   0.00000004  -0.00000003           -0.00        0.01       -0.01

     Message from routine bfgs:
     history already reset at previous step: exiting
     Energy error            =      5.8E-08 Ry
     Gradient error          =      8.1E-05 Ry/Bohr
     Cell gradient error     =      5.8E-03 kbar

     bfgs failed after   8 scf cycles and   7 bfgs steps, convergence not achieved
     (criteria: energy <  3.6E-06 Ry, force <  1.0E-05 Ry/Bohr, cell <  5.0E-01 kbar)

     End of BFGS Geometry Optimization

     Final enthalpy           =   -4009.1761758841 Ry

     File ./pwscf.bfgs deleted, as requested
Begin final coordinates
     new unit-cell volume =  15305.90574 a.u.^3 (  2268.10123 Ang^3 )
     density =      1.19191 g/cm^3

CELL_PARAMETERS (alat= 27.59009591)
   0.997810689   0.000095007   0.000067698
   0.473417990   0.878351909   0.000067573
   0.473417702   0.282669951   0.831625357

ATOMIC_POSITIONS (crystal)
Zr               0.8730119090        0.1189683950        0.1221827821
Zr               0.1269880910        0.8810306050        0.8778172179
Zr               0.1221828811        0.8730119631        0.1189677154
Zr               0.8778171189        0.1269880369        0.8810312846
Zr               0.1189685450        0.1221828766        0.8730112160
Zr               0.8810304550        0.8778171234        0.1269887840
O                0.9196051423        0.2614956323        0.0847293147
O                0.0803948577        0.7385043677        0.9152706853
O                0.0847281485        0.9196054760        0.2614962093
O                0.9152718515        0.0803945240        0.7385037907
O                0.2614967902        0.0847300441        0.9196021091
O                0.7385032098        0.9152699559        0.0803978909
O                0.7547259632        0.0540522151        0.9177700700
O                0.2452740368        0.9459477849        0.0822299300
O                0.9177684196        0.7547248067        0.0540550275
O                0.0822315804        0.2452751933        0.9459449725
O                0.0540554412        0.9177676956        0.7547253380
O                0.9459445588        0.0822323044        0.2452746620
O                0.2663790385        0.9223132237        0.7338097018
O                0.7336209615        0.0776867763        0.2661902982
O                0.7338091761        0.2663787722        0.9223155585
O                0.2661908239        0.7336212278        0.0776844415
O                0.9223131900        0.7338097222        0.2663790464
O                0.0776868100        0.2661902778        0.7336209536
O                0.0835276546        0.7269660780        0.2590490467
O                0.9164723454        0.2730339220        0.7409509533
O                0.2590486529        0.0835277916        0.7269662301
O                0.7409513471        0.9164722084        0.2730337699
O                0.7269667182        0.2590490585        0.0835295072
O                0.2730332818        0.7409509415        0.9164704928
O                0.8362338899        0.0446360148        0.0476470817
O                0.1637661101        0.9553639852        0.9523529183
O                0.0476462126        0.8362340126        0.0446358457
O                0.9523537874        0.1637659874        0.9553641543
O                0.0446361220        0.0476460327        0.8362344796
O                0.9553638780        0.9523539673        0.1637655204
C                0.6969870816        0.9971093656        0.3091861538
C                0.3030129184        0.0028906344        0.6908138462
C                0.3091861055        0.6969867881        0.9971099048
C                0.6908138945        0.3030132119        0.0028900952
C                0.9971080084        0.3091860352        0.6969869650
C                0.0028919916        0.6908139648        0.3030130350
C               -0.0000753150        0.7042714987        0.9881947388
C                1.0000753150        0.2957285013        0.0118052612
C                0.9881929616       -0.0000727317        0.7042713205
C                0.0118070384        1.0000727317        0.2957286795
C                0.7042715171        0.9881937058       -0.0000738487
C                0.2957284829        0.0118062942        1.0000738487
C                0.9998674480        0.4016157138        0.0050093623
C                0.0001325520        0.5983842862        0.9949906377
C                0.0050082863        0.9998683549        0.4016157063
C                0.9949917137        0.0001316451        0.5983842937
C                0.4016156717        0.0050096757        0.9998669605
C                0.5983843283        0.9949903243        0.0001330395
C                0.4044616385        0.0016336515        0.5919883363
C                0.5955383615        0.9983663485        0.4080116637
C                0.5919883449        0.4044617049        0.0016349968
C                0.4080116551        0.5955382951        0.9983650032
C                0.0016333847        0.5919884639        0.4044618490
C                0.9983666153        0.4080115361        0.5955381510
C                0.9098430792        0.4626241158        0.0721988546
C                0.0901569208        0.5373758842        0.9278011454
C                0.0721987617        0.9098411523        0.4626253983
C                0.9278012383        0.0901588477        0.5373746017
C                0.4626257029        0.0721978358        0.9098415517
C                0.5373742971        0.9278021642        0.0901584483
C                0.5603309189        0.0671809935        0.9098935294
C                0.4396690811        0.9328190065        0.0901064706
C                0.9098937387        0.5603294216        0.0671829419
C                0.0901062613        0.4396705784        0.9328170581
C                0.0671812332        0.9098944084        0.5603302241
C                0.9328187668        0.0901055916        0.4396697759
C                0.4577300572        0.9128794414        0.5510990612
C                0.5422699428        0.0871205586        0.4489009388
C                0.5510999018        0.4577301337        0.9128786584
C                0.4489000982        0.5422698663        0.0871213416
C                0.9128801638        0.5510997553        0.4577294512
C                0.0871198362        0.4489002447        0.5422705488
C                0.0887378524        0.5402374553        0.4474189310
C                0.9112621476        0.4597625447        0.5525810690
C                0.4474182695        0.0887368425        0.5402380947
C                0.5525817305        0.9112631575        0.4597619053
C                0.5402374328        0.4474183686        0.0887368467
C                0.4597625672        0.5525816314        0.9112631533
H                0.5920896658        0.4236263791        0.8457082217
H                0.4079103342        0.5763736209        0.1542917783
H                0.8457085956        0.5920897624        0.4236250300
H                0.1542914044        0.4079102376        0.5763749700
H                0.4236264748        0.8457082274        0.5920880500
H                0.5763735252        0.1542917726        0.4079119500
H                0.5728273097        0.4053087688        0.1571144683
H                0.4271726903        0.5946912312        0.8428855317
H                0.1571139945        0.5728270827        0.4053103609
H                0.8428860055        0.4271729173        0.5946896391
H                0.4053088775        0.1571132958        0.5728283524
H                0.5946911225        0.8428867042        0.4271716476
H                0.1279189581        0.8403423351        0.4321080579
H                0.8720810419        0.1596576649        0.5678919421
H                0.4321085939        0.1279184395        0.8403415322
H                0.5678914061        0.8720815605        0.1596584678
H                0.8403437191        0.4321059474        0.1279207025
H                0.1596562809        0.5678940526        0.8720792975
H                0.1184264766        0.8402209079        0.6087697719
H                0.8815735234        0.1597790921        0.3912302281
H                0.6087705061        0.1184249364        0.8402209001
H                0.3912294939        0.8815750636        0.1597790999
H                0.8402218437        0.6087679610        0.1184279177
H                0.1597781563        0.3912320390        0.8815720823
End final coordinates



     Writing config-only to output data dir ./pwscf.save/ :
     XML data file

     Writing all to output data dir ./pwscf.save/ :
     XML data file, charge density, pseudopotentials, collected wavefunctions

     init_run     :      5.02s CPU      5.68s WALL (       1 calls)
     electrons    :    862.51s CPU    877.75s WALL (       8 calls)
     update_pot   :      0.94s CPU      1.02s WALL (       7 calls)
     forces       :     17.76s CPU     18.05s WALL (       8 calls)
     stress       :     27.63s CPU     27.79s WALL (       8 calls)

     Called by init_run:
     wfcinit      :      3.08s CPU      3.16s WALL (       1 calls)
     potinit      :      0.26s CPU      0.30s WALL (       1 calls)
     hinit0       :      0.34s CPU      0.50s WALL (       1 calls)

     Called by electrons:
     c_bands      :    763.69s CPU    775.34s WALL (     109 calls)
     sum_band     :     70.70s CPU     72.30s WALL (     109 calls)
     v_of_rho     :      3.86s CPU      4.21s WALL (     110 calls)
     newd         :     17.75s CPU     18.24s WALL (     110 calls)
     PAW_pot      :      6.26s CPU      6.77s WALL (     117 calls)
     mix_rho      :      1.21s CPU      1.24s WALL (     109 calls)

     Called by c_bands:
     init_us_2    :      1.62s CPU      1.91s WALL (     226 calls)
     regterg      :    762.17s CPU    773.54s WALL (     109 calls)

     Called by *egterg:
     rdiaghg      :     72.81s CPU     73.66s WALL (     818 calls)
     h_psi        :    371.77s CPU    377.96s WALL (     833 calls)
     s_psi        :    141.25s CPU    141.39s WALL (     833 calls)
     g_psi        :      0.17s CPU      0.17s WALL (     723 calls)

     Called by h_psi:
     h_psi:calbec :    151.67s CPU    154.92s WALL (     833 calls)
     vloc_psi     :     77.71s CPU     80.48s WALL (     833 calls)
     vloc_psi:tg_ :      0.25s CPU      0.25s WALL (     833 calls)
     add_vuspsi   :    141.86s CPU    142.03s WALL (     833 calls)

     General routines
     calbec       :    213.88s CPU    218.28s WALL (     989 calls)
     fft          :      4.66s CPU      4.89s WALL (    1368 calls)
     ffts         :      0.59s CPU      0.60s WALL (     219 calls)
     fftw         :     85.17s CPU     88.23s WALL (  100419 calls)
     interpolate  :      0.76s CPU      0.77s WALL (     110 calls)

     Parallel routines
     fft_scatt_xy :      3.49s CPU      3.58s WALL (  102006 calls)
     fft_scatt_yz :     72.60s CPU     75.43s WALL (  102006 calls)
     fft_scatt_tg :      0.32s CPU      0.33s WALL (  100419 calls)

     PWSCF        :  15m21.47s CPU  15m38.96s WALL


   This run was terminated on:   8:29:44   4Jun2025            

=------------------------------------------------------------------------------=
   JOB DONE.
=------------------------------------------------------------------------------=
