
                                 *****************
                                 * O   R   C   A *
                                 *****************

                                            #,                                       
                                            ###                                      
                                            ####                                     
                                            #####                                    
                                            ######                                   
                                           ########,                                 
                                     ,,################,,,,,                         
                               ,,#################################,,                 
                          ,,##########################################,,             
                       ,#########################################, ''#####,          
                    ,#############################################,,   '####,        
                  ,##################################################,,,,####,       
                ,###########''''           ''''###############################       
              ,#####''   ,,,,##########,,,,          '''####'''          '####       
            ,##' ,,,,###########################,,,                        '##       
           ' ,,###''''                  '''############,,,                           
         ,,##''                                '''############,,,,        ,,,,,,###''
      ,#''                                            '''#######################'''  
     '                                                          ''''####''''         
             ,#######,   #######,   ,#######,      ##                                
            ,#'     '#,  ##    ##  ,#'     '#,    #''#        ,####,    ,#,          
            ##       ##  ##   ,#'  ##            #'  '#       #'       ,# #          
            ##       ##  #######   ##           ,######,      #####,      #          
            '#,     ,#'  ##    ##  '#,     ,#' ,#      #,     #,   #      #          
             '#######'   ##     ##  '#######'  #'      '#     '####' #    #          



                #########################################################
                #                        -***-                          #
                #          Department of theory and spectroscopy        #
                #                                                       #
                #                      Frank Neese                      #
                #                                                       #
                #     Directorship, Architecture, Infrastructure        #
                #                    SHARK, DRIVERS                     #
                #        Core code/Algorithms in most modules           #
                #                                                       #
                #        Max Planck Institute fuer Kohlenforschung      #
                #                Kaiser Wilhelm Platz 1                 #
                #                 D-45470 Muelheim/Ruhr                 #
                #                      Germany                          #
                #                                                       #
                #                  All rights reserved                  #
                #                        -***-                          #
                #########################################################


                         Program Version 6.1.0  -  RELEASE   -
                                (GIT: $679e74b$)
                          ($2025-06-10 18:02:51 +0200$)


 With contributions from (in alphabetic order):
[Max-Planck-Institut fuer Kohlenforschung]                               
  Daniel Aravena         : Magnetic Suceptibility                        
  Michael Atanasov       : Ab Initio Ligand Field Theory (pilot matlab implementation)
  Alexander A. Auer      : GIAO ZORA, VPT2 properties, NMR spectrum      
  Ute Becker             : All parallelization in ORCA, NUMFREQ, NUMCALC 
  Giovanni Bistoni       : ED, misc. LED, open-shell LED, HFLD           
  Dmytro Bykov           : pre 5.0 version of the SCF Hessian            
  Marcos Casanova-Páez   : Triplet and SCS-CIS(D). UHF-(DLPNO)-IP/EA/STEOM-CCSD. UHF-CVS-IP/STEOM-CCSD   
  Vijay G. Chilkuri      : MRCI spin determinant printing, contributions to CSF-ICE 
  Pauline Colinet        : FMM embedding                                 
  Dipayan Datta          : RHF DLPNO-CCSD density                        
  Achintya Kumar Dutta   : EOM-CC, STEOM-CC                              
  Nicolas Foglia         : Exact transition moments, OPA infrastructure, MCD improvements    
  Dmitry Ganyushin       : Spin-Orbit,Spin-Spin,Magnetic field MRCI      
  Miquel Garcia-Rates    : C-PCM and meta-GGA Hessian, CCSD/C-PCM, Gaussian charge scheme 
  Tiago L. C. Gouveia    : GS-ROHF, GS-ROCIS                             
  Yang Guo               : DLPNO-NEVPT2, F12-NEVPT2, CIM, IAO-localization        
  Andreas Hansen         : Spin unrestricted coupled pair/coupled cluster methods 
  Ingolf Harden          : AUTO-CI MPn and infrastructure                
  Benjamin Helmich-Paris : MC-RPA, TRAH-(SCF,CASSCF), AVAS, COSX integrals, SCF dyn. polar., MC-PDFT, srDFT 
  Lee Huntington         : MR-EOM, pCC                                   
  Robert Izsak           : Overlap fitted RIJCOSX, COSX-SCS-MP3, EOM     
  Riya Kayal             : Wick's Theorem for AUTO-CI, AUTO-CI UHF-CCSDT 
  Emily Kempfer          : AUTO-CI RHF CISDT and CCSDT, approximate NEVPT4
  Christian Kollmar      : KDIIS, OOCD, Brueckner-CCSD(T), CCSD density, CASPT2, CASPT2-K, improved NEVPT2 
  Axel Koslowski         : Symmetry handling                             
  Simone Kossmann        : meta-GGA functionals, TD-DFT gradient, OOMP2, (MP2 Hessian; deprecated post 5.0) 
  Lucas Lang             : DCDCAS, Hyperfine gauge corrections, ICE-SOC+SSC
  Marvin Lechner         : AUTO-CI (C++ implementation), FIC-MRCC        
  Spencer Leger          : CASSCF response                               
  Dagmar Lenk            : GEPOL surface, SMD, ORCA-2-JSON               
  Dimitrios Liakos       : Extrapolation schemes; Compound Job, Property file
  Dimitrios Manganas     : Further ROCIS development; embedding schemes. LFT, Crystal Embedding 
  Dimitrios Pantazis     : SARC Basis sets                               
  Anastasios Papadopoulos: AUTO-CI, single reference methods and gradients 
  Taras Petrenko         : pre 6.0 DFT Hessian and TD-DFT gradient,  ECA, NRVS 
  Petra Pikulova         : Analytic Raman intensities                    
  Peter Pinski           : DLPNO-MP2, DLPNO-MP2 Gradient                 
  Shashank Vittal Rao    : ES-AILFT, MagRelax                            
  Christoph Reimann      : Effective Core Potentials                     
  Marius Retegan         : Local ZFS, SOC                                
  Christoph Riplinger    : Optimizer, TS searches, QM/MM, DLPNO-CCSD(T), (RO)-DLPNO pert. Triples 
  Michael Roemelt        : Original ROCIS implementation, recursive CI coupling coefficients
  Masaaki Saitow         : Open-shell DLPNO-CCSD energy and density      
  Barbara Sandhoefer     : DKH picture change effects                    
  Yorick L. A. Schmerwitz: GMF and freeze-and-release deltaSCF, NEB S-IDPP initial path                    
  Kantharuban Sivalingam : CASSCF convergence/infrastructure, NEVPT2, NEVPT3, NEVPT4(SD), FIC-MRCI and CEPA variants
  Bernardo de Souza      : ESD, SOC TD-DFT                               
  Georgi L. Stoychev     : AutoAux, RI-MP2 NMR, DLPNO-MP2 response, X2C  
  Van Anh Tran           : RI-MP2 g-tensors                              
  Willem Van den Heuvel  : Paramagnetic NMR                              
  Zikuan Wang            : NOTCH, Electric field optimization            
  Frank Wennmohs         : Technical directorship and infrastructure     
  Hang Xu                : AUTO-CI-Response properties                   
                                                                         
[FACCTs GmbH]                                                            
  Markus Bursch, Nicolas Foglia, Miquel Garcia-Rates, Ingolf Harden, Hagen Neugebauer, Anastasios Papadopoulos, 
  Christoph Riplinger, Bernardo de Souza, Georgi L. Stoychev                                                    
                                                                 
  APM, various basis sets, CI-OPT, improved COSX, DLPNO-Multilevel,           
  DOCKER, DRACO, updates on ESD, Fragmentator, GOAT, IRC, LR-CPCM, L-BFGS, MBIS, meta-GGA TD-DFT gradient, ML-optimized integration grids, 
  MM, NACMEs, nearIR, NEB, NEB-TS, NL-DFT gradient (VV10), 2- and 3-layer-ONIOM, interface openCOSMO-RS, QMMM,   
  Crystal-QMMM, RESP, rigid body optimization, SF, symmetry and pop. for TD-DFT, various functionals, SOLVATOR                                   
                                                                         
[Other institutions]                                                     
  V. Asgeirsson          : NEB                                           
  Christoph Bannwarth    : sTDA-DFT, sTD-DFT, PBEh-3c, B97-3c, D3        
  Giovanni Bistoni       : ETS/NOCV, ADLD/ADEX, COVALED                  
  Martin Brehm           : Molecular dynamics                            
  Ronald Cardenas        : ETS/NOCV                                      
  Martina Colucci        : COVALED                                       
  Sebastian Ehlert       : rSCAN, r2SCAN, r2SCAN-3c, D4, dhf basis sets  
  Marvin Friede          : D4 for Fr, Ra, Ac-Lr                          
  Lars Goerigk           : TD-DFT with DH, B97 family of functionals     
  Stefan Grimme          : VdW corrections, initial TS optimization, DFT functionals, gCP, sTDA/sTD-DF 
  Waldemar Hujo          : DFT-NL                                        
  H. Jonsson             : NEB                                           
  Holger Kruse           : gCP                                           
  Marcel Mueller         : wB97X-3c, vDZP basis set                      
  Hagen Neugebauer       : wr2SCAN, Native XTB                           
  Gianluca Regni         : ADLD/ADEX                                     
  Tobias Risthaus        : pre 6.0 range-separated hybrid DFT and stability analysis
  Lukas Wittmann         : regularized MP2, r2SCAN double-hybrids, wr2SCAN        
                                                                         
We gratefully acknowledge several colleagues who have allowed us to      
interface, adapt or use parts of their codes:                            
  Ed Valeev, F. Pavosevic, A. Kumar             : LibInt (2-el integral package), F12 methods 
  Garnet Chan, S. Sharma, J. Yang, R. Olivares  : DMRG                   
  Ulf Ekstrom                                   : XCFun DFT Library      
  Mihaly Kallay                                 : mrcc  (arbitrary order and MRCC methods)
  Frank Weinhold                                : gennbo (NPA and NBO analysis)           
  Simon Mueller                                 : openCOSMO-RS                            
  Christopher J. Cramer and Donald G. Truhlar   : smd solvation model                     
  S Lehtola, MJT Oliveira, MAL Marques          : LibXC Library                           
  Liviu Ungur et al                             : ANISO software                          


 Your calculation uses the libint2 library for the computation of 2-el integrals
 For citations please refer to: http://libint.valeyev.net

 Your ORCA version has been built with support for libXC version: 7.0.0
 For citations please refer to: https://libxc.gitlab.io

 This ORCA versions uses:
   CBLAS   interface :  Fast vector & matrix operations
   LAPACKE interface :  Fast linear algebra routines
   SCALAPACK package :  Parallel linear algebra routines
   Shared memory     :  Shared parallel matrices
   BLAS/LAPACK       :  OpenBLAS 0.3.29  USE64BITINT DYNAMIC_ARCH NO_AFFINITY Bulldozer SINGLE_THREADED
        Core in use  :  Bulldozer
   Copyright (c) 2011-2014, The OpenBLAS Project


  ***********************************
  * Starting time: Thu Aug 14 16:42:11 2025
  * Host name:     chromium12
  * Process ID:    187757
  * Working dir.:  /local/scratch/mehlhorn/61927
  ***********************************



***************************************
The coordinates will be read from file: start.xyz
***************************************


Your calculation utilizes the atom-pairwise dispersion correction
with the Becke-Johnson damping scheme (D3BJ)


Warning: RI is on but no J-basis has been assigned. Assigning Def2/J (nothing to worry about!)
================================================================================

----- Orbital basis set information -----
Your calculation utilizes the basis: def2-SV(P)
   F. Weigend and R. Ahlrichs, Phys. Chem. Chem. Phys. 7, 3297 (2005).

----- AuxJ basis set information -----
Your calculation utilizes the auxiliary basis: def2/J
   H-Rn: F. Weigend, Phys. Chem. Chem. Phys. 8, 1057 (2006).
   Fr-Lr: K. Eichkorn, F. Weigend, O. Treutler, R. Ahlrichs; Theor. Chem. Acc. 97, 119 (1997).

================================================================================
                                        WARNINGS
                       Please study these warnings very carefully!
================================================================================


WARNING: Gradients are needed
  ===> : At least TightSCF should be used for SCF convergence

WARNING: Geometry Optimization
  ===> : Switching off AutoStart
         For restart on a previous wavefunction, please use MOREAD

================================================================================
                                       INPUT FILE
================================================================================
NAME = run.inp
|  1> # Geometry optimization for (AlH3)n cluster
|  2> 
|  3> %pal nprocs 24  end
|  4> 
|  5> %geom MaxIter 500 end
|  6> 
|  7> 
|  8> ! PBE def2-SV(P)
|  9> ! RKS	# closed shell for AlH3
| 10> ! D3    #  dispersion correction
| 11> ! Freq 	# Frequency analysis to check the stabiltity of the structures
| 12> 
| 13> ! NoPop # population analysis not necessary	
| 14> 
| 15> ! RI
| 16> ! DEFGRID2
| 17> ! NormalSCF
| 18> ! SloppyOpt
| 19> 
| 20> ! SmallPrint
| 21> 
| 22> 
| 23> * xyzFile 0 1 start.xyz # only maingroup elements H and Al so there should be no net spin
| 24> 
| 25>                          ****END OF INPUT****
================================================================================

                       *****************************
                       * Geometry Optimization Run *
                       *****************************

Geometry optimization settings:
Update method            Update   .... BFGS
Choice of coordinates    CoordSys .... (2022) Redundant Internals
Initial Hessian          InHess   .... Almloef's Model
Max. no of cycles        MaxIter  .... 500

Convergence Tolerances:
Energy Change            TolE     ....  8.0000e-05 Eh
Max. Gradient            TolMAXG  ....  5.0000e-03 Eh/bohr
RMS Gradient             TolRMSG  ....  1.0000e-03 Eh/bohr
Max. Displacement        TolMAXD  ....  3.0000e-02 bohr
RMS Displacement         TolRMSD  ....  2.0000e-02 bohr
Strict Convergence                .... False

------------------------------------------------------------------------------
                        ORCA OPTIMIZATION COORDINATE SETUP
------------------------------------------------------------------------------

The optimization will be done in redundant internal coordinates (2022)
Making redundant internal coordinates   ...  (2022 redundants) done
Evaluating the initial hessian          ...  (Almloef) done
Evaluating the coordinates              ...  done
Calculating the B-matrix                .... done
Calculating the G-matrix                .... done
The number of degrees of freedom        ....  350

    -----------------------------------------------------------------
                    Redundant Internal Coordinates


    -----------------------------------------------------------------
         Definition                    Initial Value    Approx d2E/dq
    -----------------------------------------------------------------
      1. B(H   8,Al  7)                  2.1553         0.050397   
      2. B(H   9,Al  7)                  2.3047         0.029106   
      3. B(H  10,Al  6)                  3.0021         0.010000   
      4. B(H  10,H   9)                  3.2749         0.010000   
      5. B(H  10,Al  7)                  2.5699         0.010988   
      6. B(H  11,Al  5)                  2.9625         0.010000   
      7. B(H  11,Al  7)                  2.6659         0.010000   
      8. B(H  12,Al  5)                  2.8432         0.010000   
      9. B(H  12,H  11)                  3.0640         0.010000   
     10. B(H  13,H  11)                  3.4910         0.010000   
     11. B(H  13,Al  5)                  1.5764         0.422668   
     12. B(H  14,Al  1)                  2.9808         0.010000   
     13. B(H  14,Al  5)                  2.8251         0.010000   
     14. B(H  15,Al  1)                  2.1704         0.047667   
     15. B(H  16,Al  5)                  2.2231         0.039283   
     16. B(H  16,H  14)                  2.7612         0.010000   
     17. B(H  17,Al  2)                  2.3845         0.021713   
     18. B(H  17,H  15)                  3.9841         0.010000   
     19. B(H  18,Al  2)                  2.4905         0.014710   
     20. B(H  18,Al  4)                  2.1302         0.055270   
     21. B(H  19,Al  2)                  2.6000         0.010000   
     22. B(H  20,Al  2)                  2.2552         0.034910   
     23. B(H  21,Al  3)                  3.2857         0.010000   
     24. B(H  21,Al  6)                  2.6570         0.010000   
     25. B(H  22,Al  3)                  1.9559         0.104829   
     26. B(H  23,Al  6)                  2.6216         0.010000   
     27. B(H  24,Al  4)                  1.5083         0.542807   
     28. B(H  24,H  18)                  2.4699         0.010000   
     29. B(H  25,Al  4)                  2.5132         0.013533   
     30. B(H  25,H  21)                  3.7993         0.010000   
     31. B(H  25,H   9)                  3.7226         0.010000   
     32. B(H  25,Al  6)                  3.0965         0.010000   
     33. B(H  26,Al  0)                  2.2367         0.037374   
     34. B(H  27,Al  0)                  2.3520         0.024466   
     35. B(H  27,Al  1)                  2.2487         0.035754   
     36. B(H  27,H  14)                  3.3799         0.010000   
     37. B(H  28,Al  3)                  2.2126         0.040822   
     38. B(H  28,Al  0)                  2.2019         0.042463   
     39. B(H  29,H  26)                  2.8370         0.010000   
     40. B(H  29,Al  0)                  2.5143         0.013477   
     41. B(H  30,Al  6)                  2.5498         0.011831   
     42. B(H  30,H  12)                  3.2538         0.010000   
     43. B(H  30,H  10)                  3.1225         0.010000   
     44. B(H  31,Al  1)                  3.1541         0.010000   
     45. B(H  31,Al  0)                  3.0064         0.010000   
     46. B(H  31,H  27)                  2.5833         0.010000   
     47. B(H  31,H  14)                  3.7673         0.010000   
     48. A(H  27,Al  0,H  28)          132.7348         0.183427   
     49. A(H  26,Al  0,H  27)          104.2404         0.180737   
     50. A(H  26,Al  0,H  29)           73.0662         0.169155   
     51. A(H  28,Al  0,H  29)          106.1781         0.171505   
     52. A(H  28,Al  0,H  31)           84.6535         0.143800   
     53. A(H  29,Al  0,H  31)          151.8576         0.131264   
     54. A(H  27,Al  0,H  31)           56.0543         0.137370   
     55. A(H  27,Al  0,H  29)          100.4777         0.161826   
     56. A(H  26,Al  0,H  28)          120.4568         0.192931   
     57. A(H  26,Al  0,H  31)          124.2598         0.142239   
     58. A(H  15,Al  1,H  27)          132.6507         0.194621   
     59. A(H  27,Al  1,H  31)           54.0313         0.135618   
     60. A(H  15,Al  1,H  31)          170.7189         0.138753   
     61. A(H  14,Al  1,H  15)          110.6859         0.146465   
     62. A(H  14,Al  1,H  27)           79.1734         0.142844   
     63. A(H  14,Al  1,H  31)           75.7107         0.114363   
     64. A(H  18,Al  2,H  20)           98.3603         0.169507   
     65. A(H  17,Al  2,H  19)           94.2650         0.155009   
     66. A(H  18,Al  2,H  19)          130.2262         0.149440   
     67. A(H  19,Al  2,H  20)           88.2097         0.162498   
     68. A(H  17,Al  2,H  20)          150.2716         0.176925   
     69. A(H  17,Al  2,H  18)          102.4270         0.161303   
     70. A(H  21,Al  3,H  28)          100.3571         0.132058   
     71. A(H  21,Al  3,H  22)          106.8660         0.142304   
     72. A(H  22,Al  3,H  28)          112.5421         0.219091   
     73. A(H  24,Al  4,H  25)          122.4312         0.236016   
     74. A(H  18,Al  4,H  24)           83.6369         0.291151   
     75. A(H  18,Al  4,H  25)           99.4018         0.176660   
     76. A(H  11,Al  5,H  16)          104.3153         0.144848   
     77. A(H  11,Al  5,H  12)           63.6698         0.122350   
     78. A(H  11,Al  5,H  14)          169.3262         0.122855   
     79. A(H  12,Al  5,H  13)          113.5657         0.194587   
     80. A(H  11,Al  5,H  13)           95.6914         0.184618   
     81. A(H  12,Al  5,H  14)          124.6614         0.126384   
     82. A(H  12,Al  5,H  16)          139.4958         0.150670   
     83. A(H  14,Al  5,H  16)           65.0480         0.151604   
     84. A(H  13,Al  5,H  16)          105.8288         0.265816   
     85. A(H  13,Al  5,H  14)           86.8484         0.196185   
     86. A(H  21,Al  6,H  25)           82.2689         0.123827   
     87. A(H  25,Al  6,H  30)          122.7020         0.127074   
     88. A(H  10,Al  6,H  25)           89.8339         0.115139   
     89. A(H  23,Al  6,H  25)          126.8780         0.124868   
     90. A(H  21,Al  6,H  23)           86.4849         0.140694   
     91. A(H  21,Al  6,H  30)          128.2803         0.143874   
     92. A(H  23,Al  6,H  30)          104.7630         0.145513   
     93. A(H  10,Al  6,H  23)           86.9322         0.127798   
     94. A(H  10,Al  6,H  21)          163.7155         0.126673   
     95. A(H  10,Al  6,H  30)           67.8844         0.130185   
     96. A(H   9,Al  7,H  11)           99.4781         0.155777   
     97. A(H   8,Al  7,H  11)          122.0069         0.164613   
     98. A(H   9,Al  7,H  10)           84.2285         0.161325   
     99. A(H   8,Al  7,H  10)          130.9650         0.170894   
    100. A(H  10,Al  7,H  11)           81.7146         0.142565   
    101. A(H   8,Al  7,H   9)          125.9095         0.191095   
    102. A(H  10,H   9,H  25)           75.6679         0.090112   
    103. A(Al  7,H   9,H  25)          126.8972         0.097313   
    104. A(Al  7,H   9,H  10)           51.3292         0.101062   
    105. A(Al  6,H  10,H  30)           49.1559         0.096667   
    106. A(H   9,H  10,H  30)          124.3243         0.090832   
    107. A(Al  7,H  10,H  30)          138.3252         0.099982   
    108. A(Al  6,H  10,H   9)          102.8385         0.095755   
    109. A(Al  6,H  10,Al  7)          147.0589         0.129501   
    110. A(Al  7,H  10,H   9)           44.4423         0.098675   
    111. A(Al  7,H  11,H  13)          138.5972         0.096464   
    112. A(Al  7,H  11,H  12)          136.3003         0.099646   
    113. A(Al  5,H  11,Al  7)          129.6592         0.127648   
    114. A(H  12,H  11,H  13)           69.6972         0.090607   
    115. A(Al  5,H  11,H  13)           26.7005         0.094833   
    116. A(Al  5,H  11,H  12)           56.2699         0.097319   
    117. A(H  11,H  12,H  30)           92.3806         0.090957   
    118. A(Al  5,H  12,H  30)          117.6237         0.096845   
    119. A(Al  5,H  12,H  11)           60.0604         0.098186   
    120. A(Al  5,H  13,H  11)           57.6081         0.107466   
    121. A(Al  1,H  14,H  27)           40.8047         0.095301   
    122. A(Al  5,H  14,H  16)           46.8833         0.100995   
    123. A(Al  5,H  14,H  31)           84.1943         0.094196   
    124. A(Al  5,H  14,H  27)          103.8344         0.096171   
    125. A(Al  1,H  14,Al  5)          137.7084         0.122343   
    126. A(H  16,H  14,H  31)           70.1257         0.090642   
    127. A(H  16,H  14,H  27)          110.6209         0.091267   
    128. A(Al  1,H  14,H  16)          113.8160         0.099538   
    129. A(H  27,H  14,H  31)           41.9403         0.089982   
    130. A(Al  1,H  14,H  31)           54.2263         0.093566   
    131. A(Al  5,H  16,H  14)           68.0687         0.108787   
    132. A(Al  2,H  18,Al  4)          151.0162         0.178330   
    133. A(Al  4,H  18,H  24)           37.3664         0.116236   
    134. A(Al  2,H  18,H  24)          171.4615         0.109185   
    135. A(Al  3,H  21,H  25)           78.9841         0.092450   
    136. A(Al  6,H  21,H  25)           53.8648         0.094819   
    137. A(Al  3,H  21,Al  6)          109.4413         0.118758   
    138. A(Al  4,H  24,H  18)           58.9968         0.134678   
    139. A(Al  4,H  25,H  21)          164.4371         0.095558   
    140. A(Al  4,H  25,H   9)           59.8395         0.095990   
    141. A(Al  4,H  25,Al  6)          144.8108         0.128250   
    142. A(H   9,H  25,H  21)          134.0150         0.089719   
    143. A(Al  6,H  25,H  21)           43.8663         0.093038   
    144. A(Al  6,H  25,H   9)           91.6409         0.093303   
    145. A(Al  0,H  26,H  29)           57.9772         0.107371   
    146. A(H  14,H  27,H  31)           77.0790         0.091628   
    147. A(Al  1,H  27,H  14)           60.0218         0.100580   
    148. A(Al  1,H  27,H  31)           81.1777         0.111459   
    149. A(Al  0,H  27,H  14)          131.4844         0.099628   
    150. A(Al  0,H  27,H  31)           74.8947         0.109611   
    151. A(Al  0,H  27,Al  1)          148.2277         0.179822   
    152. A(Al  0,H  28,Al  3)          147.2445         0.195028   
    153. A(Al  0,H  29,H  26)           48.9565         0.103584   
    154. A(H  10,H  30,H  12)           90.8063         0.090864   
    155. A(Al  6,H  30,H  12)          132.4282         0.099013   
    156. A(Al  6,H  30,H  10)           62.9597         0.100167   
    157. A(H  14,H  31,H  27)           60.9807         0.090904   
    158. A(Al  0,H  31,Al  1)           91.7970         0.113828   
    159. A(Al  1,H  31,H  27)           44.7909         0.099579   
    160. A(Al  0,H  31,H  27)           49.0511         0.100961   
    161. A(Al  1,H  31,H  14)           50.0629         0.092953   
    162. A(Al  0,H  31,H  14)          100.8306         0.093469   
    163. D(H  25,H   9,Al  7,H  10)     -4.2148         0.010000   
    164. D(H  25,H   9,Al  7,H   8)   -141.9777         0.010000   
    165. D(H  10,H   9,Al  7,H  11)     80.5773         0.010000   
    166. D(H  10,H   9,Al  7,H   8)   -137.7628         0.010000   
    167. D(H  25,H   9,Al  7,H  11)     76.3624         0.010000   
    168. D(H   9,H  10,Al  7,H  11)   -100.4848         0.010000   
    169. D(Al  7,H  10,Al  6,H  30)    118.7835         0.010000   
    170. D(H   9,H  10,Al  6,H  21)    -61.8646         0.010000   
    171. D(H   9,H  10,Al  6,H  23)   -128.1345         0.010000   
    172. D(Al  7,H  10,H   9,H  25)    176.5221         0.010000   
    173. D(H   9,H  10,Al  6,H  30)    124.5740         0.010000   
    174. D(Al  6,H  10,Al  7,H   8)    141.9379         0.010000   
    175. D(Al  6,H  10,Al  7,H  11)    -92.4086         0.010000   
    176. D(H   9,H  10,Al  7,H   8)    133.8617         0.010000   
    177. D(Al  6,H  10,Al  7,H   9)      8.0762         0.010000   
    178. D(Al  6,H  10,H   9,H  25)      1.0160         0.010000   
    179. D(Al  7,H  10,Al  6,H  21)    -67.6551         0.010000   
    180. D(Al  6,H  10,H   9,Al  7)   -175.5061         0.010000   
    181. D(H  30,H  10,Al  7,H  11)     -6.7161         0.010000   
    182. D(H  30,H  10,H   9,Al  7)   -126.5477         0.010000   
    183. D(Al  7,H  10,Al  6,H  25)     -6.9740         0.010000   
    184. D(H  30,H  10,H   9,H  25)     49.9744         0.010000   
    185. D(Al  7,H  10,Al  6,H  23)   -133.9250         0.010000   
    186. D(Al  7,H  11,Al  5,H  13)    121.3396         0.010000   
    187. D(H  12,H  11,Al  5,H  13)   -113.5137         0.010000   
    188. D(H  13,H  11,Al  5,H  16)   -107.9587         0.010000   
    189. D(Al  5,H  11,Al  7,H   8)   -138.8802         0.010000   
    190. D(H  12,H  11,Al  5,H  14)    143.1615         0.010000   
    191. D(H  13,H  11,Al  5,H  14)   -103.3248         0.010000   
    192. D(H  12,H  11,Al  5,H  16)    138.5276         0.010000   
    193. D(H  13,H  11,Al  5,H  12)    113.5137         0.010000   
    194. D(H  12,H  11,Al  7,H  10)      7.6343         0.010000   
    195. D(H  12,H  11,Al  7,H   9)    -75.0498         0.010000   
    196. D(Al  5,H  11,Al  7,H  10)     87.4692         0.010000   
    197. D(H  12,H  11,Al  7,H   8)    141.2849         0.010000   
    198. D(Al  5,H  11,Al  7,H   9)      4.7851         0.010000   
    199. D(H  30,H  12,Al  5,H  14)    -96.5587         0.010000   
    200. D(Al  5,H  12,H  11,H  13)    -26.0599         0.010000   
    201. D(H  30,H  12,H  11,H  13)   -146.8294         0.010000   
    202. D(H  30,H  12,H  11,Al  5)   -120.7695         0.010000   
    203. D(H  30,H  12,Al  5,H  16)     -5.4245         0.010000   
    204. D(H  30,H  12,H  11,Al  7)     -6.4345         0.010000   
    205. D(H  11,H  12,Al  5,H  14)   -172.2408         0.010000   
    206. D(H  30,H  12,Al  5,H  13)    160.2227         0.010000   
    207. D(H  11,H  12,Al  5,H  16)    -81.1066         0.010000   
    208. D(H  11,H  12,Al  5,H  13)     84.5406         0.010000   
    209. D(Al  5,H  12,H  11,Al  7)    114.3350         0.010000   
    210. D(Al  5,H  13,H  11,Al  7)    -83.8420         0.010000   
    211. D(Al  5,H  13,H  11,H  12)     54.4021         0.010000   
    212. D(H  11,H  13,Al  5,H  12)    -63.7156         0.010000   
    213. D(H  11,H  13,Al  5,H  14)    169.6009         0.010000   
    214. D(H  11,H  13,Al  5,H  16)    106.6505         0.010000   
    215. D(Al  1,H  14,Al  5,H  12)     56.2166         0.010000   
    216. D(Al  1,H  14,Al  5,H  13)    172.8786         0.010000   
    217. D(Al  1,H  14,Al  5,H  11)    -82.9924         0.010000   
    218. D(H  16,H  14,Al  1,H  31)    -39.1004         0.010000   
    219. D(H  16,H  14,Al  1,H  15)    133.8439         0.010000   
    220. D(H  31,H  14,Al  1,H  15)    172.9443         0.010000   
    221. D(H  27,H  14,Al  1,H  15)   -131.6923         0.010000   
    222. D(Al  1,H  14,Al  5,H  16)    -78.0394         0.010000   
    223. D(H  31,H  14,Al  1,H  27)    -55.3634         0.010000   
    224. D(H  16,H  14,Al  1,H  27)    -94.4638         0.010000   
    225. D(H  27,H  14,Al  1,H  31)     55.3634         0.010000   
    226. D(H  27,H  14,Al  5,H  11)   -110.3972         0.010000   
    227. D(H  27,H  14,Al  5,H  12)     28.8119         0.010000   
    228. D(H  27,H  14,Al  5,H  16)   -105.4442         0.010000   
    229. D(H  27,H  14,Al  5,H  13)    145.4739         0.010000   
    230. D(Al  5,H  16,H  14,H  31)    101.0181         0.010000   
    231. D(Al  5,H  16,H  14,H  27)     89.8662         0.010000   
    232. D(Al  5,H  16,H  14,Al  1)    133.9811         0.010000   
    233. D(H  14,H  16,Al  5,H  11)    179.0544         0.010000   
    234. D(H  14,H  16,Al  5,H  13)     78.7586         0.010000   
    235. D(H  14,H  16,Al  5,H  12)   -114.9023         0.010000   
    236. D(Al  2,H  18,Al  4,H  25)    -55.1059         0.010000   
    237. D(Al  2,H  18,Al  4,H  24)   -177.0096         0.010000   
    238. D(H  24,H  18,Al  4,H  25)    121.9037         0.010000   
    239. D(H  24,H  18,Al  2,H  17)    114.0442         0.010000   
    240. D(H  24,H  18,Al  2,H  20)    -87.3403         0.010000   
    241. D(Al  4,H  18,Al  2,H  19)    175.1049         0.010000   
    242. D(Al  4,H  18,Al  2,H  17)    -78.2686         0.010000   
    243. D(Al  4,H  18,Al  2,H  20)     80.3469         0.010000   
    244. D(Al  3,H  21,Al  6,H  30)    -66.5465         0.010000   
    245. D(Al  3,H  21,Al  6,H  23)   -172.6129         0.010000   
    246. D(H  25,H  21,Al  6,H  10)     61.6306         0.010000   
    247. D(Al  3,H  21,Al  6,H  10)    121.0586         0.010000   
    248. D(H  25,H  21,Al  6,H  30)   -125.9745         0.010000   
    249. D(H  25,H  21,Al  3,H  28)     93.8281         0.010000   
    250. D(H  25,H  21,Al  3,H  22)   -148.6145         0.010000   
    251. D(Al  3,H  21,Al  6,H  25)     59.4280         0.010000   
    252. D(Al  6,H  21,Al  3,H  28)     48.7222         0.010000   
    253. D(Al  6,H  21,Al  3,H  22)    166.2796         0.010000   
    254. D(H  18,H  24,Al  4,H  25)    -97.1164         0.012531   
    255. D(Al  4,H  24,H  18,Al  2)    170.1971         0.010000   
    256. D(Al  4,H  25,H  21,Al  3)      7.1133         0.010000   
    257. D(Al  4,H  25,H  21,Al  6)    131.3072         0.010000   
    258. D(H   9,H  25,H  21,Al  3)   -142.7974         0.010000   
    259. D(H   9,H  25,H  21,Al  6)    -18.6035         0.010000   
    260. D(Al  4,H  25,H   9,Al  7)   -155.8381         0.010000   
    261. D(H  21,H  25,H   9,H  10)     11.8166         0.010000   
    262. D(H  21,H  25,H   9,Al  7)     15.2119         0.010000   
    263. D(Al  6,H  25,H   9,Al  7)      2.4346         0.010000   
    264. D(H  21,H  25,Al  6,H  23)    -79.6769         0.010000   
    265. D(H  21,H  25,Al  6,H  30)    130.9800         0.010000   
    266. D(H  21,H  25,Al  6,H  10)   -165.7158         0.010000   
    267. D(H   9,H  25,Al  6,H  21)    166.7313         0.010000   
    268. D(Al  6,H  25,H   9,H  10)     -0.9608         0.010000   
    269. D(H   9,H  25,Al  6,H  23)     87.0544         0.010000   
    270. D(H   9,H  25,Al  6,H  30)    -62.2887         0.010000   
    271. D(H   9,H  25,Al  6,H  10)      1.0155         0.010000   
    272. D(Al  6,H  25,H  21,Al  3)   -124.1939         0.010000   
    273. D(H  21,H  25,Al  4,H  24)    109.4751         0.010000   
    274. D(H   9,H  25,Al  4,H  18)    176.4278         0.010000   
    275. D(H   9,H  25,Al  4,H  24)    -95.1703         0.010000   
    276. D(Al  6,H  25,Al  4,H  18)    136.4781         0.010000   
    277. D(Al  6,H  25,Al  4,H  24)   -135.1201         0.010000   
    278. D(H  29,H  26,Al  0,H  31)   -155.2119         0.010000   
    279. D(H  29,H  26,Al  0,H  27)    -96.8257         0.010000   
    280. D(H  29,H  26,Al  0,H  28)     99.1395         0.010000   
    281. D(Al  0,H  27,Al  1,H  15)   -130.3725         0.010000   
    282. D(H  31,H  27,Al  0,H  29)    163.0336         0.010000   
    283. D(H  31,H  27,Al  0,H  26)   -121.9570         0.010000   
    284. D(H  31,H  27,Al  0,H  28)     39.2105         0.010000   
    285. D(Al  1,H  27,Al  0,H  31)    -42.4804         0.010000   
    286. D(Al  1,H  27,Al  0,H  29)    120.5533         0.010000   
    287. D(Al  1,H  27,Al  0,H  26)   -164.4374         0.010000   
    288. D(Al  0,H  27,Al  1,H  31)     41.2854         0.010000   
    289. D(Al  1,H  27,Al  0,H  28)     -3.2699         0.010000   
    290. D(Al  1,H  27,H  14,Al  5)    151.7089         0.010000   
    291. D(Al  1,H  27,H  14,H  16)    102.9650         0.010000   
    292. D(Al  1,H  27,H  14,H  31)     87.1730         0.010000   
    293. D(Al  0,H  27,H  14,Al  5)      8.5748         0.010000   
    294. D(Al  0,H  27,H  14,H  16)    -40.1691         0.010000   
    295. D(Al  0,H  27,H  14,H  31)    -55.9611         0.010000   
    296. D(Al  0,H  27,H  14,Al  1)   -143.1341         0.010000   
    297. D(H  14,H  27,Al  1,H  15)    108.2290         0.010000   
    298. D(H  31,H  27,Al  1,H  14)     80.1131         0.010000   
    299. D(H  31,H  27,Al  1,H  15)   -171.6579         0.010000   
    300. D(Al  0,H  27,Al  1,H  14)    121.3985         0.010000   
    301. D(Al  0,H  28,Al  3,H  21)   -110.5693         0.010000   
    302. D(Al  0,H  28,Al  3,H  22)    136.1524         0.010000   
    303. D(Al  3,H  28,Al  0,H  31)     13.4414         0.010000   
    304. D(Al  3,H  28,Al  0,H  29)   -140.0667         0.010000   
    305. D(Al  3,H  28,Al  0,H  27)    -18.3427         0.010000   
    306. D(Al  3,H  28,Al  0,H  26)    140.3746         0.010000   
    307. D(H  26,H  29,Al  0,H  31)    132.7206         0.010000   
    308. D(H  26,H  29,Al  0,H  27)    101.8408         0.010000   
    309. D(H  26,H  29,Al  0,H  28)   -117.6054         0.010000   
    310. D(H  10,H  30,H  12,H  11)      0.8484         0.010000   
    311. D(H  10,H  30,H  12,Al  5)    -56.3298         0.010000   
    312. D(Al  6,H  30,H  12,H  11)     53.7557         0.010000   
    313. D(H  12,H  30,H  10,Al  6)    138.6214         0.010000   
    314. D(H  12,H  30,H  10,H   9)     62.1901         0.010000   
    315. D(H  12,H  30,H  10,Al  7)      4.4109         0.010000   
    316. D(Al  6,H  30,H  10,H   9)    -76.4313         0.010000   
    317. D(Al  6,H  30,H  10,Al  7)   -134.2105         0.010000   
    318. D(H  12,H  30,Al  6,H  21)    118.7271         0.010000   
    319. D(H  12,H  30,Al  6,H  23)   -143.9652         0.010000   
    320. D(Al  6,H  30,H  12,Al  5)     -3.4225         0.010000   
    321. D(H  12,H  30,Al  6,H  10)    -63.5686         0.010000   
    322. D(H  10,H  30,Al  6,H  25)     74.6553         0.010000   
    323. D(H  10,H  30,Al  6,H  21)   -177.7043         0.010000   
    324. D(H  10,H  30,Al  6,H  23)    -80.3965         0.010000   
    325. D(H  14,H  31,H  27,Al  1)    -61.1066         0.010000   
    326. D(Al  1,H  31,H  27,H  14)     61.1066         0.010000   
    327. D(Al  1,H  31,H  27,Al  0)   -158.9088         0.010000   
    328. D(Al  0,H  31,H  27,H  14)   -139.9846         0.010000   
    329. D(Al  0,H  31,H  14,Al  5)    -88.5806         0.010000   
    330. D(Al  0,H  31,H  14,H  16)   -134.6517         0.010000   
    331. D(Al  0,H  31,H  14,H  27)     29.6340         0.010000   
    332. D(Al  0,H  31,H  14,Al  1)     83.1925         0.010000   
    333. D(H  27,H  31,H  14,Al  5)   -118.2145         0.010000   
    334. D(H  27,H  31,H  14,H  16)   -164.2857         0.010000   
    335. D(H  27,H  31,H  14,Al  1)     53.5585         0.010000   
    336. D(H  14,H  31,Al  1,H  27)     86.8666         0.010000   
    337. D(Al  0,H  31,Al  1,H  14)   -102.6457         0.010000   
    338. D(Al  0,H  31,Al  1,H  15)    122.7957         0.010000   
    339. D(Al  0,H  31,Al  1,H  27)    -15.7791         0.010000   
    340. D(H  27,H  31,Al  1,H  14)    -86.8666         0.010000   
    341. D(H  27,H  31,Al  1,H  15)    138.5747         0.010000   
    342. D(Al  1,H  31,Al  0,H  29)    -22.7779         0.010000   
    343. D(Al  1,H  31,Al  0,H  27)     14.6935         0.010000   
    344. D(Al  0,H  31,H  27,Al  1)    158.9088         0.010000   
    345. D(Al  1,H  31,Al  0,H  26)     98.9712         0.010000   
    346. D(Al  1,H  31,Al  0,H  28)   -137.5082         0.010000   
    347. D(H  27,H  31,Al  0,H  29)    -37.4715         0.010000   
    348. D(H  14,H  31,H  27,Al  0)    139.9846         0.010000   
    349. D(H  27,H  31,Al  0,H  26)     84.2777         0.010000   
    350. D(H  27,H  31,Al  0,H  28)   -152.2017         0.010000   
    -----------------------------------------------------------------

Number of atoms                         .... 32
Number of degrees of freedom            .... 350


         *************************************************************
         *                GEOMETRY OPTIMIZATION CYCLE   1            *
         *************************************************************
---------------------------------
CARTESIAN COORDINATES (ANGSTROEM)
---------------------------------
  Al    -0.431730    3.564290   -0.000000
  Al    -3.690970    0.571220   -0.022130
  Al    -0.052650   -2.690320    0.000000
  Al     2.997280    1.096390   -0.300430
  Al     0.354280   -1.886430    4.382890
  Al    -2.951320    2.455800    5.000430
  Al     3.337950    2.554220    4.328320
  Al     0.432410    1.521120    8.693720
  H      0.515130    1.385280   10.843130
  H      0.533220   -0.250050    7.222470
  H      2.005750    2.667830    7.016220
  H     -1.374310    3.029490    7.441750
  H     -1.415890    4.848610    4.976570
  H     -4.362430    2.619240    5.683850
  H     -4.327870    1.407720    2.767070
  H     -5.500520    0.034520   -1.093730
  H     -2.684750    0.272980    4.674160
  H     -2.393700   -2.312570   -0.250160
  H      0.208120   -2.819290    2.473440
  H      0.033600   -4.566820   -1.797630
  H      2.080370   -2.183500   -0.528620
  H      4.882360    1.881180    2.273760
  H      4.167290    1.048950   -1.867100
  H      5.547450    3.259510    5.550300
  H      0.558540   -3.298920    4.870840
  H      2.271820   -0.325810    3.931670
  H     -0.780930    5.547320    0.973820
  H     -2.517150    2.483720    0.123740
  H      1.617020    2.825580   -0.324590
  H     -0.881030    5.215710   -1.841940
  H      1.798450    4.574420    4.552040
  H     -0.872070    0.914610    1.350520

----------------------------
CARTESIAN COORDINATES (A.U.)
----------------------------
  NO LB      ZA    FRAG     MASS         X           Y           Z
   0 Al   13.0000    0    26.982   -0.815851    6.735532   -0.000000
   1 Al   13.0000    0    26.982   -6.974922    1.079449   -0.041820
   2 Al   13.0000    0    26.982   -0.099494   -5.083968    0.000000
   3 Al   13.0000    0    26.982    5.664038    2.071877   -0.567730
   4 Al   13.0000    0    26.982    0.669492   -3.564836    8.282462
   5 Al   13.0000    0    26.982   -5.577187    4.640789    9.449443
   6 Al   13.0000    0    26.982    6.307811    4.826776    8.179339
   7 Al   13.0000    0    26.982    0.817136    2.874500   16.428750
   8 H     1.0000    0     1.008    0.973455    2.617800   20.490546
   9 H     1.0000    0     1.008    1.007640   -0.472526   13.648490
  10 H     1.0000    0     1.008    3.790318    5.041468   13.258734
  11 H     1.0000    0     1.008   -2.597070    5.724906   14.062869
  12 H     1.0000    0     1.008   -2.675644    9.162545    9.404354
  13 H     1.0000    0     1.008   -8.243798    4.949646   10.740920
  14 H     1.0000    0     1.008   -8.178489    2.660205    5.229004
  15 H     1.0000    0     1.008  -10.394476    0.065233   -2.066850
  16 H     1.0000    0     1.008   -5.073442    0.515857    8.832882
  17 H     1.0000    0     1.008   -4.523437   -4.370124   -0.472734
  18 H     1.0000    0     1.008    0.393290   -5.327686    4.674124
  19 H     1.0000    0     1.008    0.063495   -8.630039   -3.397028
  20 H     1.0000    0     1.008    3.931330   -4.126217   -0.998947
  21 H     1.0000    0     1.008    9.226323    3.554915    4.296784
  22 H     1.0000    0     1.008    7.875037    1.982228   -3.528308
  23 H     1.0000    0     1.008   10.483161    6.159581   10.488547
  24 H     1.0000    0     1.008    1.055488   -6.234055    9.204554
  25 H     1.0000    0     1.008    4.293118   -0.615692    7.429780
  26 H     1.0000    0     1.008   -1.475744   10.482916    1.840253
  27 H     1.0000    0     1.008   -4.756724    4.693551    0.233835
  28 H     1.0000    0     1.008    3.055725    5.339572   -0.613386
  29 H     1.0000    0     1.008   -1.664905    9.856263   -3.480762
  30 H     1.0000    0     1.008    3.398578    8.644401    8.602109
  31 H     1.0000    0     1.008   -1.647973    1.728362    2.552113

--------------------------------
INTERNAL COORDINATES (ANGSTROEM)
--------------------------------
 Al     0   0   0     0.000000000000     0.00000000     0.00000000
 Al     1   0   0     4.425110522846     0.00000000     0.00000000
 Al     2   1   0     4.886256781106    84.43548891     0.00000000
 Al     1   2   3     4.235433646629   101.64389876     4.44523108
 Al     3   2   1     4.474545329874    87.26206496    78.51004379
 Al     2   1   3     5.415240793584    70.08474846    99.80910815
 Al     4   1   2     4.864838221390    79.31520090   252.06039795
 Al     6   2   1     5.095453506745   134.35694888   281.19532279
 H      8   6   2     2.155286164782   139.45473933   215.79254919
 H      8   6   2     2.304730437058    72.98136789   341.64933010
 H      8   6   2     2.569892766187    81.46454828    68.18625636
 H      8   6   2     2.665866856428    26.58896370   156.71302093
 H      6   2   1     2.843176793764   111.03060421    15.72704509
 H      6   2   1     1.576390485286   108.41596866   141.14023735
 H      6   2   1     2.825112117864    21.73992490   148.63671624
 H      2   1   3     2.170448030361   141.60855536   231.83173954
 H      6   2   1     2.223109270864    62.51930918   239.81716182
 H      3   2   1     2.384489503143    33.14841443   190.39432025
 H      5   3   2     2.130161925230    15.64657983   135.20353693
 H      3   2   1     2.600031716999   120.21944146   233.13254806
 H      3   2   1     2.255233898557   123.58573738   343.21563012
 H      7   4   1     2.656953496639    39.56031237   212.11049577
 H      4   1   2     1.955921481706   123.72743113   112.22521892
 H      7   4   1     2.621556666277   125.67223393   221.19966862
 H      5   3   2     1.508292196559    99.26225821   138.21483012
 H      5   3   2     2.513184021197    90.29155972   261.18538314
 H      1   2   3     2.236665825129   119.13492323   209.94705747
 H      2   1   3     2.248730241559    16.25216410   167.37340527
 H      1   2   3     2.201914552089   117.23532358     9.92584703
 H      1   2   3     2.514319285612   107.99734915   129.70773124
 H      7   4   1     2.549768406817   106.17848179   343.53483563
 H     28   2   1     2.583289292143    81.17772797   318.71462435

---------------------------
INTERNAL COORDINATES (A.U.)
---------------------------
 Al     0   0   0     0.000000000000     0.00000000     0.00000000
 Al     1   0   0     8.362247000512     0.00000000     0.00000000
 Al     2   1   0     9.233687136305    84.43548891     0.00000000
 Al     1   2   3     8.003809650525   101.64389876     4.44523108
 Al     3   2   1     8.455665247279    87.26206496    78.51004379
 Al     2   1   3    10.233322049113    70.08474846    99.80910815
 Al     4   1   2     9.193211924260    79.31520090   252.06039795
 Al     6   2   1     9.629011655877   134.35694888   281.19532279
 H      8   6   2     4.072900591667   139.45473933   215.79254919
 H      8   6   2     4.355309338552    72.98136789   341.64933010
 H      8   6   2     4.856393521639    81.46454828    68.18625636
 H      8   6   2     5.037758268146    26.58896370   156.71302093
 H      6   2   1     5.372825490535   111.03060421    15.72704509
 H      6   2   1     2.978946297310   108.41596866   141.14023735
 H      6   2   1     5.338688200385    21.73992490   148.63671624
 H      2   1   3     4.101552365292   141.60855536   231.83173954
 H      6   2   1     4.201067687714    62.51930918   239.81716182
 H      3   2   1     4.506032130151    33.14841443   190.39432025
 H      5   3   2     4.025422659591    15.64657983   135.20353693
 H      3   2   1     4.913347884637   120.21944146   233.13254806
 H      3   2   1     4.261774436208   123.58573738   343.21563012
 H      7   4   1     5.020914459211    39.56031237   212.11049577
 H      4   1   2     3.696155939878   123.72743113   112.22521892
 H      7   4   1     4.954024143819   125.67223393   221.19966862
 H      5   3   2     2.850259181427    99.26225821   138.21483012
 H      5   3   2     4.749229524209    90.29155972   261.18538314
 H      1   2   3     4.226685862595   119.13492323   209.94705747
 H      2   1   3     4.249484305612    16.25216410   167.37340527
 H      1   2   3     4.161015473744   117.23532358     9.92584703
 H      1   2   3     4.751374863043   107.99734915   129.70773124
 H      7   4   1     4.818363993808   106.17848179   343.53483563
 H     28   2   1     4.881709286841    81.17772797   318.71462435

---------------------
BASIS SET INFORMATION
---------------------
There are 2 groups of distinct atoms

 Group   1 Type Al  : 10s7p1d contracted to 4s3p1d pattern {5311/511/1}
 Group   2 Type H   : 4s contracted to 2s pattern {31}

Atom   0Al   basis set group =>   1
Atom   1Al   basis set group =>   1
Atom   2Al   basis set group =>   1
Atom   3Al   basis set group =>   1
Atom   4Al   basis set group =>   1
Atom   5Al   basis set group =>   1
Atom   6Al   basis set group =>   1
Atom   7Al   basis set group =>   1
Atom   8H    basis set group =>   2
Atom   9H    basis set group =>   2
Atom  10H    basis set group =>   2
Atom  11H    basis set group =>   2
Atom  12H    basis set group =>   2
Atom  13H    basis set group =>   2
Atom  14H    basis set group =>   2
Atom  15H    basis set group =>   2
Atom  16H    basis set group =>   2
Atom  17H    basis set group =>   2
Atom  18H    basis set group =>   2
Atom  19H    basis set group =>   2
Atom  20H    basis set group =>   2
Atom  21H    basis set group =>   2
Atom  22H    basis set group =>   2
Atom  23H    basis set group =>   2
Atom  24H    basis set group =>   2
Atom  25H    basis set group =>   2
Atom  26H    basis set group =>   2
Atom  27H    basis set group =>   2
Atom  28H    basis set group =>   2
Atom  29H    basis set group =>   2
Atom  30H    basis set group =>   2
Atom  31H    basis set group =>   2
---------------------------------
AUXILIARY/J BASIS SET INFORMATION
---------------------------------
There are 2 groups of distinct atoms

 Group   1 Type Al  : 14s5p5d2f1g contracted to 8s4p3d1f1g pattern {71111111/2111/311/2/1}
 Group   2 Type H   : 5s2p1d contracted to 3s1p1d pattern {311/2/1}

Atom   0Al   basis set group =>   1
Atom   1Al   basis set group =>   1
Atom   2Al   basis set group =>   1
Atom   3Al   basis set group =>   1
Atom   4Al   basis set group =>   1
Atom   5Al   basis set group =>   1
Atom   6Al   basis set group =>   1
Atom   7Al   basis set group =>   1
Atom   8H    basis set group =>   2
Atom   9H    basis set group =>   2
Atom  10H    basis set group =>   2
Atom  11H    basis set group =>   2
Atom  12H    basis set group =>   2
Atom  13H    basis set group =>   2
Atom  14H    basis set group =>   2
Atom  15H    basis set group =>   2
Atom  16H    basis set group =>   2
Atom  17H    basis set group =>   2
Atom  18H    basis set group =>   2
Atom  19H    basis set group =>   2
Atom  20H    basis set group =>   2
Atom  21H    basis set group =>   2
Atom  22H    basis set group =>   2
Atom  23H    basis set group =>   2
Atom  24H    basis set group =>   2
Atom  25H    basis set group =>   2
Atom  26H    basis set group =>   2
Atom  27H    basis set group =>   2
Atom  28H    basis set group =>   2
Atom  29H    basis set group =>   2
Atom  30H    basis set group =>   2
Atom  31H    basis set group =>   2


           ************************************************************
           *        Program running with 24 parallel MPI-processes    *
           *              working on a common directory               *
           ************************************************************
------------------------------------------------------------------------------
                             ORCA STARTUP CALCULATIONS
                           -- RI-GTO INTEGRALS CHOSEN --
------------------------------------------------------------------------------
------------------------------------------------------------------------------
                   ___                                                        
                  /   \      - P O W E R E D   B Y -                         
                 /     \                                                     
                 |  |  |   _    _      __       _____    __    __             
                 |  |  |  | |  | |    /  \     |  _  \  |  |  /  |          
                  \  \/   | |  | |   /    \    | | | |  |  | /  /          
                 / \  \   | |__| |  /  /\  \   | |_| |  |  |/  /          
                |  |  |   |  __  | /  /__\  \  |    /   |      \           
                |  |  |   | |  | | |   __   |  |    \   |  |\   \          
                \     /   | |  | | |  |  |  |  | |\  \  |  | \   \       
                 \___/    |_|  |_| |__|  |__|  |_| \__\ |__|  \__/        
                                                                              
                      - O R C A' S   B I G   F R I E N D -                    
                                      &                                       
                       - I N T E G R A L  F E E D E R -                       
                                                                              
 v1 FN, 2020, v2 2021, v3 2022-2024                                           
------------------------------------------------------------------------------


----------------------
SHARK INTEGRAL PACKAGE
----------------------

Number of atoms                             ...     32
Number of basis functions                   ...    192
Number of shells                            ...    112
Maximum angular momentum                    ...      2
Integral batch strategy                     ... SHARK/LIBINT Hybrid
RI-J (if used) integral strategy            ... SPLIT-RIJ (Revised 2003 algorithm where possible)
Printlevel                                  ...      1
Contraction scheme used                     ... SEGMENTED contraction
Prescreening option                         ... SCHWARTZ
   Thresh                                   ... 1.000e-10
   Tcut                                     ... 1.000e-11
   Tpresel                                  ... 1.000e-11 
Coulomb Range Separation                    ... NOT USED
Exchange Range Separation                   ... NOT USED
Multipole approximations                    ... NOT USED
Finite Nucleus Model                        ... NOT USED
CABS basis                                  ... NOT available
Auxiliary Coulomb fitting basis             ... AVAILABLE
   # of basis functions in Aux-J            ...    672
   # of shells in Aux-J                     ...    256
   Maximum angular momentum in Aux-J        ...      4
Auxiliary J/K fitting basis                 ... NOT available
Auxiliary Correlation fitting basis         ... NOT available
Auxiliary 'external' fitting basis          ... NOT available

Checking pre-screening integrals            ... done (  0.0 sec) Dimension = 112
   => SHARK Basis and OBASIS are compatible. Storing Pre-screening
Shell pair information
Shell pair cut-off parameter TPreSel        ...   1.0e-11
Total number of shell pairs                 ...      6328
Shell pairs after pre-screening             ...      4524
Total number of primitive shell pairs       ...     29176
Primitive shell pairs kept                  ...     11724
          la=0 lb=0:   2251 shell pairs
          la=1 lb=0:   1402 shell pairs
          la=1 lb=1:    237 shell pairs
          la=2 lb=0:    457 shell pairs
          la=2 lb=1:    148 shell pairs
          la=2 lb=2:     29 shell pairs

Checking whether 4 symmetric matrices of dimension 192 fit in memory
:Max Core in MB      =   4096.00
 MB in use           =      9.12
 MB left             =   4086.88
 MB needed           =      0.57
 Data fit in memory  = YES
Calculating RI/J V-Matrix + Cholesky decomp.... done (  0.1 sec)
Calculating Nuclear repulsion               ... done (  0.0 sec) ENN=    695.183923860770 Eh

Diagonalization of the overlap matrix:
Smallest eigenvalue                        ... 3.011e-02
Time for diagonalization                   ...    0.035 sec
Threshold for overlap eigenvalues          ... 1.000e-07
Number of eigenvalues below threshold      ... 0
Time for construction of square roots      ...    0.005 sec
Total time needed                          ...    0.043 sec

-------------------
DFT GRID GENERATION
-------------------

General Integration Accuracy     IntAcc      ... 4.388
Radial Grid Type                 RadialGrid  ... OptM3 with GC (2021)
Angular Grid (max. ang.)         AngularGrid ... 4 (Lebedev-302)
Angular grid pruning method      GridPruning ... 4 (adaptive)
Weight generation scheme         WeightScheme... mBecke (2022)
Basis function cutoff            BFCut       ... 1.0000e-10
Integration weight cutoff        WCut        ... 1.0000e-14
Partially contracted basis set               ... off
Rotationally invariant grid construction     ... off
Angular grids for H and He will be reduced by one unit

Total number of grid points                  ...   137475
Total number of batches                      ...     2162
Average number of points per batch           ...       63
Average number of grid points per atom       ...     4296
Grids setup in   2.1 sec
Initializing property integral containers    ... done (  0.0 sec)

SHARK setup successfully completed in   2.6 seconds

Maximum memory used throughout the entire STARTUP-calculation: 31.4 MB


           ************************************************************
           *        Program running with 24 parallel MPI-processes    *
           *              working on a common directory               *
           ************************************************************
-------------------------------------------------------------------------------
                                 ORCA GUESS
                   Start orbitals & Density for SCF / CASSCF
-------------------------------------------------------------------------------

------------
SCF SETTINGS
------------
Hamiltonian:
 Density Functional     Method          .... DFT(GTOs)
 Exchange Functional    Exchange        .... PBE
   PBE kappa parameter   XKappa         ....  0.804000
   PBE mue parameter    XMuePBE         ....  0.219520
 Correlation Functional Correlation     .... PBE
   PBE beta parameter  CBetaPBE         ....  0.066725
 LDA part of GGA corr.  LDAOpt          .... PW91-LDA
 Gradients option       PostSCFGGA      .... off
   NL short-range parameter             ....  6.400000
 RI-approximation to the Coulomb term is turned on
   Number of AuxJ basis functions       .... 672


General Settings:
 Integral files         IntName         .... run
 Hartree-Fock type      HFTyp           .... RHF
 Total Charge           Charge          ....    0
 Multiplicity           Mult            ....    1
 Number of Electrons    NEL             ....  128
 Basis Dimension        Dim             ....  192
 Nuclear Repulsion      ENuc            ....    695.1839238608 Eh

Convergence Acceleration:
 AO-DIIS                CNVDIIS         .... on
   Start iteration      DIISMaxIt       ....    12
   Startup error        DIISStart       ....  0.200000
   # of expansion vecs  DIISMaxEq       ....     5
   Bias factor          DIISBfac        ....   1.050
   Max. coefficient     DIISMaxC        ....  10.000
 MO-DIIS                CNVKDIIS        .... off
 Trust-Rad. Augm. Hess. CNVTRAH         .... auto
   Auto Start mean grad. ratio tolernc. ....  1.125000
   Auto Start start iteration           ....    50
   Auto Start num. interpolation iter.  ....    10
   Max. Number of Micro iterations      ....    24
   Max. Number of Macro iterations      .... Maxiter - #DIIS iter
   Number of Davidson start vectors     ....     2
   Converg. threshold    (grad. norm)   ....   5.000e-05
   Grad. Scal. Fac. for Micro threshold ....   0.100
   Minimum threshold for Micro iter.    ....   1.000e-02
   NR start threshold (gradient norm)   ....   1.000e-04
   Initial trust radius                 ....   0.400
   Minimum AH scaling param. (alpha)    ....   1.000
   Maximum AH scaling param. (alpha)    .... 1000.000
   Quad. conv. algorithm                .... NR
   White noise on init. David. guess    .... on
   Maximum white noise                  ....   0.010
   Pseudo random numbers                .... off
   Inactive MOs                         .... canonical
   Orbital update algorithm             .... Taylor
   Preconditioner                       .... Diag
   Full preconditioner red. dimension   ....   250
 SOSCF                 CNVSOSCF           .... on
   Start iteration     SOSCFMaxIt         ....   150
   Startup grad/error  SOSCFStart         ....  0.003300
   Hessian update      SOSCFHessUp        .... L-BFGS
   Autom. constraints  SOSCFAutoConstrain .... off
 Level Shifting         CNVShift        .... on
   Level shift para.    LevelShift      ....    0.2500
   Turn off err/grad.   ShiftErr        ....    0.0010
 Zerner damping         CNVZerner       .... off
 Static damping         CNVDamp         .... on
   Fraction old density DampFac         ....    0.7000
   Max. Damping (<1)    DampMax         ....    0.9800
   Min. Damping (>=0)   DampMin         ....    0.0000
   Turn off err/grad.   DampErr         ....    0.1000

SCF Procedure:
 Maximum # iterations   MaxIter         ....   125
 SCF integral mode      SCFMode         .... Direct
   Integral package                     .... SHARK and LIBINT hybrid scheme
 Reset frequency        DirectResetFreq ....    20
 Integral Threshold     Thresh          ....  1.000e-10 Eh
 Primitive CutOff       TCut            ....  1.000e-11 Eh

Convergence Tolerance:
 Convergence Check Mode ConvCheckMode   .... Total+1el-Energy
 Convergence forced     ConvForced      .... 0
 Energy Change          TolE            ....  1.000e-06 Eh
 1-El. energy change                    ....  1.000e-03 Eh
 Orbital Gradient       TolG            ....  5.000e-05
 Orbital Rotation angle TolX            ....  5.000e-05
 DIIS Error             TolErr          ....  1.000e-05

------------------------------
INITIAL GUESS: MODEL POTENTIAL
------------------------------
Loading Hartree-Fock densities                     ... done
Calculating cut-offs                               ... done
Initializing the effective Hamiltonian             ... done
Setting up the integral package (SHARK)            ... done
Starting the Coulomb interaction                   ... done (   0.1 sec)
Making the grid                                    ... done (   0.3 sec)
Mapping shells                                     ... done
Starting the XC term evaluation                    ... done (   0.0 sec)
  promolecular density results
     # of electrons  =    127.987841581
     EX              =   -150.193109440
     EC              =     -4.155183750
     EX+EC           =   -154.348293190
Transforming the Hamiltonian                       ... done (   0.0 sec)
Diagonalizing the Hamiltonian                      ... done (   0.0 sec)
Back transforming the eigenvectors                 ... done (   0.0 sec)
Now organizing SCF variables                       ... done
                      ------------------
                      INITIAL GUESS DONE (   0.5 sec)
                      ------------------
             **** ENERGY FILE WAS UPDATED (run.en.tmp) ****
Finished Guess after   1.1 sec
Maximum memory used throughout the entire GUESS-calculation: 11.7 MB


           ************************************************************
           *        Program running with 24 parallel MPI-processes    *
           *              working on a common directory               *
           ************************************************************

-------------------------------------------------------------------------------------------
                                      ORCA LEAN-SCF
                              memory conserving SCF solver
-------------------------------------------------------------------------------------------

----------------------------------------D-I-I-S--------------------------------------------
Iteration    Energy (Eh)           Delta-E    RMSDP     MaxDP     DIISErr   Damp  Time(sec)
-------------------------------------------------------------------------------------------
               ***  Starting incremental Fock matrix formation  ***
    1    -1949.8413642088530651     0.00e+00  3.24e-02  4.34e-01  1.25e-01  0.700   0.4
Warning: op=0 Small HOMO/LUMO gap (  -0.064) - skipping pre-diagonalization
         Will do a full diagonalization
    2    -1950.1331358211587030    -2.92e-01  2.65e-02  2.14e-01  7.33e-02  0.700   0.4
                               ***Turning on AO-DIIS***
    3    -1950.1681964403369420    -3.51e-02  1.50e-02  8.45e-02  2.83e-02  0.700   0.3
    4    -1950.1416037707781470     2.66e-02  3.28e-02  1.61e-01  4.34e-02  0.000   0.3
    5    -1950.1296797201289337     1.19e-02  1.40e-02  1.15e-01  6.47e-02  0.000   0.4
    6    -1950.2392562590966918    -1.10e-01  9.35e-03  5.00e-02  4.76e-02  0.000   0.3
    7    -1950.2893363573666647    -5.01e-02  6.65e-03  3.74e-02  3.20e-02  0.000   0.3
    8    -1950.3111663736140144    -2.18e-02  4.82e-03  2.46e-02  1.99e-02  0.000   0.3
    9    -1950.3211915142737780    -1.00e-02  3.68e-03  2.19e-02  1.11e-02  0.000   0.3
   10    -1950.3252798212893140    -4.09e-03  2.14e-03  6.74e-03  6.90e-03  0.000   0.3
   11    -1950.3271243444401080    -1.84e-03  1.76e-03  5.39e-03  3.82e-03  0.000   0.3
   12    -1950.3283673639466542    -1.24e-03  1.47e-03  4.31e-03  3.39e-03  0.000   0.3
                              *** Initializing SOSCF ***
---------------------------------------S-O-S-C-F--------------------------------------
Iteration    Energy (Eh)           Delta-E    RMSDP     MaxDP     MaxGrad    Time(sec)
--------------------------------------------------------------------------------------
   13    -1950.3291626021386946    -7.95e-04  1.28e-03  4.09e-03  2.39e-03     0.3
               *** Restarting incremental Fock matrix formation ***
   14    -1950.3298251315754896    -6.63e-04  3.10e-03  1.36e-02  3.37e-03     0.3
   15    -1950.3307698691378391    -9.45e-04  7.39e-03  2.30e-02  2.99e-03     0.3
   16    -1950.3327294335031183    -1.96e-03  9.55e-03  2.98e-02  2.18e-03     0.3
   17    -1950.3338646792053623    -1.14e-03  2.95e-03  2.00e-02  3.50e-03     0.3
   18    -1950.3346874647786535    -8.23e-04  2.67e-03  1.08e-02  2.76e-03     0.3
   19    -1950.3353112243376017    -6.24e-04  5.74e-03  2.58e-02  1.31e-03     0.3
   20    -1950.3357757634817062    -4.65e-04  1.92e-03  6.16e-03  1.87e-03     0.3
   21    -1950.3359978590137871    -2.22e-04  2.02e-03  1.08e-02  1.14e-03     0.3
   22    -1950.3361816367973915    -1.84e-04  1.54e-03  6.96e-03  8.19e-04     0.3
   23    -1950.3362840646937002    -1.02e-04  1.34e-03  5.61e-03  5.32e-04     0.3
   24    -1950.3363286441463060    -4.46e-05  7.92e-04  2.71e-03  6.16e-04     0.3
   25    -1950.3363461174940312    -1.75e-05  5.64e-04  1.84e-03  5.63e-04     0.3
   26    -1950.3363595286164127    -1.34e-05  3.84e-04  1.35e-03  2.40e-04     0.3
   27    -1950.3363671078750485    -7.58e-06  3.32e-04  1.03e-03  1.42e-04     0.3
   28    -1950.3363723458323875    -5.24e-06  4.49e-04  1.48e-03  1.19e-04     0.3
   29    -1950.3363762879771457    -3.94e-06  3.22e-04  1.03e-03  7.39e-05     0.3
   30    -1950.3363784105904415    -2.12e-06  1.76e-04  4.97e-04  7.04e-05     0.3
   31    -1950.3363796297762747    -1.22e-06  1.39e-04  4.19e-04  4.60e-05     0.3
   32    -1950.3363803047773217    -6.75e-07  7.48e-05  2.40e-04  3.44e-05     0.3
                 **** Energy Check signals convergence ****

               *****************************************************
               *                     SUCCESS                       *
               *           SCF CONVERGED AFTER  32 CYCLES          *
               *****************************************************

             **** ENERGY FILE WAS UPDATED (run.en.tmp) ****

----------------
TOTAL SCF ENERGY
----------------

Total Energy       :      -1950.33638059105897 Eh          -53071.35101 eV

Components:
Nuclear Repulsion  :        695.18392386076982 Eh           18916.91629 eV
Electronic Energy  :      -2645.52030445182891 Eh          -71988.26730 eV
One Electron Energy:      -4088.99572937430867 Eh         -111267.23051 eV
Two Electron Energy:       1443.47542492247976 Eh           39278.96322 eV

Virial components:
Potential Energy   :      -3890.07698276284009 Eh         -105854.37623 eV
Kinetic Energy     :       1939.74060217178089 Eh           52783.02522 eV
Virial Ratio       :          2.00546247184155

DFT components:
N(Alpha)           :       64.000022108100 electrons
N(Beta)            :       64.000022108100 electrons
N(Total)           :      128.000044216199 electrons
E(X)               :     -150.050580803254 Eh       
E(C)               :       -4.164632657277 Eh       
E(XC)              :     -154.215213460531 Eh       

---------------
SCF CONVERGENCE
---------------

  Last Energy change         ...    6.7500e-07  Tolerance :   1.0000e-06
  Last MAX-Density change    ...    2.3988e-04  Tolerance :   1.0000e-05
  Last RMS-Density change    ...    7.4777e-05  Tolerance :   1.0000e-06
  Last DIIS Error            ...    2.3915e-03  Tolerance :   1.0000e-05
  Last Orbital Gradient      ...    3.4391e-05  Tolerance :   5.0000e-05
  Last Orbital Rotation      ...    5.1336e-04  Tolerance :   5.0000e-05


----------------
ORBITAL ENERGIES
----------------

  NO   OCC          E(Eh)            E(eV) 
   0   2.0000     -55.505879     -1510.3918 
   1   2.0000     -55.500906     -1510.2564 
   2   2.0000     -55.493897     -1510.0657 
   3   2.0000     -55.492291     -1510.0220 
   4   2.0000     -55.478896     -1509.6575 
   5   2.0000     -55.478572     -1509.6487 
   6   2.0000     -55.477551     -1509.6209 
   7   2.0000     -55.460377     -1509.1536 
   8   2.0000      -4.046089      -110.0997 
   9   2.0000      -4.043446      -110.0278 
  10   2.0000      -4.039626      -109.9238 
  11   2.0000      -4.034565      -109.7861 
  12   2.0000      -4.023895      -109.4958 
  13   2.0000      -4.020125      -109.3932 
  14   2.0000      -4.019942      -109.3882 
  15   2.0000      -4.005826      -109.0041 
  16   2.0000      -2.654550       -72.2340 
  17   2.0000      -2.652515       -72.1786 
  18   2.0000      -2.651950       -72.1632 
  19   2.0000      -2.650696       -72.1291 
  20   2.0000      -2.649660       -72.1009 
  21   2.0000      -2.648961       -72.0819 
  22   2.0000      -2.646052       -72.0027 
  23   2.0000      -2.646044       -72.0025 
  24   2.0000      -2.642255       -71.8994 
  25   2.0000      -2.640844       -71.8610 
  26   2.0000      -2.640834       -71.8608 
  27   2.0000      -2.639247       -71.8176 
  28   2.0000      -2.633050       -71.6489 
  29   2.0000      -2.630794       -71.5875 
  30   2.0000      -2.628471       -71.5243 
  31   2.0000      -2.627421       -71.4957 
  32   2.0000      -2.626945       -71.4828 
  33   2.0000      -2.626776       -71.4782 
  34   2.0000      -2.625834       -71.4526 
  35   2.0000      -2.624233       -71.4090 
  36   2.0000      -2.622931       -71.3736 
  37   2.0000      -2.615620       -71.1746 
  38   2.0000      -2.611832       -71.0716 
  39   2.0000      -2.607359       -70.9498 
  40   2.0000      -0.411266       -11.1911 
  41   2.0000      -0.382818       -10.4170 
  42   2.0000      -0.369586       -10.0569 
  43   2.0000      -0.366564        -9.9747 
  44   2.0000      -0.361601        -9.8397 
  45   2.0000      -0.343444        -9.3456 
  46   2.0000      -0.340612        -9.2685 
  47   2.0000      -0.334650        -9.1063 
  48   2.0000      -0.298199        -8.1144 
  49   2.0000      -0.287686        -7.8283 
  50   2.0000      -0.278104        -7.5676 
  51   2.0000      -0.276422        -7.5218 
  52   2.0000      -0.274580        -7.4717 
  53   2.0000      -0.263381        -7.1670 
  54   2.0000      -0.260265        -7.0822 
  55   2.0000      -0.248526        -6.7627 
  56   2.0000      -0.241862        -6.5814 
  57   2.0000      -0.238173        -6.4810 
  58   2.0000      -0.230107        -6.2615 
  59   2.0000      -0.228092        -6.2067 
  60   2.0000      -0.222930        -6.0662 
  61   2.0000      -0.221383        -6.0241 
  62   2.0000      -0.213953        -5.8219 
  63   2.0000      -0.211077        -5.7437 
  64   0.0000      -0.213728        -5.8158 
  65   0.0000      -0.204685        -5.5698 
  66   0.0000      -0.201052        -5.4709 
  67   0.0000      -0.186237        -5.0678 
  68   0.0000      -0.182482        -4.9656 
  69   0.0000      -0.157136        -4.2759 
  70   0.0000      -0.150689        -4.1005 
  71   0.0000      -0.143011        -3.8915 
  72   0.0000      -0.128923        -3.5082 
  73   0.0000      -0.120379        -3.2757 
  74   0.0000      -0.116505        -3.1703 
*Only the first 10 virtual orbitals were printed.
-------
TIMINGS
-------

Total SCF time: 0 days 0 hours 0 min 10 sec 

Total time                  ....      10.405 sec
Sum of individual times     ....      10.008 sec  ( 96.2%)

SCF preparation             ....       0.657 sec  (  6.3%)
Fock matrix formation       ....       7.353 sec  ( 70.7%)
  Startup                   ....       0.025 sec  (  0.3% of F)
  Split-RI-J                ....       2.813 sec  ( 38.3% of F)
  XC integration            ....       4.172 sec  ( 56.7% of F)
    XC Preparation          ....       0.000 sec  (  0.0% of XC)
    Basis function eval.    ....       1.234 sec  ( 29.6% of XC)
    Density eval.           ....       0.586 sec  ( 14.0% of XC)
    XC-Functional eval.     ....       0.231 sec  (  5.5% of XC)
    XC-Potential eval.      ....       0.354 sec  (  8.5% of XC)
Diagonalization             ....       0.000 sec  (  0.0%)
Density matrix formation    ....       0.236 sec  (  2.3%)
Total Energy calculation    ....       0.116 sec  (  1.1%)
Population analysis         ....       0.000 sec  (  0.0%)
Orbital Transformation      ....       0.070 sec  (  0.7%)
Orbital Orthonormalization  ....       0.000 sec  (  0.0%)
DIIS solution               ....       0.696 sec  (  6.7%)
SOSCF solution              ....       0.880 sec  (  8.5%)
Finished LeanSCF after  10.4 sec

Maximum memory used throughout the entire LEANSCF-calculation: 12.5 MB


           ************************************************************
           *        Program running with 24 parallel MPI-processes    *
           *              working on a common directory               *
           ************************************************************

------------------------------------------------------------------------------
                         ORCA PROPERTY INTEGRAL CALCULATIONS
------------------------------------------------------------------------------

GBWName                                   ... run.gbw
Number of atoms                           ...     32
Number of basis functions                 ...    192
Max core memory                           ...   4096 MB

Dipole integrals                          ... YES
Quadrupole integrals                      ...  NO
Linear momentum integrals                 ...  NO
Angular momentum integrals                ...  NO
Higher moments length integrals           ...  NO
Higher moments velocity integrals         ...  NO
Kinetic energy integrals                  ...  NO
GIAO right hand sides                     ...  NO
GIAO dipole derivative integrals          ...  NO
SOC integrals                             ...  NO
EPR diamagnetic integrals (GIAO)          ...  NO
EPR gauge integrals                       ...  NO
Field gradient integrals                  ...  NO (   0 nuclei)
Spin-dipole/Fermi contact integrals       ...  NO (   0 nuclei)
Contact density integrals                 ...  NO (   0 nuclei)
Nucleus-orbit integrals                   ...  NO (   0 nuclei)
Geometric perturbations                   ...  NO (  32 nuclei)

Choice of electric origin   ... Center of mass
Position of electric origin ... ( -0.0081,  1.7507,  5.2383) 
Choice of magnetic origin   ... GIAO
Position of magnetic origin ... (  0.0000,  0.0000,  0.0000) 

Calculating integrals                     ... Electric Dipole (Length)     done (  0.0 sec)

Property integrals calculated in   0.0 sec

Maximum memory used throughout the entire PROPINT-calculation: 12.1 MB


-------------------------------------------------------------------------------
                          DFT DISPERSION CORRECTION                            
                                                                               
                              DFTD3 V3.1  Rev 1                                
                          USING Becke-Johnson damping                          
-------------------------------------------------------------------------------
The PBE functional is recognized
Active option DFTDOPT                   ...         4   

molecular C6(AA) [au] = 56166.534421 


            DFT-D V3
 parameters
 s6 scaling factor         :     1.0000 
 a1 scaling factor         :     0.4289 
 s8 scaling factor         :     0.7875 
 a2 scaling factor         :     4.4407 
 ad hoc parameters k1-k3   :    16.0000     1.3333    -4.0000 

 Edisp/kcal,au: -28.331940484469  -0.045149816271 
 E6   /kcal   : -17.986277104 
 E8   /kcal   : -10.345663381 
 % E8         :  36.515901149 

-------------------------   ----------------
Dispersion correction           -0.045149816
-------------------------   ----------------


-------------------------   --------------------
FINAL SINGLE POINT ENERGY     -1950.381530407330
-------------------------   --------------------



           ************************************************************
           *        Program running with 24 parallel MPI-processes    *
           *              working on a common directory               *
           ************************************************************
------------------------------------------------------------------------------
                         ORCA SCF GRADIENT CALCULATION
------------------------------------------------------------------------------

Nuc. rep. gradient        (SHARK) ... done (  0.0 sec)
HCore & Overlap gradient  (SHARK) ... done (  0.1 sec)
Split-RIJ-J gradient      (SHARK) ... done (  0.5 sec)
XC gradient                       ... done (  1.1 sec)
Dispersion correction             ... done (  0.1 sec)

-------------------
DISPERSION GRADIENT
-------------------

   1   Al  :    0.000369421    0.001051162   -0.000474484
   2   Al  :   -0.001346034    0.000141143   -0.000792947
   3   Al  :    0.000178187   -0.001064899   -0.000587559
   4   Al  :    0.001716638    0.000641142   -0.002540592
   5   Al  :    0.000153514   -0.001539085   -0.000582656
   6   Al  :   -0.000910824    0.000008286    0.000370154
   7   Al  :    0.000868248    0.000569344    0.000260354
   8   Al  :    0.000123221   -0.000172577    0.001240794
   9   H   :   -0.000009142    0.000019620   -0.000268633
  10   H   :    0.000000035    0.000024968    0.000332495
  11   H   :    0.000069480    0.000070316    0.000196039
  12   H   :   -0.000060978    0.000107894    0.000181042
[...]
 27:    327.56   0.002878   14.55  0.002742  ( 0.001296  0.012154  0.050920)
 28:    344.57   0.002850   14.40  0.002581  ( 0.003562 -0.024083  0.044595)
 29:    352.29   0.001106    5.59  0.000980  ( 0.008981  0.016665 -0.024932)
 30:    353.85   0.001019    5.15  0.000899  (-0.013830  0.023204 -0.012999)
 31:    379.12   0.021941  110.88  0.018060  ( 0.005182  0.003633  0.134240)
 32:    407.91   0.009417   47.59  0.007204  ( 0.084690  0.003132  0.004656)
 33:    420.13   0.001072    5.42  0.000796  (-0.006283 -0.026671  0.006717)
 34:    450.74   0.002299   11.62  0.001592  (-0.037426 -0.005400  0.012725)
 35:    460.46   0.005675   28.68  0.003846  ( 0.014226 -0.052080  0.030521)
 36:    471.12   0.000228    1.15  0.000151  ( 0.003362  0.011810  0.000301)
 37:    480.51   0.004579   23.14  0.002974  (-0.002633  0.049301  0.023153)
 38:    524.29   0.000926    4.68  0.000551  (-0.021630  0.000093 -0.009114)
 39:    543.83   0.008132   41.10  0.004667  (-0.010676  0.038651 -0.055306)
 40:    545.11   0.001443    7.29  0.000826  ( 0.001412  0.016600  0.023423)
 41:    559.26   0.005119   25.87  0.002857  (-0.034937 -0.011642  0.038735)
 42:    580.45   0.000999    5.05  0.000537  ( 0.021869 -0.003992 -0.006564)
 43:    596.37   0.023098  116.73  0.012086  ( 0.109744 -0.003760  0.005343)
 44:    605.19   0.019701   99.56  0.010159  (-0.005508 -0.096316  0.029184)
 45:    613.30   0.001302    6.58  0.000663  (-0.021326  0.009239 -0.011062)
 46:    618.20   0.027126  137.08  0.013693  ( 0.018993 -0.055719 -0.101131)
 47:    630.05   0.017731   89.61  0.008782  ( 0.087983  0.024915  0.020508)
 48:    650.30   0.002137   10.80  0.001026  (-0.022620 -0.014905 -0.017081)
 49:    680.50   0.091244  461.11  0.041842  ( 0.010587  0.024705  0.202781)
 50:    698.75   0.008066   40.76  0.003602  (-0.049026  0.006831  0.033945)
 51:    722.31   0.026205  132.43  0.011322  ( 0.106024  0.008662 -0.002358)
 52:    733.77   0.126233  637.93  0.053685  ( 0.009437 -0.063341  0.222675)
 53:    748.57   0.172754  873.03  0.072018  ( 0.040184  0.019779  0.264597)
 54:    789.40   0.014888   75.24  0.005886  ( 0.018803  0.071454 -0.020649)
 55:    799.49   0.217804  1100.69  0.085015  (-0.289564 -0.020323  0.027462)
 56:    814.47   0.132299  668.58  0.050690  ( 0.223096 -0.010384 -0.028478)
 57:    834.41   0.049800  251.67  0.018625  (-0.075412 -0.057351 -0.098228)
 58:    844.79   0.080770  408.18  0.029836  ( 0.009861 -0.131355 -0.111736)
 59:    859.02   0.016395   82.85  0.005956  (-0.000750 -0.073621 -0.023135)
 60:    861.44   0.029221  147.67  0.010585  ( 0.078774 -0.005431 -0.065959)
 61:    888.17   0.022464  113.52  0.007893  (-0.017053  0.081521 -0.030923)
 62:    897.39   0.002216   11.20  0.000771  ( 0.019148  0.015115 -0.013251)
 63:    920.05   0.054833  277.10  0.018598  (-0.027752 -0.068340 -0.114707)
 64:    927.52   0.011679   59.02  0.003929  ( 0.000833 -0.056835  0.026426)
 65:    950.82   0.003563   18.01  0.001170  ( 0.020384 -0.018007  0.020731)
 66:    968.42   0.076181  384.99  0.024548  (-0.019132  0.147319 -0.049795)
 67:    991.37   0.004753   24.02  0.001496  (-0.036251  0.011515  0.007022)
 68:   1038.67   0.011732   59.29  0.003525  ( 0.059259 -0.003525 -0.000879)
 69:   1040.24   0.029244  147.79  0.008773  ( 0.019201 -0.018770  0.089733)
 70:   1048.94   0.057953  292.87  0.017241  ( 0.126065  0.019028 -0.031413)
 71:   1144.17   0.016274   82.24  0.004439  ( 0.007276 -0.058332  0.031354)
 72:   1570.80   0.031496  159.17  0.006257  ( 0.005151  0.020100  0.076332)
 73:   1650.09   0.010186   51.47  0.001926  (-0.002523  0.018042 -0.039930)
 74:   1689.39   0.014441   72.98  0.002668  (-0.001742  0.045875  0.023665)
 75:   1728.54   0.020804  105.14  0.003756  ( 0.028544 -0.003647  0.054110)
 76:   1735.43   0.015937   80.54  0.002866  ( 0.051368 -0.011696 -0.009509)
 77:   1769.51   0.002469   12.48  0.000435  ( 0.019243  0.006026 -0.005372)
 78:   1774.71   0.023176  117.12  0.004075  (-0.054907 -0.009572  0.031126)
 79:   1792.74   0.110553  558.69  0.019244  (-0.024374  0.108544 -0.082875)
 80:   1843.81   0.169888  858.54  0.028753  (-0.042843 -0.111449 -0.120403)
 81:   1845.72   0.175704  887.93  0.029707  ( 0.125230  0.009753 -0.118022)
 82:   1853.51   0.307709  1555.04  0.051807  ( 0.227020 -0.007161 -0.014748)
 83:   1864.03   0.311050  1571.92  0.052074  ( 0.078842  0.019349  0.213269)
 84:   1865.65   0.067561  341.43  0.011301  ( 0.050795 -0.001390 -0.093374)
 85:   1903.12   0.086440  436.83  0.014174  ( 0.004588 -0.099849  0.064678)
 86:   1917.11   0.001210    6.11  0.000197  (-0.000019 -0.013501 -0.003829)
 87:   1919.15   0.043225  218.44  0.007029  (-0.080949 -0.005586 -0.021089)
 88:   1920.12   0.029962  151.42  0.004869  ( 0.063609 -0.003902 -0.028428)
 89:   1922.80   0.010258   51.84  0.001665  ( 0.000338  0.013569  0.038478)
 90:   1925.20   0.029722  150.20  0.004818  ( 0.012224 -0.022870  0.064383)
 91:   1926.79   0.016634   84.06  0.002694  ( 0.031968  0.033293 -0.023742)
 92:   1938.62   0.021476  108.53  0.003457  (-0.003443  0.045144  0.037513)
 93:   1945.36   0.021683  109.58  0.003478  (-0.057131  0.005143 -0.013707)
 94:   1953.58   0.018607   94.03  0.002972  (-0.005903  0.054186 -0.001108)
 95:   1972.09   0.053179  268.75  0.008415  (-0.002042  0.087944 -0.026015)

* The epsilon (eps) is given for a Dirac delta lineshape.
** The dipole moment derivative (T) already includes vibrational overlap.

The first frequency considered to be a vibration is 7
The total number of vibrations considered is 89


--------------------------
THERMOCHEMISTRY AT 298.15K
--------------------------

Temperature         ...   298.15 K
Pressure            ...     1.00 atm
Total Mass          ...   240.05 AMU
Quasi RRHO          ...     True
Cut-Off Frequency   ...     1.00 cm^-1

Throughout the following assumptions are being made:
  (1) The electronic state is orbitally nondegenerate
  (2) There are no thermally accessible electronically excited states
  (3) Hindered rotations indicated by low frequency modes are not
      treated as such but are treated as vibrations and this may
      cause some error
  (4) All equations used are the standard statistical mechanics
      equations for an ideal gas
  (5) All vibrations are strictly harmonic

freq.      53.67  E(vib)   ...       0.52 
freq.      79.52  E(vib)   ...       0.49 
freq.     111.05  E(vib)   ...       0.45 
freq.     114.94  E(vib)   ...       0.44 
freq.     128.29  E(vib)   ...       0.43 
freq.     136.55  E(vib)   ...       0.42 
freq.     168.18  E(vib)   ...       0.38 
freq.     171.50  E(vib)   ...       0.38 
freq.     178.01  E(vib)   ...       0.37 
freq.     200.11  E(vib)   ...       0.35 
freq.     208.23  E(vib)   ...       0.34 
freq.     223.36  E(vib)   ...       0.33 
freq.     235.85  E(vib)   ...       0.32 
freq.     241.30  E(vib)   ...       0.31 
freq.     252.06  E(vib)   ...       0.30 
freq.     255.21  E(vib)   ...       0.30 
freq.     275.06  E(vib)   ...       0.28 
freq.     275.99  E(vib)   ...       0.28 
freq.     289.75  E(vib)   ...       0.27 
freq.     300.10  E(vib)   ...       0.26 
freq.     327.56  E(vib)   ...       0.24 
freq.     344.57  E(vib)   ...       0.23 
freq.     352.29  E(vib)   ...       0.23 
freq.     353.85  E(vib)   ...       0.22 
freq.     379.12  E(vib)   ...       0.21 
freq.     407.91  E(vib)   ...       0.19 
freq.     420.13  E(vib)   ...       0.18 
freq.     450.74  E(vib)   ...       0.17 
freq.     460.46  E(vib)   ...       0.16 
freq.     471.12  E(vib)   ...       0.15 
freq.     480.51  E(vib)   ...       0.15 
freq.     524.29  E(vib)   ...       0.13 
freq.     543.83  E(vib)   ...       0.12 
freq.     545.11  E(vib)   ...       0.12 
freq.     559.26  E(vib)   ...       0.12 
freq.     580.45  E(vib)   ...       0.11 
freq.     596.37  E(vib)   ...       0.10 
freq.     605.19  E(vib)   ...       0.10 
freq.     613.30  E(vib)   ...       0.10 
freq.     618.20  E(vib)   ...       0.09 
freq.     630.05  E(vib)   ...       0.09 
freq.     650.30  E(vib)   ...       0.08 
freq.     680.50  E(vib)   ...       0.08 
freq.     698.75  E(vib)   ...       0.07 
freq.     722.31  E(vib)   ...       0.07 
freq.     733.77  E(vib)   ...       0.06 
freq.     748.57  E(vib)   ...       0.06 
freq.     789.40  E(vib)   ...       0.05 
freq.     799.49  E(vib)   ...       0.05 
freq.     814.47  E(vib)   ...       0.05 
freq.     834.41  E(vib)   ...       0.04 
freq.     844.79  E(vib)   ...       0.04 
freq.     859.02  E(vib)   ...       0.04 
freq.     861.44  E(vib)   ...       0.04 
freq.     888.17  E(vib)   ...       0.04 
freq.     897.39  E(vib)   ...       0.03 
freq.     920.05  E(vib)   ...       0.03 
freq.     927.52  E(vib)   ...       0.03 
freq.     950.82  E(vib)   ...       0.03 
freq.     968.42  E(vib)   ...       0.03 
freq.     991.37  E(vib)   ...       0.02 
freq.    1038.67  E(vib)   ...       0.02 
freq.    1040.24  E(vib)   ...       0.02 
freq.    1048.94  E(vib)   ...       0.02 
freq.    1144.17  E(vib)   ...       0.01 
freq.    1570.80  E(vib)   ...       0.00 
freq.    1650.09  E(vib)   ...       0.00 
freq.    1689.39  E(vib)   ...       0.00 
freq.    1728.54  E(vib)   ...       0.00 
freq.    1735.43  E(vib)   ...       0.00 
freq.    1769.51  E(vib)   ...       0.00 
freq.    1774.71  E(vib)   ...       0.00 
freq.    1792.74  E(vib)   ...       0.00 
freq.    1843.81  E(vib)   ...       0.00 
freq.    1845.72  E(vib)   ...       0.00 
freq.    1853.51  E(vib)   ...       0.00 
freq.    1864.03  E(vib)   ...       0.00 
freq.    1865.65  E(vib)   ...       0.00 
freq.    1903.12  E(vib)   ...       0.00 
freq.    1917.11  E(vib)   ...       0.00 
freq.    1919.15  E(vib)   ...       0.00 
freq.    1920.12  E(vib)   ...       0.00 
freq.    1922.80  E(vib)   ...       0.00 
freq.    1925.20  E(vib)   ...       0.00 
freq.    1926.79  E(vib)   ...       0.00 
freq.    1938.62  E(vib)   ...       0.00 
freq.    1945.36  E(vib)   ...       0.00 
freq.    1953.58  E(vib)   ...       0.00 
freq.    1972.09  E(vib)   ...       0.00 

------------
INNER ENERGY
------------

The inner energy is: U= E(el) + E(ZPE) + E(vib) + E(rot) + E(trans)
    E(el)   - is the total energy from the electronic structure calculation
              = E(kin-el) + E(nuc-el) + E(el-el) + E(nuc-nuc)
    E(ZPE)  - the the zero temperature vibrational energy from the frequency calculation
    E(vib)  - the the finite temperature correction to E(ZPE) due to population
              of excited vibrational states
    E(rot)  - is the rotational thermal energy
    E(trans)- is the translational thermal energy

Summary of contributions to the inner energy U:
Electronic energy                ...  -1952.01567773 Eh
Zero point energy                ...      0.18053092 Eh     113.28 kcal/mol
Thermal vibrational correction   ...      0.01829643 Eh      11.48 kcal/mol
Thermal rotational correction    ...      0.00141627 Eh       0.89 kcal/mol
Thermal translational correction ...      0.00141627 Eh       0.89 kcal/mol
-----------------------------------------------------------------------
Total thermal energy                  -1951.81401784 Eh


Summary of corrections to the electronic energy:
(perhaps to be used in another calculation)
Total thermal correction                  0.02112898 Eh      13.26 kcal/mol
Non-thermal (ZPE) correction              0.18053092 Eh     113.28 kcal/mol
-----------------------------------------------------------------------
Total correction                          0.20165989 Eh     126.54 kcal/mol


--------
ENTHALPY
--------

The enthalpy is H = U + kB*T
                kB is Boltzmann's constant
Total thermal energy              ...  -1951.81401784 Eh 
Thermal Enthalpy correction       ...      0.00094421 Eh       0.59 kcal/mol
-----------------------------------------------------------------------
Total Enthalpy                    ...  -1951.81307363 Eh


Note: Only C1 symmetry has been detected, increase convergence thresholds 
      if your molecule has a higher symmetry. Symmetry factor of 1.0 is   
      used for the rotational entropy correction. 
 

Note: Rotational entropy computed according to Herzberg 
Infrared and Raman Spectra, Chapter V,1, Van Nostrand Reinhold, 1945 
Point Group:  C1, Symmetry Number:   1  
Rotational constants in cm-1:     0.015792     0.012248     0.008785 

Vibrational entropy computed according to the QRRHO of S. Grimme
Chem.Eur.J. 2012 18 9955 using a reference frequency of 100.0 cm-1


-------
ENTROPY
-------

The entropy contributions are T*S = T*(S(el)+S(vib)+S(rot)+S(trans))
     S(el)   - electronic entropy
     S(vib)  - vibrational entropy
     S(rot)  - rotational entropy
     S(trans)- translational entropy
The entropies will be listed as multiplied by the temperature to get
units of energy

Electronic entropy                ...      0.00000000 Eh      0.00 kcal/mol
Vibrational entropy               ...      0.03083286 Eh     19.35 kcal/mol
Rotational entropy                ...      0.01578266 Eh      9.90 kcal/mol
Translational entropy             ...      0.02011143 Eh     12.62 kcal/mol
-----------------------------------------------------------------------
Final entropy term                ...      0.06672695 Eh     41.87 kcal/mol

In case the symmetry of your molecule has not been determined correctly
or in case you have a reason to use a different symmetry number we print 
out the resulting rotational entropy values for sn=1,12:

 non-linear molecules -----------------------------------
|  sn= 1 | S(rot)=       0.01578266 Eh      9.90 kcal/mol|
|  sn= 2 | S(rot)=       0.01512820 Eh      9.49 kcal/mol|
|  sn= 3 | S(rot)=       0.01474537 Eh      9.25 kcal/mol|
|  sn= 4 | S(rot)=       0.01447375 Eh      9.08 kcal/mol|
|  sn= 5 | S(rot)=       0.01426306 Eh      8.95 kcal/mol|
|  sn= 6 | S(rot)=       0.01409092 Eh      8.84 kcal/mol|
|  sn= 7 | S(rot)=       0.01394537 Eh      8.75 kcal/mol|
|  sn= 8 | S(rot)=       0.01381929 Eh      8.67 kcal/mol|
|  sn= 9 | S(rot)=       0.01370808 Eh      8.60 kcal/mol|
|  sn=10 | S(rot)=       0.01360860 Eh      8.54 kcal/mol|
|  sn=11 | S(rot)=       0.01351861 Eh      8.48 kcal/mol|
|  sn=12 | S(rot)=       0.01343646 Eh      8.43 kcal/mol|
 linear molecules ---------------------------------------
|  Dinfh | S(rot)=       0.00979620 Eh      6.15 kcal/mol|
|  Cinfv | S(rot)=       0.01045066 Eh      6.56 kcal/mol|
 --------------------------------------------------------


-------------------
GIBBS FREE ENERGY
-------------------

The Gibbs free energy is G = H - T*S

Total enthalpy                    ...  -1951.81307363 Eh 
Total entropy correction          ...     -0.06672695 Eh    -41.87 kcal/mol
-----------------------------------------------------------------------
Final Gibbs free energy         ...  -1951.87980058 Eh

For completeness - the Gibbs free energy minus the electronic energy
G-E(el)                           ...      0.13587715 Eh     85.26 kcal/mol


Maximum memory used throughout the entire PROP-calculation: 34.4 MB

--------------------------------
SUGGESTED CITATIONS FOR THIS RUN
--------------------------------

Below you find a list of papers that are relevant to this ORCA run
We neither can nor want to force you to cite these papers, but we appreciate if you do
You receive ORCA, which is the product of decades of hard work by many enthusiastic individuals, for free
The only thing we kindly ask in return is that you cite our papers,
We deeply appreciate it, if you show your appreciation for ORCA by not just citing the generic ORCA reference.

Please note that relegating all ORCA citations to the supporting information does *not* help us.
SI sections are not indexed - citations you put there will not count into any citation statistics
But we need these citations in order to attract the funding resources that allow us to do what we are doing

Therefore, if you are a happy ORCA user, please consider citing a few of the papers listed below in the main body of your paper

In addition to the list printed below, the program has created the file run.bibtex that contains the list in bibtex format
You can import this file easily into all common literature databanks and citation aid programs


List of essential papers. We consider these as the minimum necessary citations

  1. Neese, F.
     Software update: the ORCA program system, version 6.0
     WIRES Comput. Molec. Sci. 2025 15(1), e70019
     doi.org/10.1002/wcms.7019

List of papers to cite with high priority. The work reported in these papers was absolutely
necessary for this run to complete.
Our perspective: the developers of density functionals and basis sets usually get cited in chemistry papers
Good! But without the algorithms to do something with them, the functionals or basis sets would not do anything.
Hence, in our opinion, the algorithm design and method developments papers are equally worthy of getting cited

  1. Neese, F.
     An improvement of the resolution of the identity approximation for the formation of the Coulomb matrix
     J. Comp. Chem. 2003 24(14), 1740-1747
     doi.org/10.1002/jcc.10318
  2. Grimme, S.; Antony, J.; Ehrlich, S.; Krieg, H.
     A consistent and accurate ab initio parametrization of density functional dispersion correction (DFT-D) for the 94 elements H-Pu
     J. Chem. Phys. 2010 132 , 154104
     doi.org/10.1063/1.3382344
  3. Grimme, S.; Ehrlich, S.; Goerigk, L.
     Effect of the damping function in dispersion corrected density functional theory
     J. Comput. Chem. 2011 32(7), 1456-1465
     doi.org/10.1002/jcc.21759
  4. Bykov, D.; Petrenko, T.; Izsak, R.; Kossmann, S.; Becker, U.; Valeev, E.; Neese, F.
     Efficient implementation of the analytic second derivatives of Hartree-Fock and hybrid DFT energies: a detailed analysis of different approximations
     Molec. Phys. 2015 113 , 1961-1977
     doi.org/10.1080/00268976.2015.1025114
  5. Neese, F.
     The SHARK Integral Generation and Digestion System
     J. Comp. Chem. 2022 44(3), 381
     doi.org/10.1002/jcc.26942

List of suggested additional citations. These are papers that are important in the 'surrounding' of 
of this run, or papers that preceded the highly important papers. If you like your results we are grateful for a citation.

  1. Neese, F.
     The ORCA program system
     WIRES Comput. Molec. Sci. 2012 2(1), 73-78
     doi.org/10.1002/wcms.81
  2. Neese, F.
     Software update: the ORCA program system, version 4.0
     WIRES Comput. Molec. Sci. 2018 8(1), 1-6
     doi.org/10.1002/wcms.1327
  3. Neese, F.; Wennmohs, F.; Becker, U.; Riplinger, C.
     The ORCA quantum chemistry program package
     J. Chem. Phys. 2020 152(22), 224108
     doi.org/10.1063/5.0004608
  4. Neese, F.
     Software update: The ORCA program system—Version 5.0
     WIRES Comput. Molec. Sci. 2022 12(1), e1606
     doi.org/10.1002/wcms.1606

List of optional additional citations

  1. Neese, F.
     Approximate second-order SCF convergence for spin unrestricted wavefunctions
     Chem. Phys. Lett. 2000 325(1-3), 93-98
     doi.org/10.1016/s0009-2614(00)00662-x

Timings for individual modules:

Sum of individual times          ...      724.437 sec (=  12.074 min)
Startup calculation              ...      156.692 sec (=   2.612 min)  21.6 %
SCF iterations                   ...      279.843 sec (=   4.664 min)  38.6 %
Property integrals               ...       72.626 sec (=   1.210 min)  10.0 %
SCF Response                     ...       19.698 sec (=   0.328 min)   2.7 %
Property calculations            ...       30.316 sec (=   0.505 min)   4.2 %
SCF Gradient evaluation          ...      159.494 sec (=   2.658 min)  22.0 %
Geometry relaxation              ...        5.769 sec (=   0.096 min)   0.8 %
                             ****ORCA TERMINATED NORMALLY****
TOTAL RUN TIME: 0 days 0 hours 12 minutes 48 seconds 666 msec
