
                                 *****************
                                 * O   R   C   A *
                                 *****************

                                            #,                                       
                                            ###                                      
                                            ####                                     
                                            #####                                    
                                            ######                                   
                                           ########,                                 
                                     ,,################,,,,,                         
                               ,,#################################,,                 
                          ,,##########################################,,             
                       ,#########################################, ''#####,          
                    ,#############################################,,   '####,        
                  ,##################################################,,,,####,       
                ,###########''''           ''''###############################       
              ,#####''   ,,,,##########,,,,          '''####'''          '####       
            ,##' ,,,,###########################,,,                        '##       
           ' ,,###''''                  '''############,,,                           
         ,,##''                                '''############,,,,        ,,,,,,###''
      ,#''                                            '''#######################'''  
     '                                                          ''''####''''         
             ,#######,   #######,   ,#######,      ##                                
            ,#'     '#,  ##    ##  ,#'     '#,    #''#        ,####,    ,#,          
            ##       ##  ##   ,#'  ##            #'  '#       #'       ,# #          
            ##       ##  #######   ##           ,######,      #####,      #          
            '#,     ,#'  ##    ##  '#,     ,#' ,#      #,     #,   #      #          
             '#######'   ##     ##  '#######'  #'      '#     '####' #    #          



                #########################################################
                #                        -***-                          #
                #          Department of theory and spectroscopy        #
                #                                                       #
                #                      Frank Neese                      #
                #                                                       #
                #     Directorship, Architecture, Infrastructure        #
                #                    SHARK, DRIVERS                     #
                #        Core code/Algorithms in most modules           #
                #                                                       #
                #        Max Planck Institute fuer Kohlenforschung      #
                #                Kaiser Wilhelm Platz 1                 #
                #                 D-45470 Muelheim/Ruhr                 #
                #                      Germany                          #
                #                                                       #
                #                  All rights reserved                  #
                #                        -***-                          #
                #########################################################


                         Program Version 6.1.0  -  RELEASE   -
                                (GIT: $679e74b$)
                          ($2025-06-10 18:02:51 +0200$)


 With contributions from (in alphabetic order):
[Max-Planck-Institut fuer Kohlenforschung]                               
  Daniel Aravena         : Magnetic Suceptibility                        
  Michael Atanasov       : Ab Initio Ligand Field Theory (pilot matlab implementation)
  Alexander A. Auer      : GIAO ZORA, VPT2 properties, NMR spectrum      
  Ute Becker             : All parallelization in ORCA, NUMFREQ, NUMCALC 
  Giovanni Bistoni       : ED, misc. LED, open-shell LED, HFLD           
  Dmytro Bykov           : pre 5.0 version of the SCF Hessian            
  Marcos Casanova-Páez   : Triplet and SCS-CIS(D). UHF-(DLPNO)-IP/EA/STEOM-CCSD. UHF-CVS-IP/STEOM-CCSD   
  Vijay G. Chilkuri      : MRCI spin determinant printing, contributions to CSF-ICE 
  Pauline Colinet        : FMM embedding                                 
  Dipayan Datta          : RHF DLPNO-CCSD density                        
  Achintya Kumar Dutta   : EOM-CC, STEOM-CC                              
  Nicolas Foglia         : Exact transition moments, OPA infrastructure, MCD improvements    
  Dmitry Ganyushin       : Spin-Orbit,Spin-Spin,Magnetic field MRCI      
  Miquel Garcia-Rates    : C-PCM and meta-GGA Hessian, CCSD/C-PCM, Gaussian charge scheme 
  Tiago L. C. Gouveia    : GS-ROHF, GS-ROCIS                             
  Yang Guo               : DLPNO-NEVPT2, F12-NEVPT2, CIM, IAO-localization        
  Andreas Hansen         : Spin unrestricted coupled pair/coupled cluster methods 
  Ingolf Harden          : AUTO-CI MPn and infrastructure                
  Benjamin Helmich-Paris : MC-RPA, TRAH-(SCF,CASSCF), AVAS, COSX integrals, SCF dyn. polar., MC-PDFT, srDFT 
  Lee Huntington         : MR-EOM, pCC                                   
  Robert Izsak           : Overlap fitted RIJCOSX, COSX-SCS-MP3, EOM     
  Riya Kayal             : Wick's Theorem for AUTO-CI, AUTO-CI UHF-CCSDT 
  Emily Kempfer          : AUTO-CI RHF CISDT and CCSDT, approximate NEVPT4
  Christian Kollmar      : KDIIS, OOCD, Brueckner-CCSD(T), CCSD density, CASPT2, CASPT2-K, improved NEVPT2 
  Axel Koslowski         : Symmetry handling                             
  Simone Kossmann        : meta-GGA functionals, TD-DFT gradient, OOMP2, (MP2 Hessian; deprecated post 5.0) 
  Lucas Lang             : DCDCAS, Hyperfine gauge corrections, ICE-SOC+SSC
  Marvin Lechner         : AUTO-CI (C++ implementation), FIC-MRCC        
  Spencer Leger          : CASSCF response                               
  Dagmar Lenk            : GEPOL surface, SMD, ORCA-2-JSON               
  Dimitrios Liakos       : Extrapolation schemes; Compound Job, Property file
  Dimitrios Manganas     : Further ROCIS development; embedding schemes. LFT, Crystal Embedding 
  Dimitrios Pantazis     : SARC Basis sets                               
  Anastasios Papadopoulos: AUTO-CI, single reference methods and gradients 
  Taras Petrenko         : pre 6.0 DFT Hessian and TD-DFT gradient,  ECA, NRVS 
  Petra Pikulova         : Analytic Raman intensities                    
  Peter Pinski           : DLPNO-MP2, DLPNO-MP2 Gradient                 
  Shashank Vittal Rao    : ES-AILFT, MagRelax                            
  Christoph Reimann      : Effective Core Potentials                     
  Marius Retegan         : Local ZFS, SOC                                
  Christoph Riplinger    : Optimizer, TS searches, QM/MM, DLPNO-CCSD(T), (RO)-DLPNO pert. Triples 
  Michael Roemelt        : Original ROCIS implementation, recursive CI coupling coefficients
  Masaaki Saitow         : Open-shell DLPNO-CCSD energy and density      
  Barbara Sandhoefer     : DKH picture change effects                    
  Yorick L. A. Schmerwitz: GMF and freeze-and-release deltaSCF, NEB S-IDPP initial path                    
  Kantharuban Sivalingam : CASSCF convergence/infrastructure, NEVPT2, NEVPT3, NEVPT4(SD), FIC-MRCI and CEPA variants
  Bernardo de Souza      : ESD, SOC TD-DFT                               
  Georgi L. Stoychev     : AutoAux, RI-MP2 NMR, DLPNO-MP2 response, X2C  
  Van Anh Tran           : RI-MP2 g-tensors                              
  Willem Van den Heuvel  : Paramagnetic NMR                              
  Zikuan Wang            : NOTCH, Electric field optimization            
  Frank Wennmohs         : Technical directorship and infrastructure     
  Hang Xu                : AUTO-CI-Response properties                   
                                                                         
[FACCTs GmbH]                                                            
  Markus Bursch, Nicolas Foglia, Miquel Garcia-Rates, Ingolf Harden, Hagen Neugebauer, Anastasios Papadopoulos, 
  Christoph Riplinger, Bernardo de Souza, Georgi L. Stoychev                                                    
                                                                 
  APM, various basis sets, CI-OPT, improved COSX, DLPNO-Multilevel,           
  DOCKER, DRACO, updates on ESD, Fragmentator, GOAT, IRC, LR-CPCM, L-BFGS, MBIS, meta-GGA TD-DFT gradient, ML-optimized integration grids, 
  MM, NACMEs, nearIR, NEB, NEB-TS, NL-DFT gradient (VV10), 2- and 3-layer-ONIOM, interface openCOSMO-RS, QMMM,   
  Crystal-QMMM, RESP, rigid body optimization, SF, symmetry and pop. for TD-DFT, various functionals, SOLVATOR                                   
                                                                         
[Other institutions]                                                     
  V. Asgeirsson          : NEB                                           
  Christoph Bannwarth    : sTDA-DFT, sTD-DFT, PBEh-3c, B97-3c, D3        
  Giovanni Bistoni       : ETS/NOCV, ADLD/ADEX, COVALED                  
  Martin Brehm           : Molecular dynamics                            
  Ronald Cardenas        : ETS/NOCV                                      
  Martina Colucci        : COVALED                                       
  Sebastian Ehlert       : rSCAN, r2SCAN, r2SCAN-3c, D4, dhf basis sets  
  Marvin Friede          : D4 for Fr, Ra, Ac-Lr                          
  Lars Goerigk           : TD-DFT with DH, B97 family of functionals     
  Stefan Grimme          : VdW corrections, initial TS optimization, DFT functionals, gCP, sTDA/sTD-DF 
  Waldemar Hujo          : DFT-NL                                        
  H. Jonsson             : NEB                                           
  Holger Kruse           : gCP                                           
  Marcel Mueller         : wB97X-3c, vDZP basis set                      
  Hagen Neugebauer       : wr2SCAN, Native XTB                           
  Gianluca Regni         : ADLD/ADEX                                     
  Tobias Risthaus        : pre 6.0 range-separated hybrid DFT and stability analysis
  Lukas Wittmann         : regularized MP2, r2SCAN double-hybrids, wr2SCAN        
                                                                         
We gratefully acknowledge several colleagues who have allowed us to      
interface, adapt or use parts of their codes:                            
  Ed Valeev, F. Pavosevic, A. Kumar             : LibInt (2-el integral package), F12 methods 
  Garnet Chan, S. Sharma, J. Yang, R. Olivares  : DMRG                   
  Ulf Ekstrom                                   : XCFun DFT Library      
  Mihaly Kallay                                 : mrcc  (arbitrary order and MRCC methods)
  Frank Weinhold                                : gennbo (NPA and NBO analysis)           
  Simon Mueller                                 : openCOSMO-RS                            
  Christopher J. Cramer and Donald G. Truhlar   : smd solvation model                     
  S Lehtola, MJT Oliveira, MAL Marques          : LibXC Library                           
  Liviu Ungur et al                             : ANISO software                          


 Your calculation uses the libint2 library for the computation of 2-el integrals
 For citations please refer to: http://libint.valeyev.net

 Your ORCA version has been built with support for libXC version: 7.0.0
 For citations please refer to: https://libxc.gitlab.io

 This ORCA versions uses:
   CBLAS   interface :  Fast vector & matrix operations
   LAPACKE interface :  Fast linear algebra routines
   SCALAPACK package :  Parallel linear algebra routines
   Shared memory     :  Shared parallel matrices
   BLAS/LAPACK       :  OpenBLAS 0.3.29  USE64BITINT DYNAMIC_ARCH NO_AFFINITY Bulldozer SINGLE_THREADED
        Core in use  :  Bulldozer
   Copyright (c) 2011-2014, The OpenBLAS Project


  ***********************************
  * Starting time: Fri Aug  8 18:34:25 2025
  * Host name:     chromium02
  * Process ID:    149920
  * Working dir.:  /local/scratch/mehlhorn/61813
  ***********************************



***************************************
The coordinates will be read from file: start.xyz
***************************************


Your calculation utilizes the geometrical counterpoise correction gCP
Please cite in your paper:
H.Kruse, S. Grimme J.Chem.Phys., 136, (2012), 154101 
   

Your calculation utilizes the atom-pairwise dispersion correction
with the Becke-Johnson damping scheme (D3BJ)


Warning: RI is on but no J-basis has been assigned. Assigning Def2/J (nothing to worry about!)
================================================================================

cite the ECPs for Zr [Def2-ECP] as follows:
Ce-Yb(ecp-28): M. Dolg, H. Stoll, H.Preuss, J. Chem. Phys., 1989, 90, 1730-1734.
Y-Cd(ecp-28), Hf-Hg(ecp-46): D. Andrae,U. Haeussermann, M. Dolg, H. Stoll, H. Preuss, Theor. Chim. Acta, 1990, 77, 123-141.
In-Sb(ecp-28), Tl-Bi(ecp-46): B. Metz, H. Stoll, M. Dolg, J. Chem. Phys., 2000, 113, 2563-2569.
Te-Xe(ecp-28), Po-Rn(ecp-46): K. A. Peterson, D. Figgen, E. Goll, H. Stoll, M. Dolg, J. Chem. Phys., 2003, 119, 11113-11123.
Rb(ecp-28), Cs(ecp-46): T. Leininger, A. Nicklass, W. Kuechle, H. Stoll, M. Dolg, A. Bergner, Chem. Phys. Lett., 1996, 255, 274-280.
Sr(ecp-28), Ba(ecp-46): M. Kaupp, P. V. Schleyer, H. Stoll and H. Preuss, J. Chem. Phys., 1991, 94, 1360-1366.
La(ecp-46): M. Dolg, H. Stoll, A. Savin, H. Preuss, Theor. Chim. Acta, 1989, 75, 173-194.
Lu(ecp-28): X. Cao, M. Dolg, J. Chem. Phys., 2001, 115, 7348-7355.

ECP parameters for Zr [Def2-ECP] have been obtained from:
TURBOMOLE (7.0.2)

----- Orbital basis set information -----
Your calculation utilizes the basis: def2-SV(P)
   F. Weigend and R. Ahlrichs, Phys. Chem. Chem. Phys. 7, 3297 (2005).

----- AuxJ basis set information -----
Your calculation utilizes the auxiliary basis: def2/J
   H-Rn: F. Weigend, Phys. Chem. Chem. Phys. 8, 1057 (2006).
   Fr-Lr: K. Eichkorn, F. Weigend, O. Treutler, R. Ahlrichs; Theor. Chem. Acc. 97, 119 (1997).

================================================================================
                                        WARNINGS
                       Please study these warnings very carefully!
================================================================================


WARNING: Gradients are needed
  ===> : At least TightSCF should be used for SCF convergence

WARNING: Geometry Optimization
  ===> : Switching off AutoStart
         For restart on a previous wavefunction, please use MOREAD

================================================================================
                                       INPUT FILE
================================================================================
NAME = run.inp
|  1> # Geometry optimization for (AlH3)n cluster
|  2> 
|  3> %pal nprocs 24  end
|  4> 
|  5> %geom MaxIter 500 end
|  6> 
|  7> 
|  8> ! PBE def2-SV(P)
|  9> ! RKS	# closed shell for AlH3
| 10> ! D3    #  dispersion correction
| 11> ! gCP(DFT/SV(P))
| 12> ! Freq 	# Frequency analysis to check the stabiltity of the structures
| 13> 
| 14> ! NoPop # population analysis not necessary	
| 15> 
| 16> ! DEFGRID2
| 17> ! NormalSCF
| 18> ! SloppyOpt
| 19> 
| 20> ! SmallPrint
| 21> 
| 22> 
| 23> * xyzFile 0 1 start.xyz # only maingroup elements H and Al so there should be no net spin
| 24> 
| 25>                          ****END OF INPUT****
================================================================================

                       *****************************
                       * Geometry Optimization Run *
                       *****************************

Geometry optimization settings:
Update method            Update   .... BFGS
Choice of coordinates    CoordSys .... (2022) Redundant Internals
Initial Hessian          InHess   .... Almloef's Model
Max. no of cycles        MaxIter  .... 500

Convergence Tolerances:
Energy Change            TolE     ....  8.0000e-05 Eh
Max. Gradient            TolMAXG  ....  5.0000e-03 Eh/bohr
RMS Gradient             TolRMSG  ....  1.0000e-03 Eh/bohr
Max. Displacement        TolMAXD  ....  3.0000e-02 bohr
RMS Displacement         TolRMSD  ....  2.0000e-02 bohr
Strict Convergence                .... False

------------------------------------------------------------------------------
                        ORCA OPTIMIZATION COORDINATE SETUP
------------------------------------------------------------------------------

The optimization will be done in redundant internal coordinates (2022)
Making redundant internal coordinates   ...  (2022 redundants) done
Evaluating the initial hessian          ...  (Almloef) done
Evaluating the coordinates              ...  done
Calculating the B-matrix                .... done
Calculating the G-matrix                .... done
The number of degrees of freedom        ....  818

    -----------------------------------------------------------------
                    Redundant Internal Coordinates


    -----------------------------------------------------------------
         Definition                    Initial Value    Approx d2E/dq
    -----------------------------------------------------------------
      1. B(Zr  2,Zr  1)                  3.4306         0.035504   
      2. B(Zr  3,Zr  0)                  3.4334         0.035146   
      3. B(Zr  4,Zr  1)                  3.3754         0.043499   
      4. B(Zr  4,Zr  3)                  3.4160         0.037461   
      5. B(Zr  5,Zr  0)                  3.3774         0.043177   
      6. B(Zr  5,Zr  2)                  3.4033         0.039258   
      7. B(O   6,Zr  0)                  2.0835         0.443158   
      8. B(O   6,Zr  3)                  2.0919         0.429769   
      9. B(O   6,Zr  5)                  2.1504         0.346643   
     10. B(O   7,Zr  4)                  2.1612         0.333072   
     11. B(O   7,Zr  1)                  2.0791         0.450341   
     12. B(O   7,Zr  2)                  2.1049         0.409651   
     13. B(O   8,Zr  5)                  2.1773         0.313995   
     14. B(O   8,Zr  2)                  2.1469         0.351030   
     15. B(O   8,Zr  1)                  2.1644         0.329263   
     16. B(O   9,Zr  4)                  2.1753         0.316263   
     17. B(O   9,Zr  3)                  2.1479         0.349834   
     18. B(O   9,Zr  0)                  2.1659         0.327372   
     19. B(O  10,Zr  4)                  2.1068         0.406760   
     20. B(O  10,Zr  3)                  2.0768         0.454170   
     21. B(O  10,Zr  1)                  2.1243         0.381542   
     22. B(O  11,Zr  0)                  2.1222         0.384405   
     23. B(O  11,Zr  5)                  2.1120         0.399102   
     24. B(O  11,Zr  2)                  2.0669         0.471059   
     25. B(O  12,Zr  0)                  1.9953         0.612707   
     26. B(O  13,Zr  0)                  1.9880         0.629465   
     27. B(O  14,Zr  0)                  2.0730         0.460592   
     28. B(O  15,Zr  0)                  1.9871         0.631596   
     29. B(O  16,Zr  1)                  1.9881         0.629237   
     30. B(O  17,Zr  1)                  2.0710         0.463973   
     31. B(O  18,Zr  1)                  1.9871         0.631513   
     32. B(O  19,Zr  1)                  1.9936         0.616599   
     33. B(O  20,Zr  2)                  1.9754         0.659105   
     34. B(O  21,Zr  2)                  2.0644         0.475404   
     35. B(O  22,Zr  2)                  1.9814         0.644894   
     36. B(O  23,Zr  2)                  2.0568         0.488818   
     37. B(O  24,Zr  3)                  2.0637         0.476562   
     38. B(O  25,Zr  3)                  1.9827         0.641861   
     39. B(O  26,Zr  3)                  2.0649         0.474517   
     40. B(O  27,Zr  3)                  1.9709         0.670188   
     41. B(O  28,Zr  4)                  1.9783         0.652306   
     42. B(O  29,Zr  4)                  2.0240         0.551346   
     43. B(O  30,Zr  4)                  1.9877         0.630095   
     44. B(O  31,Zr  4)                  2.0707         0.464468   
     45. B(O  32,Zr  5)                  2.0742         0.458620   
     46. B(O  33,Zr  5)                  1.9904         0.623867   
     47. B(O  34,Zr  5)                  2.0149         0.570280   
     48. B(O  35,Zr  5)                  1.9755         0.659012   
     49. B(C  36,O  33)                  1.3023         0.772283   
     50. B(C  36,O  12)                  1.3017         0.773922   
     51. B(C  37,O  13)                  1.3009         0.776362   
     52. B(C  37,O  25)                  1.3010         0.776095   
     53. B(C  38,O  21)                  1.2969         0.787654   
     54. B(C  38,O  14)                  1.2967         0.788391   
     55. B(C  39,O  29)                  1.2952         0.792695   
     56. B(C  39,O  15)                  1.2951         0.793133   
     57. B(C  40,O  34)                  1.2951         0.792919   
     58. B(C  40,O  16)                  1.2945         0.794837   
     59. B(C  41,O  26)                  1.2974         0.786314   
     60. B(C  41,O  17)                  1.2967         0.788313   
     61. B(C  42,O  22)                  1.3013         0.775261   
     62. B(C  42,O  18)                  1.3014         0.774772   
     63. B(C  43,O  19)                  1.3012         0.775561   
     64. B(C  43,O  30)                  1.3018         0.773595   
     65. B(C  44,O  35)                  1.2987         0.782638   
     66. B(C  44,O  20)                  1.2986         0.782813   
     67. B(C  45,O  31)                  1.2983         0.783872   
     68. B(C  45,O  23)                  1.3001         0.778470   
     69. B(C  46,O  32)                  1.2986         0.783001   
     70. B(C  46,O  24)                  1.3005         0.777364   
     71. B(C  47,O  28)                  1.2985         0.783295   
     72. B(C  47,O  27)                  1.2984         0.783343   
     73. B(H  48,C  41)                  1.0850         0.366785   
     74. B(H  49,C  42)                  1.0915         0.358081   
     75. B(H  50,C  38)                  1.0848         0.367060   
     76. B(H  51,C  37)                  1.0913         0.358402   
     77. B(H  52,C  43)                  1.0922         0.357260   
     78. B(H  53,C  47)                  1.0899         0.360200   
     79. B(H  54,C  39)                  1.0862         0.365131   
     80. B(H  55,C  45)                  1.0868         0.364366   
     81. B(H  56,C  40)                  1.0860         0.365478   
     82. B(H  57,C  46)                  1.0868         0.364346   
     83. B(H  58,C  36)                  1.0924         0.356888   
     84. B(H  59,C  44)                  1.0900         0.360040   
     85. B(Al 61,Al 60)                  2.7299         0.223457   
     86. B(H  62,Al 61)                  1.6726         0.296801   
     87. B(H  63,Al 61)                  1.6104         0.373061   
     88. B(H  64,C  40)                  2.9603         0.010000   
     89. B(H  64,H  56)                  2.6916         0.010000   
     90. B(H  64,Al 61)                  1.6752         0.293982   
     91. B(H  64,Al 60)                  1.6745         0.294716   
     92. B(H  65,Al 60)                  1.6104         0.373042   
     93. B(H  66,O  18)                  2.8281         0.010000   
     94. B(H  66,H  49)                  2.8113         0.010000   
     95. B(H  66,Al 60)                  1.6723         0.297187   
     96. B(H  67,H  56)                  2.4732         0.010000   
     97. B(H  67,Al 61)                  1.6090         0.374961   
     98. B(Al 68,H  66)                  1.6747         0.294556   
     99. B(Al 68,H  62)                  1.6711         0.298476   
    100. B(Al 68,Al 61)                  2.7390         0.216094   
    101. B(Al 68,Al 60)                  2.7337         0.220351   
    102. B(H  69,O  18)                  2.6689         0.010000   
    103. B(H  69,O  16)                  2.5576         0.010000   
    104. B(H  69,Al 68)                  1.6121         0.370655   
    105. B(H  70,Al 68)                  1.6085         0.375593   
    106. B(H  71,O  34)                  2.9626         0.010000   
    107. B(H  71,O  16)                  2.9169         0.010000   
    108. B(H  71,C  40)                  2.8812         0.010000   
    109. B(H  71,O  20)                  2.8639         0.010000   
    110. B(H  71,C  42)                  2.8465         0.010000   
    111. B(H  71,O  35)                  2.7176         0.010000   
    112. B(H  71,C  44)                  2.6259         0.010000   
    113. B(H  71,O  18)                  2.5258         0.010000   
    114. B(H  71,O   8)                  2.3577         0.010000   
    115. B(H  71,Al 60)                  1.6047         0.380897   
    116. A(Zr  5,Zr  0,O  13)          127.1224         0.368609   
    117. A(O   9,Zr  0,O  11)           89.4443         0.442321   
    118. A(O  12,Zr  0,O  14)           80.1078         0.513184   
    119. A(Zr  3,Zr  0,O   9)           37.0767         0.319174   
    120. A(O  13,Zr  0,O  15)           85.4096         0.547398   
    121. A(Zr  5,Zr  0,O  12)           73.0566         0.366906   
    122. A(O   9,Zr  0,O  12)          140.8364         0.481640   
    123. A(O   6,Zr  0,O  12)           81.3306         0.509496   
    124. A(O  14,Zr  0,O  15)           76.6355         0.516110   
    125. A(O   9,Zr  0,O  15)           75.0855         0.484348   
    126. A(Zr  5,Zr  0,O   9)           94.6276         0.330150   
    127. A(Zr  5,Zr  0,O   6)           37.7781         0.347258   
    128. A(O   6,Zr  0,O  11)           65.8722         0.467387   
    129. A(Zr  3,Zr  0,Zr  5)           70.2900         0.251914   
    130. A(O  11,Zr  0,O  14)           69.9416         0.470706   
    131. A(O  13,Zr  0,O  14)          130.8293         0.515783   
    132. A(O  11,Zr  0,O  15)          106.7438         0.498983   
    133. A(O   6,Zr  0,O  13)           93.7320         0.512072   
    134. A(Zr  3,Zr  0,O  14)          156.3165         0.337666   
    135. A(Zr  3,Zr  0,O  12)          105.2031         0.354257   
    136. A(O  11,Zr  0,O  13)          158.7251         0.498669   
    137. A(O  11,Zr  0,O  12)          100.0551         0.496175   
    138. A(O   6,Zr  0,O  14)          127.6564         0.483194   
    139. A(O   9,Zr  0,O  14)          138.0744         0.457081   
    140. A(Zr  5,Zr  0,O  14)           89.9210         0.349523   
    141. A(Zr  3,Zr  0,O  13)           72.7944         0.355882   
    142. A(Zr  5,Zr  0,O  11)           36.9906         0.339077   
    143. A(Zr  3,Zr  0,O  15)          111.3474         0.356087   
    144. A(O   6,Zr  0,O   9)           68.0568         0.453880   
    145. A(Zr  3,Zr  0,O  11)           86.3768         0.327694   
    146. A(Zr  3,Zr  0,O   6)           34.7636         0.335504   
    147. A(O  12,Zr  0,O  15)          135.4202         0.544607   
    148. A(O   6,Zr  0,O  15)          142.2337         0.512396   
    149. A(O   9,Zr  0,O  13)           76.6513         0.484045   
    150. A(O  12,Zr  0,O  13)           81.7874         0.544259   
    151. A(Zr  5,Zr  0,O  15)          143.2826         0.368823   
    152. A(Zr  4,Zr  1,O  19)           73.5764         0.367773   
    153. A(Zr  2,Zr  1,O   7)           35.1688         0.336971   
    154. A(Zr  2,Zr  1,O  18)           72.1663         0.356693   
    155. A(Zr  2,Zr  1,O  17)          156.7085         0.338650   
    156. A(O   8,Zr  1,O  10)           89.1684         0.442184   
    157. A(O   7,Zr  1,O   8)           68.3055         0.455688   
    158. A(Zr  2,Zr  1,O  16)          111.1559         0.356474   
    159. A(O   8,Zr  1,O  16)           74.9369         0.484528   
    160. A(O   7,Zr  1,O  16)          142.3178         0.513580   
    161. A(O  17,Zr  1,O  18)          131.0820         0.516804   
    162. A(O  10,Zr  1,O  16)          106.1190         0.497943   
    163. A(Zr  4,Zr  1,O   8)           94.6883         0.330870   
    164. A(O  16,Zr  1,O  19)          135.1752         0.544875   
    165. A(O   8,Zr  1,O  19)          141.3790         0.482716   
    166. A(O  10,Zr  1,O  19)          100.5207         0.496070   
    167. A(O  10,Zr  1,O  18)          158.3993         0.498278   
    168. A(O   7,Zr  1,O  10)           66.1760         0.468125   
    169. A(Zr  2,Zr  1,Zr  4)           70.8978         0.252564   
    170. A(Zr  4,Zr  1,O  16)          142.6170         0.369056   
    171. A(O  16,Zr  1,O  18)           86.5292         0.547347   
    172. A(O   7,Zr  1,O  19)           81.5648         0.511634   
    173. A(O  17,Zr  1,O  19)           80.2285         0.514496   
    174. A(O   8,Zr  1,O  17)          137.4844         0.458171   
    175. A(O  16,Zr  1,O  17)           76.0748         0.516455   
    176. A(Zr  4,Zr  1,O  17)           89.8770         0.350394   
    177. A(Zr  4,Zr  1,O  18)          126.7638         0.369285   
    178. A(O   8,Zr  1,O  18)           77.0829         0.484852   
    179. A(Zr  2,Zr  1,O   8)           37.0999         0.320004   
    180. A(O  10,Zr  1,O  17)           69.9311         0.470692   
    181. A(O   7,Zr  1,O  18)           93.0332         0.513927   
    182. A(Zr  2,Zr  1,O  19)          105.6460         0.355249   
    183. A(O  18,Zr  1,O  19)           81.1289         0.545247   
    184. A(Zr  2,Zr  1,O  10)           86.7891         0.327839   
    185. A(Zr  4,Zr  1,O   7)           38.1016         0.348635   
    186. A(Zr  4,Zr  1,O  10)           36.9061         0.339074   
    187. A(O   7,Zr  1,O  17)          127.9253         0.485287   
    188. A(O   7,Zr  2,O   8)           68.1785         0.453150   
    189. A(O  21,Zr  2,O  22)          131.3607         0.521214   
    190. A(Zr  5,Zr  2,O  22)          125.2285         0.364155   
    191. A(Zr  5,Zr  2,O  23)          144.2640         0.347428   
    192. A(O   7,Zr  2,O  22)           81.3405         0.506894   
    193. A(Zr  5,Zr  2,O   8)           38.4081         0.328768   
    194. A(O  21,Zr  2,O  23)           77.5316         0.494939   
    195. A(Zr  1,Zr  2,O  23)          103.3418         0.341615   
    196. A(O  20,Zr  2,O  23)          136.7692         0.526096   
    197. A(Zr  5,Zr  2,O   7)           90.0699         0.337298   
    198. A(O   7,Zr  2,O  23)           71.3618         0.481490   
    199. A(Zr  1,Zr  2,O   7)           34.6759         0.331713   
    200. A(O   8,Zr  2,O  21)          132.3231         0.465628   
    201. A(O   8,Zr  2,O  23)          139.5213         0.468008   
    202. A(Zr  1,Zr  2,Zr  5)           70.9241         0.248810   
    203. A(O  11,Zr  2,O  21)           71.1131         0.491553   
    204. A(O  20,Zr  2,O  22)           83.7054         0.554387   
    205. A(O  11,Zr  2,O  20)           97.4197         0.522450   
    206. A(O   8,Zr  2,O  20)           81.1764         0.494535   
    207. A(Zr  5,Zr  2,O  11)           35.9154         0.345273   
    208. A(Zr  1,Zr  2,O   8)           37.4524         0.323375   
    209. A(O  11,Zr  2,O  22)          157.0343         0.520317   
    210. A(O  11,Zr  2,O  23)          110.2697         0.494097   
    211. A(O   8,Zr  2,O  11)           67.8276         0.464847   
    212. A(O  20,Zr  2,O  21)           81.1176         0.523352   
    213. A(O   7,Zr  2,O  11)           85.2341         0.478216   
    214. A(O   7,Zr  2,O  21)          131.0145         0.479026   
    215. A(Zr  5,Zr  2,O  21)           94.0494         0.345806   
    216. A(Zr  1,Zr  2,O  11)           86.3354         0.339508   
    217. A(O  22,Zr  2,O  23)           82.9400         0.523945   
    218. A(O   8,Zr  2,O  22)           89.8294         0.492539   
    219. A(O   7,Zr  2,O  20)          145.7422         0.508961   
    220. A(Zr  5,Zr  2,O  20)           73.8766         0.365516   
    221. A(Zr  1,Zr  2,O  20)          111.1650         0.359296   
    222. A(Zr  1,Zr  2,O  22)           72.0513         0.357966   
    223. A(Zr  1,Zr  2,O  21)          155.8367         0.340029   
    224. A(Zr  0,Zr  3,O  26)          154.6673         0.339348   
    225. A(O   9,Zr  3,O  10)           67.6541         0.461465   
    226. A(Zr  0,Zr  3,O  10)           86.2216         0.336877   
    227. A(O   6,Zr  3,O  24)           71.2191         0.483498   
    228. A(Zr  4,Zr  3,O  24)          146.4078         0.343237   
    229. A(O  24,Zr  3,O  25)           82.4091         0.520991   
    230. A(O   9,Zr  3,O  25)           88.1530         0.491798   
    231. A(O  25,Zr  3,O  27)           83.5305         0.555648   
    232. A(O  10,Zr  3,O  27)           95.9331         0.520508   
    233. A(Zr  4,Zr  3,O  26)           95.2290         0.342990   
    234. A(O  24,Zr  3,O  26)           77.6198         0.492442   
    235. A(Zr  4,Zr  3,O  10)           35.5538         0.340483   
    236. A(O   6,Zr  3,O  26)          129.0955         0.483115   
    237. A(O   6,Zr  3,O   9)           68.2515         0.456839   
    238. A(O  10,Zr  3,O  25)          155.5633         0.516311   
    239. A(O   6,Zr  3,O  25)           82.0406         0.511003   
    240. A(Zr  4,Zr  3,O   9)           38.0826         0.326056   
    241. A(Zr  4,Zr  3,O  25)          123.0774         0.360962   
    242. A(Zr  0,Zr  3,O   9)           37.4417         0.322657   
    243. A(O   9,Zr  3,O  24)          139.2660         0.465545   
    244. A(O   6,Zr  3,O  10)           85.6190         0.479225   
    245. A(Zr  0,Zr  3,O  24)          102.5605         0.339592   
    246. A(O   9,Zr  3,O  27)           82.0446         0.495754   
    247. A(Zr  4,Zr  3,O   6)           89.6738         0.337359   
    248. A(Zr  0,Zr  3,O  27)          112.6824         0.359696   
    249. A(O  24,Zr  3,O  27)          135.3604         0.525234   
    250. A(O  10,Zr  3,O  26)           70.9978         0.488072   
    251. A(O  26,Zr  3,O  27)           81.4498         0.524810   
    252. A(Zr  0,Zr  3,O   6)           34.6050         0.333798   
    253. A(O  10,Zr  3,O  24)          113.3659         0.488460   
    254. A(O   9,Zr  3,O  26)          133.2519         0.465178   
    255. A(Zr  0,Zr  3,Zr  4)           70.3783         0.246761   
    256. A(O   6,Zr  3,O  27)          147.2294         0.515148   
    257. A(Zr  4,Zr  3,O  27)           74.0012         0.363634   
    258. A(O  25,Zr  3,O  26)          132.5588         0.520571   
    259. A(Zr  0,Zr  3,O  25)           71.6968         0.357063   
    260. A(Zr  1,Zr  4,O  10)           37.2628         0.342723   
    261. A(O   9,Zr  4,O  10)           66.6280         0.444085   
    262. A(O   7,Zr  4,O  10)           65.0433         0.448271   
    263. A(Zr  3,Zr  4,O  10)           34.9726         0.334285   
    264. A(Zr  3,Zr  4,O  31)          159.3333         0.341762   
    265. A(O   9,Zr  4,O  28)           78.5016         0.484146   
    266. A(O  28,Zr  4,O  30)           81.8935         0.550863   
    267. A(O  10,Zr  4,O  31)          131.2374         0.476355   
    268. A(O  30,Zr  4,O  31)           81.8967         0.516690   
    269. A(O  28,Zr  4,O  31)          126.5017         0.520057   
    270. A(O   7,Zr  4,O  31)           68.5698         0.459223   
    271. A(Zr  1,Zr  4,O  31)           94.5492         0.350457   
    272. A(O  29,Zr  4,O  30)          135.1014         0.533615   
    273. A(O   7,Zr  4,O  30)           92.6593         0.485682   
    274. A(Zr  3,Zr  4,O  30)          107.0660         0.359826   
    275. A(O   9,Zr  4,O  31)          134.4014         0.454909   
    276. A(O  10,Zr  4,O  30)           85.9648         0.504038   
    277. A(Zr  3,Zr  4,O  29)          108.7222         0.351765   
    278. A(Zr  1,Zr  4,O  29)          146.7548         0.360804   
    279. A(O   7,Zr  4,O  28)          162.4604         0.488804   
    280. A(Zr  3,Zr  4,O  28)           73.8467         0.361958   
    281. A(O   7,Zr  4,O   9)           96.8249         0.428380   
    282. A(Zr  1,Zr  4,O  28)          126.7378         0.371347   
    283. A(Zr  3,Zr  4,O   9)           37.5180         0.320704   
    284. A(Zr  3,Zr  4,O   7)           92.0674         0.323436   
    285. A(O  29,Zr  4,O  31)           74.0014         0.503959   
    286. A(Zr  1,Zr  4,O   7)           36.4139         0.331501   
    287. A(O  10,Zr  4,O  29)          137.9815         0.491684   
    288. A(O   9,Zr  4,O  29)           72.4900         0.469389   
    289. A(Zr  1,Zr  4,O  30)           71.0082         0.369142   
    290. A(O  28,Zr  4,O  29)           82.8964         0.537115   
    291. A(Zr  1,Zr  4,Zr  3)           71.8234         0.254562   
    292. A(O   9,Zr  4,O  30)          143.3561         0.481059   
    293. A(O   7,Zr  4,O  29)          112.0669         0.473874   
    294. A(O  10,Zr  4,O  28)           97.8252         0.507306   
    295. A(Zr  1,Zr  4,O   9)           96.8259         0.328675   
    296. A(O  34,Zr  5,O  35)           84.4475         0.541599   
    297. A(O  33,Zr  5,O  35)           81.9825         0.550894   
    298. A(O  32,Zr  5,O  35)          125.1090         0.519819   
    299. A(O   8,Zr  5,O  35)           78.3964         0.484417   
    300. A(O   6,Zr  5,O  35)          164.1324         0.493370   
    301. A(Zr  2,Zr  5,O  35)           74.4102         0.365507   
    302. A(Zr  0,Zr  5,O  35)          128.6302         0.371527   
    303. A(O  33,Zr  5,O  34)          137.6501         0.536020   
    304. A(O  32,Zr  5,O  34)           73.9530         0.505945   
    305. A(O  11,Zr  5,O  34)          137.2509         0.493032   
    306. A(O   6,Zr  5,O  34)          108.5526         0.480348   
    307. A(Zr  2,Zr  5,O  34)          109.7315         0.356603   
    308. A(Zr  0,Zr  5,O  34)          143.4257         0.362429   
    309. A(O   8,Zr  5,O  33)          141.4492         0.479542   
    310. A(Zr  2,Zr  5,O   6)           92.2324         0.328087   
    311. A(Zr  2,Zr  5,O  32)          160.4157         0.343725   
    312. A(Zr  0,Zr  5,O  32)           93.5908         0.349271   
    313. A(O   8,Zr  5,O  32)          136.4848         0.453267   
    314. A(O   6,Zr  5,O  32)           68.7153         0.461515   
    315. A(Zr  2,Zr  5,O  33)          104.8438         0.362098   
    316. A(Zr  0,Zr  5,O  33)           70.7775         0.368044   
    317. A(Zr  0,Zr  5,Zr  2)           71.8852         0.256046   
    318. A(Zr  0,Zr  5,O   6)           36.4098         0.333292   
    319. A(O  11,Zr  5,O  33)           84.6647         0.501329   
    320. A(O  32,Zr  5,O  33)           81.6548         0.514508   
    321. A(O   6,Zr  5,O  33)           93.5203         0.488384   
    322. A(O   8,Zr  5,O  34)           72.8463         0.471683   
    323. A(O  11,Zr  5,O  32)          130.4394         0.473588   
    324. A(O   8,Zr  5,O  11)           66.4870         0.441985   
    325. A(O  11,Zr  5,O  35)           99.4441         0.506475   
    326. A(O   6,Zr  5,O  11)           64.8883         0.449977   
    327. A(Zr  2,Zr  5,O  11)           35.0337         0.335836   
    328. A(Zr  0,Zr  5,O  11)           37.1996         0.341209   
    329. A(O   6,Zr  5,O   8)           96.4136         0.430904   
    330. A(Zr  2,Zr  5,O   8)           37.7776         0.322793   
    331. A(Zr  0,Zr  5,O   8)           96.5922         0.327883   
    332. A(Zr  3,O   6,Zr  5)          135.1068         0.456077   
    333. A(Zr  0,O   6,Zr  5)          105.8121         0.458635   
    334. A(Zr  0,O   6,Zr  3)          110.6314         0.477063   
    335. A(Zr  2,O   7,Zr  4)          135.4312         0.448848   
    336. A(Zr  1,O   7,Zr  4)          105.4844         0.456644   
    337. A(Zr  1,O   7,Zr  2)          110.1553         0.474274   
    338. A(Zr  1,O   8,Zr  2)          105.4477         0.435583   
    339. A(Zr  2,O   8,H  71)          106.8450         0.178504   
    340. A(Zr  1,O   8,H  71)          101.1214         0.177217   
    341. A(Zr  5,O   8,H  71)          105.8181         0.176274   
    342. A(Zr  2,O   8,Zr  5)          103.8143         0.431879   
    343. A(Zr  1,O   8,Zr  5)          131.9056         0.426946   
    344. A(Zr  3,O   9,Zr  4)          104.3994         0.432172   
    345. A(Zr  0,O   9,Zr  4)          130.7972         0.427057   
    346. A(Zr  0,O   9,Zr  3)          105.4817         0.434864   
    347. A(Zr  3,O  10,Zr  4)          109.4735         0.474395   
    348. A(Zr  1,O  10,Zr  4)          105.8311         0.459491   
    349. A(Zr  1,O  10,Zr  3)          142.9597         0.468852   
    350. A(Zr  2,O  11,Zr  5)          109.0510         0.475925   
    351. A(Zr  0,O  11,Zr  5)          105.8099         0.458525   
    352. A(Zr  0,O  11,Zr  2)          143.6490         0.472653   
    353. A(Zr  0,O  12,C  36)          124.9521         0.501063   
    354. A(Zr  0,O  13,C  37)          127.7204         0.503882   
    355. A(Zr  0,O  14,C  38)          135.9098         0.476911   
    356. A(Zr  0,O  15,C  39)          138.5598         0.506213   
    357. A(Zr  1,O  16,C  40)          138.3165         0.506063   
    358. A(H  69,O  16,H  71)           79.6207         0.101120   
    359. A(C  40,O  16,H  71)           75.5631         0.147432   
    360. A(Zr  1,O  16,H  71)           88.7707         0.153163   
    361. A(C  40,O  16,H  69)          120.5221         0.167780   
    362. A(Zr  1,O  16,H  69)           93.2709         0.175508   
    363. A(Zr  1,O  17,C  41)          134.4638         0.477545   
    364. A(Zr  1,O  18,C  42)          127.7261         0.503995   
    365. A(H  66,O  18,H  69)           59.3455         0.100895   
    366. A(H  66,O  18,H  71)           54.0944         0.102398   
    367. A(Zr  1,O  18,H  66)          139.1374         0.158136   
    368. A(H  69,O  18,H  71)           85.1444         0.104295   
    369. A(C  42,O  18,H  69)          142.0920         0.160399   
    370. A(Zr  1,O  18,H  69)           90.0117         0.167923   
    371. A(C  42,O  18,H  71)           90.2535         0.169423   
    372. A(Zr  1,O  18,H  71)          100.8177         0.177897   
    373. A(C  42,O  18,H  66)           87.7917         0.151546   
    374. A(Zr  1,O  19,C  43)          125.3612         0.501851   
    375. A(C  44,O  20,H  71)           66.2731         0.149854   
    376. A(Zr  2,O  20,H  71)           95.0582         0.156762   
    377. A(Zr  2,O  20,C  44)          132.2498         0.509012   
    378. A(Zr  2,O  21,C  38)          139.1080         0.479618   
    379. A(Zr  2,O  22,C  42)          129.1266         0.506029   
    380. A(Zr  2,O  23,C  45)          137.2902         0.481044   
    381. A(Zr  3,O  24,C  46)          136.9880         0.478672   
    382. A(Zr  3,O  25,C  37)          129.8189         0.505685   
    383. A(Zr  3,O  26,C  41)          139.6428         0.479302   
    384. A(Zr  3,O  27,C  47)          132.0255         0.510665   
    385. A(Zr  4,O  28,C  47)          131.8718         0.508086   
    386. A(Zr  4,O  29,C  39)          139.2182         0.493526   
    387. A(Zr  4,O  30,C  43)          128.1860         0.503641   
    388. A(Zr  4,O  31,C  45)          129.1056         0.477143   
    389. A(Zr  5,O  32,C  46)          128.5215         0.475934   
    390. A(Zr  5,O  33,C  36)          127.2778         0.502551   
    391. A(Zr  5,O  34,C  40)          140.5712         0.496656   
    392. A(C  40,O  34,H  71)           73.7064         0.145224   
    393. A(Zr  5,O  34,H  71)           91.2554         0.149412   
    394. A(C  44,O  35,H  71)           72.0413         0.157725   
    395. A(Zr  5,O  35,H  71)           99.7070         0.165527   
    396. A(Zr  5,O  35,C  44)          131.2113         0.508977   
    397. A(O  12,C  36,O  33)          126.5857         0.464070   
    398. A(O  33,C  36,H  58)          116.7332         0.363520   
    399. A(O  12,C  36,H  58)          116.6795         0.363652   
    400. A(O  13,C  37,O  25)          127.4310         0.464756   
    401. A(O  25,C  37,H  51)          116.2817         0.364090   
    402. A(O  13,C  37,H  51)          116.2872         0.364111   
    403. A(O  14,C  38,O  21)          130.0551         0.467329   
    404. A(O  21,C  38,H  50)          114.9184         0.366507   
    405. A(O  14,C  38,H  50)          115.0196         0.366566   
    406. A(O  15,C  39,O  29)          128.9471         0.468391   
    407. A(O  29,C  39,H  54)          115.5237         0.366577   
    408. A(O  15,C  39,H  54)          115.5193         0.366611   
    409. A(O  16,C  40,O  34)          129.0083         0.468599   
    410. A(H  64,C  40,H  71)           49.8855         0.098612   
    411. A(H  56,C  40,H  64)           65.1885         0.131764   
    412. A(O  34,C  40,H  64)           95.4670         0.147433   
    413. A(O  16,C  40,H  64)          105.4364         0.147465   
    414. A(H  56,C  40,H  71)          114.5932         0.134672   
    415. A(O  34,C  40,H  71)           80.7334         0.151407   
    416. A(O  16,C  40,H  71)           78.6454         0.151441   
    417. A(O  34,C  40,H  56)          115.3864         0.366654   
    418. A(O  16,C  40,H  56)          115.6053         0.366806   
    419. A(O  17,C  41,O  26)          130.0019         0.467175   
    420. A(O  26,C  41,H  48)          114.9507         0.366353   
    421. A(O  17,C  41,H  48)          115.0418         0.366512   
    422. A(O  18,C  42,O  22)          127.2984         0.464490   
    423. A(H  49,C  42,H  71)          109.9344         0.135793   
    424. A(O  22,C  42,H  71)           98.7325         0.152909   
    425. A(O  18,C  42,H  71)           62.5395         0.152900   
    426. A(O  22,C  42,H  49)          116.3190         0.363967   
    427. A(O  18,C  42,H  49)          116.3804         0.363928   
    428. A(O  30,C  43,H  52)          116.6681         0.363690   
    429. A(O  19,C  43,H  52)          116.6268         0.363848   
    430. A(O  19,C  43,O  30)          126.7042         0.464394   
    431. A(H  59,C  44,H  71)          104.2127         0.145281   
    432. A(O  35,C  44,H  71)           79.8939         0.165937   
    433. A(O  20,C  44,H  71)           86.8072         0.165941   
    434. A(O  35,C  44,H  59)          116.2506         0.364897   
    435. A(O  20,C  44,H  59)          116.1993         0.364911   
    436. A(O  20,C  44,O  35)          127.5424         0.466176   
    437. A(O  31,C  45,H  55)          115.0686         0.365743   
    438. A(O  23,C  45,H  55)          115.1678         0.365310   
    439. A(O  23,C  45,O  31)          129.7607         0.465836   
    440. A(O  32,C  46,H  57)          115.0339         0.365670   
    441. A(O  24,C  46,H  57)          115.1428         0.365218   
    442. A(O  24,C  46,O  32)          129.8211         0.465620   
    443. A(O  28,C  47,H  53)          116.1977         0.364978   
    444. A(O  27,C  47,H  53)          116.2473         0.364981   
    445. A(O  27,C  47,O  28)          127.5550         0.466306   
    446. A(C  42,H  49,H  66)           92.9270         0.115500   
    447. A(H  64,H  56,H  67)           58.2578         0.094104   
    448. A(C  40,H  56,H  64)           93.3287         0.118410   
    449. A(C  40,H  56,H  67)          143.9551         0.124265   
    450. A(Al 68,Al 60,H  71)          102.2150         0.400238   
    451. A(H  66,Al 60,H  71)           96.7190         0.362026   
    452. A(H  65,Al 60,H  71)          127.5592         0.376442   
    453. A(H  64,Al 60,H  71)           97.4247         0.361511   
    454. A(Al 61,Al 60,H  71)          121.5545         0.401225   
    455. A(H  66,Al 60,Al 68)           35.2665         0.383238   
    456. A(H  65,Al 60,Al 68)          122.7457         0.398773   
    457. A(H  64,Al 60,Al 68)           88.6006         0.382682   
    458. A(Al 61,Al 60,Al 68)           60.1748         0.425482   
    459. A(H  65,Al 60,H  66)          104.7771         0.360742   
    460. A(H  64,Al 60,H  66)          123.8511         0.346626   
    461. A(Al 61,Al 60,H  66)           92.9790         0.384171   
    462. A(H  64,Al 60,H  65)          108.3081         0.360229   
    463. A(Al 61,Al 60,H  65)          104.6403         0.399756   
    464. A(Al 61,Al 60,H  64)           35.4259         0.383614   
    465. A(H  67,Al 61,Al 68)          108.7706         0.397767   
    466. A(H  64,Al 61,Al 68)           88.4082         0.381223   
    467. A(H  63,Al 61,Al 68)          113.1940         0.397412   
    468. A(H  62,Al 61,Al 68)           34.9817         0.381855   
    469. A(Al 60,Al 61,Al 68)           59.9816         0.424000   
    470. A(H  64,Al 61,H  67)          100.2791         0.360390   
    471. A(H  63,Al 61,H  67)          130.9658         0.375425   
    472. A(H  62,Al 61,H  67)           98.8065         0.360977   
    473. A(Al 60,Al 61,H  67)          127.0250         0.400117   
    474. A(H  63,Al 61,H  64)          105.0113         0.360079   
    475. A(H  62,Al 61,H  64)          123.3776         0.346405   
    476. A(Al 60,Al 61,H  64)           35.4094         0.383448   
    477. A(H  62,Al 61,H  63)          101.1369         0.360665   
    478. A(Al 60,Al 61,H  63)           96.0772         0.399760   
    479. A(Al 60,Al 61,H  62)           93.1036         0.384084   
    480. A(Al 61,H  62,Al 68)          109.9999         0.347290   
    481. A(C  40,H  64,H  56)           21.4827         0.095189   
    482. A(C  40,H  64,Al 61)          109.3855         0.137079   
    483. A(C  40,H  64,Al 60)          100.7104         0.137106   
    484. A(H  56,H  64,Al 61)           92.8050         0.122065   
    485. A(H  56,H  64,Al 60)          120.1240         0.122084   
    486. A(Al 60,H  64,Al 61)          109.1647         0.345994   
    487. A(O  18,H  66,H  49)           42.3375         0.095029   
    488. A(O  18,H  66,Al 68)           89.5026         0.140756   
    489. A(O  18,H  66,Al 60)           96.5731         0.140860   
    490. A(H  49,H  66,Al 68)          114.7194         0.118945   
    491. A(H  49,H  66,Al 60)          115.6183         0.119006   
    492. A(Al 60,H  66,Al 68)          109.5256         0.346594   
    493. A(H  56,H  67,Al 61)          102.9735         0.130893   
    494. A(H  69,Al 68,H  70)          127.5720         0.375115   
    495. A(H  66,Al 68,H  70)           95.2056         0.360614   
    496. A(H  62,Al 68,H  70)           96.6015         0.361428   
    497. A(Al 61,Al 68,H  70)          122.4885         0.397885   
    498. A(Al 60,Al 68,H  70)          122.3761         0.399252   
    499. A(H  66,Al 68,H  69)          111.9793         0.359802   
    500. A(H  62,Al 68,H  69)          105.4045         0.360613   
    501. A(Al 61,Al 68,H  69)          100.8960         0.396961   
    502. A(Al 60,Al 68,H  69)          103.5669         0.398324   
    503. A(H  62,Al 68,H  66)          120.7077         0.346847   
    504. A(Al 61,Al 68,H  66)           92.6022         0.381352   
    505. A(Al 60,Al 68,H  66)           35.2079         0.382646   
    506. A(Al 61,Al 68,H  62)           35.0185         0.382229   
    507. A(Al 60,Al 68,H  62)           93.0035         0.383526   
    508. A(Al 60,Al 68,Al 61)           59.8437         0.422940   
    509. A(O  16,H  69,O  18)           62.7938         0.103896   
    510. A(O  18,H  69,Al 68)           96.6643         0.151237   
    511. A(O  16,H  69,Al 68)          125.3248         0.157274   
    512. A(O  16,H  71,O  34)           46.8428         0.097654   
    513. A(O  34,H  71,C  40)           25.5601         0.098248   
    514. A(O  34,H  71,C  42)          120.2952         0.098519   
    515. A(O  34,H  71,O  35)           56.1457         0.099215   
    516. A(O  34,H  71,C  44)           83.5783         0.100435   
    517. A(O  18,H  71,O  34)          100.7878         0.100981   
    518. A(O   8,H  71,O  34)           54.4451         0.102777   
    519. A(O  34,H  71,Al 60)          117.7492         0.138054   
    520. A(O  16,H  71,O  20)          117.0987         0.098395   
    521. A(O  16,H  71,C  42)           85.6520         0.098888   
    522. A(O  16,H  71,O  35)           98.8068         0.099610   
    523. A(O  16,H  71,C  44)          121.3710         0.100878   
    524. A(O  16,H  71,O  18)           59.5597         0.101445   
    525. A(O   8,H  71,O  16)           56.1235         0.103311   
    526. A(O  16,H  71,Al 60)          110.8551         0.139953   
    527. A(O  20,H  71,C  40)          117.4092         0.099039   
    528. A(C  40,H  71,C  42)          110.5926         0.099566   
    529. A(O  35,H  71,C  40)           81.6887         0.100338   
    530. A(C  40,H  71,C  44)          108.8376         0.101693   
    531. A(O  18,H  71,C  40)           85.2187         0.102298   
    532. A(O   8,H  71,C  40)           62.4612         0.104293   
    533. A(C  40,H  71,Al 60)          105.9026         0.143449   
    534. A(O  20,H  71,C  42)           72.6899         0.099333   
    535. A(O  20,H  71,O  35)           49.2591         0.100088   
    536. A(O  20,H  71,C  44)           26.9197         0.101413   
    537. A(O  16,H  71,C  40)           25.7914         0.098606   
    538. A(O  18,H  71,O  20)           92.7358         0.102005   
    539. A(O   8,H  71,O  20)           60.9852         0.103955   
    540. A(O  20,H  71,Al 60)          132.0388         0.142248   
    541. A(O  35,H  71,C  42)          116.8586         0.100670   
    542. A(C  42,H  71,C  44)           99.5929         0.102065   
    543. A(O  18,H  71,C  42)           27.2070         0.102688   
    544. A(O   8,H  71,C  42)           70.3482         0.104741   
    545. A(C  42,H  71,Al 60)          111.2454         0.145044   
    546. A(O  35,H  71,C  44)           28.0648         0.103019   
    547. A(O  18,H  71,O  35)          124.2386         0.103688   
    548. A(O   8,H  71,O  35)           61.9234         0.105891   
    549. A(O  35,H  71,Al 60)          124.6002         0.149138   
    550. A(O  18,H  71,C  44)          118.4270         0.105443   
    551. A(O   8,H  71,C  44)           70.8872         0.107909   
    552. A(C  44,H  71,Al 60)          120.5190         0.156325   
    553. A(O  20,H  71,O  34)           96.2802         0.098044   
    554. A(O   8,H  71,O  18)           63.9618         0.108811   
    555. A(O  18,H  71,Al 60)          111.1354         0.159536   
    556. A(O   8,H  71,Al 60)          166.9761         0.170113   
    557. D(Zr  5,Zr  2,Zr  1,O   7)    120.1410         0.010000   
    558. D(O   7,Zr  2,Zr  1,Zr  4)    -17.3877         0.010000   
    559. D(Zr  5,Zr  2,Zr  1,Zr  4)    102.7532         0.010000   
    560. D(Zr  4,Zr  3,Zr  0,O   6)   -120.4014         0.010000   
    561. D(O   6,Zr  3,Zr  0,Zr  5)     17.0012         0.010000   
    562. D(Zr  4,Zr  3,Zr  0,Zr  5)   -103.4002         0.010000   
    563. D(Zr  1,Zr  4,Zr  3,O   6)     75.6779         0.010000   
    564. D(Zr  1,Zr  4,Zr  3,Zr  0)    105.0077         0.010000   
    565. D(O   7,Zr  4,Zr  1,Zr  2)     16.1973         0.010000   
    566. D(Zr  3,Zr  4,Zr  1,Zr  2)   -104.4050         0.010000   
    567. D(O   7,Zr  4,Zr  3,Zr  0)     74.2593         0.010000   
    568. D(Zr  3,Zr  4,Zr  1,O   7)   -120.6024         0.010000   
    569. D(O   6,Zr  5,Zr  0,Zr  3)    -15.7921         0.010000   
    570. D(Zr  2,Zr  5,Zr  0,O   6)    120.8375         0.010000   
    571. D(Zr  2,Zr  5,Zr  0,Zr  3)    105.0454         0.010000   
    572. D(Zr  0,Zr  5,Zr  2,O   7)    -75.1220         0.010000   
    573. D(O   6,Zr  5,Zr  2,Zr  1)    -73.9290         0.010000   
    574. D(Zr  0,Zr  5,Zr  2,Zr  1)   -104.5948         0.010000   
    575. D(Zr  0,O   6,Zr  5,O   8)    -92.4197         0.010000   
    576. D(Zr  3,O   6,Zr  5,Zr  0)    143.4299         0.010000   
    577. D(Zr  5,O   6,Zr  3,Zr  0)   -142.2262         0.010000   
    578. D(Zr  0,O   6,Zr  3,O   9)     22.0259         0.010000   
    579. D(Zr  5,O   6,Zr  0,Zr  3)    153.2993         0.010000   
    580. D(Zr  0,O   6,Zr  3,Zr  4)     54.3339         0.010000   
    581. D(Zr  0,O   6,Zr  5,Zr  2)    -54.7545         0.010000   
    582. D(Zr  3,O   6,Zr  0,O   9)    -21.8640         0.010000   
    583. D(Zr  3,O   6,Zr  0,Zr  5)   -153.2993         0.010000   
    584. D(Zr  2,O   7,Zr  1,O   8)     22.2313         0.010000   
    585. D(Zr  1,O   7,Zr  2,Zr  5)    -54.8159         0.010000   
    586. D(Zr  4,O   7,Zr  1,Zr  2)   -152.7660         0.010000   
    587. D(Zr  1,O   7,Zr  2,O   8)    -22.4424         0.010000   
    588. D(Zr  2,O   7,Zr  1,Zr  4)    152.7660         0.010000   
    589. D(Zr  2,O   7,Zr  4,Zr  1)   -142.2533         0.010000   
    590. D(Zr  1,O   7,Zr  4,O   9)     92.2579         0.010000   
    591. D(Zr  4,O   7,Zr  2,Zr  1)    141.0652         0.010000   
    592. D(Zr  1,O   7,Zr  4,Zr  3)     54.9153         0.010000   
    593. D(Zr  1,O   8,Zr  5,Zr  2)   -126.1015         0.010000   
    594. D(Zr  2,O   8,Zr  5,Zr  0)     48.6978         0.010000   
    595. D(Zr  1,O   8,Zr  5,Zr  0)    -77.4037         0.010000   
    596. D(Zr  1,O   8,Zr  2,O   7)     20.9262         0.010000   
    597. D(Zr  5,O   8,Zr  2,Zr  1)   -141.4007         0.010000   
    598. D(Zr  1,O   8,Zr  2,Zr  5)    141.4007         0.010000   
    599. D(Zr  5,O   8,Zr  1,Zr  2)    125.5104         0.010000   
    600. D(Zr  2,O   8,Zr  1,O   7)    -21.1785         0.010000   
    601. D(Zr  2,O   8,Zr  1,Zr  4)    -49.2482         0.010000   
    602. D(Zr  3,O   9,Zr  4,Zr  1)    -47.7958         0.010000   
    603. D(Zr  0,O   9,Zr  4,Zr  3)    125.8478         0.010000   
    604. D(Zr  0,O   9,Zr  4,Zr  1)     78.0520         0.010000   
    605. D(Zr  4,O   9,Zr  3,Zr  0)    140.4515         0.010000   
    606. D(Zr  0,O   9,Zr  3,Zr  4)   -140.4515         0.010000   
    607. D(Zr  4,O   9,Zr  0,Zr  3)   -125.4451         0.010000   
    608. D(Zr  3,O   9,Zr  0,O   6)     20.6226         0.010000   
    609. D(Zr  0,O   9,Zr  3,O   6)    -20.5073         0.010000   
    610. D(Zr  3,O   9,Zr  0,Zr  5)     48.0597         0.010000   
    611. D(Zr  1,O  10,Zr  3,Zr  4)    161.6061         0.010000   
    612. D(Zr  1,O  10,Zr  4,Zr  3)   -168.6049         0.010000   
    613. D(Zr  4,O  10,Zr  3,Zr  0)    -60.8974         0.010000   
    614. D(Zr  1,O  10,Zr  3,Zr  0)    100.7087         0.010000   
    615. D(Zr  4,O  10,Zr  1,Zr  2)     61.8930         0.010000   
    616. D(Zr  3,O  10,Zr  1,Zr  2)   -100.0944         0.010000   
    617. D(Zr  1,O  10,Zr  4,O   7)    -31.3196         0.010000   
    618. D(Zr  3,O  10,Zr  4,Zr  1)    168.6049         0.010000   
    619. D(Zr  3,O  10,Zr  1,Zr  4)   -161.9874         0.010000   
    620. D(Zr  2,O  11,Zr  5,Zr  0)   -169.5304         0.010000   
    621. D(Zr  0,O  11,Zr  5,Zr  2)    169.5304         0.010000   
    622. D(Zr  5,O  11,Zr  2,Zr  1)     61.9743         0.010000   
    623. D(Zr  0,O  11,Zr  2,Zr  5)   -162.8440         0.010000   
    624. D(Zr  0,O  11,Zr  2,Zr  1)   -100.8696         0.010000   
    625. D(Zr  5,O  11,Zr  0,Zr  3)    -61.4719         0.010000   
    626. D(Zr  0,O  11,Zr  5,O   6)     31.5042         0.010000   
    627. D(Zr  2,O  11,Zr  0,Zr  5)    163.1552         0.010000   
    628. D(Zr  2,O  11,Zr  0,Zr  3)    101.6832         0.010000   
    629. D(C  36,O  12,Zr  0,Zr  5)     31.7102         0.010000   
    630. D(C  36,O  12,Zr  0,Zr  3)     95.0859         0.010000   
    631. D(C  37,O  13,Zr  0,Zr  5)    -20.4017         0.010000   
    632. D(C  37,O  13,Zr  0,Zr  3)     26.9751         0.010000   
    633. D(C  38,O  14,Zr  0,Zr  5)     64.0562         0.010000   
    634. D(C  38,O  14,Zr  0,Zr  3)     31.4887         0.010000   
    635. D(C  39,O  15,Zr  0,Zr  5)     61.7839         0.010000   
    636. D(C  39,O  15,Zr  0,Zr  3)    -23.5333         0.010000   
    637. D(H  69,O  16,Zr  1,Zr  2)   -112.5449         0.010000   
    638. D(C  40,O  16,Zr  1,Zr  4)    -52.4365         0.010000   
    639. D(C  40,O  16,Zr  1,Zr  2)     33.4639         0.010000   
    640. D(C  41,O  17,Zr  1,Zr  4)    -68.1536         0.010000   
    641. D(C  41,O  17,Zr  1,Zr  2)    -34.5225         0.010000   
    642. D(H  71,O  18,Zr  1,Zr  2)     69.3758         0.010000   
    643. D(C  42,O  18,Zr  1,Zr  4)     18.5182         0.010000   
    644. D(C  42,O  18,Zr  1,Zr  2)    -29.4551         0.010000   
    645. D(C  43,O  19,Zr  1,Zr  4)    -29.5850         0.010000   
    646. D(C  43,O  19,Zr  1,Zr  2)    -93.6814         0.010000   
    647. D(H  71,O  20,Zr  2,Zr  1)      5.1840         0.010000   
    648. D(C  44,O  20,Zr  2,Zr  5)      4.4427         0.010000   
    649. D(C  44,O  20,Zr  2,Zr  1)    -57.0851         0.010000   
    650. D(C  38,O  21,Zr  2,Zr  5)    -38.9204         0.010000   
    651. D(C  38,O  21,Zr  2,Zr  1)     11.0924         0.010000   
    652. D(C  42,O  22,Zr  2,Zr  5)     23.2634         0.010000   
    653. D(C  42,O  22,Zr  2,Zr  1)    -26.2470         0.010000   
    654. D(C  45,O  23,Zr  2,Zr  1)      1.5143         0.010000   
    655. D(C  45,O  23,Zr  2,Zr  5)    -74.2749         0.010000   
    656. D(C  46,O  24,Zr  3,Zr  4)     70.1504         0.010000   
    657. D(C  46,O  24,Zr  3,Zr  0)     -3.2081         0.010000   
    658. D(C  37,O  25,Zr  3,Zr  4)    -23.9753         0.010000   
    659. D(C  37,O  25,Zr  3,Zr  0)     26.4145         0.010000   
    660. D(C  41,O  26,Zr  3,Zr  4)     32.0884         0.010000   
    661. D(C  41,O  26,Zr  3,Zr  0)    -21.4139         0.010000   
    662. D(C  47,O  27,Zr  3,Zr  4)     -6.8445         0.010000   
    663. D(C  47,O  27,Zr  3,Zr  0)     53.2574         0.010000   
    664. D(C  47,O  28,Zr  4,Zr  3)     -7.3060         0.010000   
    665. D(C  47,O  28,Zr  4,Zr  1)     44.2718         0.010000   
    666. D(C  39,O  29,Zr  4,Zr  1)    -48.0440         0.010000   
    667. D(C  39,O  29,Zr  4,Zr  3)     37.1499         0.010000   
    668. D(C  43,O  30,Zr  4,Zr  3)    -96.9168         0.010000   
    669. D(C  43,O  30,Zr  4,Zr  1)    -33.7091         0.010000   
    670. D(C  45,O  31,Zr  4,Zr  3)    -27.1045         0.010000   
    671. D(C  45,O  31,Zr  4,Zr  1)    -74.5931         0.010000   
    672. D(C  46,O  32,Zr  5,Zr  2)     34.1273         0.010000   
    673. D(C  46,O  32,Zr  5,Zr  0)     75.2739         0.010000   
    674. D(C  36,O  33,Zr  5,Zr  2)     99.9717         0.010000   
    675. D(C  36,O  33,Zr  5,Zr  0)     35.6335         0.010000   
    676. D(H  71,O  34,Zr  5,Zr  0)    116.3902         0.010000   
    677. D(C  40,O  34,Zr  5,Zr  2)    -35.0101         0.010000   
    678. D(C  40,O  34,Zr  5,Zr  0)     50.9219         0.010000   
    679. D(C  44,O  35,Zr  5,Zr  2)      8.5150         0.010000   
    680. D(C  44,O  35,Zr  5,Zr  0)    -41.9771         0.010000   
    681. D(H  71,O  35,Zr  5,Zr  0)   -116.5506         0.010000   
    682. D(H  58,C  36,O  12,Zr  0)    158.9120         0.045808   
    683. D(O  33,C  36,O  12,Zr  0)    -20.6145         0.045808   
    684. D(H  58,C  36,O  33,Zr  5)    152.4837         0.045592   
    685. D(O  12,C  36,O  33,Zr  5)    -27.9901         0.045592   
    686. D(H  51,C  37,O  25,Zr  3)    161.3467         0.046095   
    687. D(O  13,C  37,O  25,Zr  3)    -18.5919         0.046095   
    688. D(H  51,C  37,O  13,Zr  0)    159.3190         0.046130   
    689. D(O  25,C  37,O  13,Zr  0)    -20.7425         0.046130   
    690. D(H  50,C  38,O  21,Zr  2)    176.0898         0.047640   
    691. D(O  14,C  38,O  21,Zr  2)     -2.8919         0.047640   
    692. D(H  50,C  38,O  14,Zr  0)    166.3867         0.047740   
    693. D(O  21,C  38,O  14,Zr  0)    -14.6324         0.047740   
    694. D(H  54,C  39,O  29,Zr  4)   -178.2727         0.048324   
    695. D(O  15,C  39,O  29,Zr  4)      2.9376         0.048324   
    696. D(H  54,C  39,O  15,Zr  0)    169.1463         0.048384   
    697. D(O  29,C  39,O  15,Zr  0)    -12.0640         0.048384   
    698. D(H  56,C  40,O  34,Zr  5)   -175.7232         0.062750   
    699. D(O  16,C  40,O  34,H  71)    -67.1153         0.062750   
    700. D(O  16,C  40,O  34,Zr  5)      4.2493         0.062750   
    701. D(H  56,C  40,O  16,Zr  1)    176.8180         0.067369   
    702. D(O  34,C  40,O  16,H  69)    136.4594         0.067369   
    703. D(O  34,C  40,O  16,Zr  1)     -3.1544         0.067369   
    704. D(H  48,C  41,O  26,Zr  3)   -171.1955         0.047460   
    705. D(O  17,C  41,O  26,Zr  3)      7.8842         0.047460   
    706. D(H  48,C  41,O  17,Zr  1)   -163.8160         0.047729   
    707. D(O  26,C  41,O  17,Zr  1)     17.1050         0.047729   
    708. D(H  49,C  42,O  22,Zr  2)   -162.7837         0.050857   
    709. D(O  18,C  42,O  22,Zr  2)     16.6553         0.050857   
    710. D(H  49,C  42,O  18,Zr  1)   -156.2168         0.063599   
    711. D(O  22,C  42,O  18,H  71)    -79.5843         0.063599   
    712. D(O  22,C  42,O  18,Zr  1)     24.3445         0.063599   
    713. D(H  52,C  43,O  30,Zr  4)   -153.6719         0.045765   
    714. D(O  19,C  43,O  30,Zr  4)     26.6987         0.045765   
    715. D(H  52,C  43,O  19,Zr  1)   -160.5695         0.046024   
    716. D(O  30,C  43,O  19,Zr  1)     19.0600         0.046024   
    717. D(H  59,C  44,O  35,Zr  5)    171.8029         0.056578   
    718. D(O  20,C  44,O  35,H  71)     77.9757         0.056578   
    719. D(O  20,C  44,O  35,Zr  5)     -9.2586         0.056578   
    720. D(H  59,C  44,O  20,Zr  2)    178.6646         0.056607   
    721. D(O  35,C  44,O  20,H  71)    -74.6618         0.056607   
    722. D(O  35,C  44,O  20,Zr  2)     -0.2743         0.056607   
    723. D(H  55,C  45,O  31,Zr  4)   -162.8939         0.047131   
    724. D(O  23,C  45,O  31,Zr  4)     16.4573         0.047131   
    725. D(H  55,C  45,O  23,Zr  2)   -148.0366         0.046410   
    726. D(O  31,C  45,O  23,Zr  2)     32.6127         0.046410   
    727. D(H  57,C  46,O  32,Zr  5)    163.9464         0.047015   
    728. D(O  24,C  46,O  32,Zr  5)    -15.4810         0.047015   
    729. D(H  57,C  46,O  24,Zr  3)    147.7654         0.046263   
    730. D(O  32,C  46,O  24,Zr  3)    -32.8077         0.046263   
    731. D(H  53,C  47,O  28,Zr  4)   -174.2505         0.047054   
    732. D(O  27,C  47,O  28,Zr  4)      5.7605         0.047054   
    733. D(H  53,C  47,O  27,Zr  3)   -175.2761         0.047060   
    734. D(O  28,C  47,O  27,Zr  3)      4.7129         0.047060   
    735. D(H  66,H  49,C  42,O  22)    133.3117         0.119819   
    736. D(H  66,H  49,C  42,O  18)    -46.1902         0.119819   
    737. D(H  64,H  56,C  40,O  16)     95.9475         0.148111   
    738. D(H  67,H  56,C  40,O  34)   -119.4221         0.148111   
    739. D(H  67,H  56,C  40,O  16)     60.6016         0.148111   
    740. D(H  63,Al 61,Al 60,H  64)   -107.4448         0.010000   
    741. D(H  62,Al 61,Al 60,H  65)   -107.8789         0.010000   
    742. D(H  62,Al 61,Al 60,H  64)    151.0005         0.010000   
    743. D(Al 68,H  62,Al 61,H  63)   -114.7595         0.010000   
    744. D(Al 68,H  62,Al 61,Al 60)    -17.9405         0.010000   
    745. D(H  56,H  64,Al 61,Al 60)    123.2974         0.010000   
    746. D(Al 60,H  64,Al 61,H  62)    -35.4298         0.010000   
    747. D(H  56,H  64,Al 60,Al 61)   -105.1625         0.010000   
    748. D(Al 61,H  64,Al 60,H  66)     33.3891         0.010000   
    749. D(Al 61,H  64,Al 60,H  65)    -89.6646         0.010000   
    750. D(Al 61,H  64,H  56,C  40)   -141.5306         0.010000   
    751. D(Al 60,H  64,H  56,H  67)    128.9800         0.010000   
    752. D(Al 60,H  64,H  56,C  40)    -27.4243         0.010000   
    753. D(Al 61,H  64,C  40,O  16)    -70.2859         0.010000   
    754. D(Al 60,H  64,Al 61,H  63)     79.1617         0.010000   
    755. D(Al 60,H  64,C  40,O  34)    -88.4362         0.010000   
    756. D(Al 60,H  64,C  40,O  16)     44.5953         0.010000   
    757. D(H  49,H  66,Al 60,Al 61)    152.0449         0.010000   
    758. D(Al 68,H  66,Al 60,H  64)      1.9558         0.010000   
    759. D(Al 68,H  66,Al 60,Al 61)     20.5840         0.010000   
    760. D(Al 68,H  66,H  49,C  42)     84.9184         0.010000   
    761. D(Al 60,H  66,H  49,C  42)    -44.0437         0.010000   
    762. D(Al 68,H  66,O  18,Zr  1)     56.1377         0.010000   
    763. D(Al 60,H  66,O  18,C  42)     99.5840         0.010000   
    764. D(Al 60,H  66,O  18,Zr  1)    -53.4624         0.010000   
    765. D(H  56,H  67,Al 61,H  62)   -104.0755         0.010000   
    766. D(H  56,H  67,Al 61,Al 60)     -3.3867         0.010000   
    767. D(Al 61,H  67,H  56,H  64)    -15.8981         0.010000   
    768. D(Al 61,H  67,H  56,C  40)     26.8763         0.010000   
    769. D(Al 60,Al 68,H  66,O  18)    -96.7987         0.010000   
    770. D(Al 60,Al 68,H  66,H  49)   -131.9350         0.010000   
    771. D(H  66,Al 68,H  62,Al 61)     40.9198         0.010000   
    772. D(Al 60,Al 68,H  62,Al 61)     17.9129         0.010000   
    773. D(H  62,Al 68,Al 61,Al 60)    159.1927         0.010000   
    774. D(Al 60,Al 68,Al 61,H  63)    -83.4226         0.010000   
    775. D(Al 60,Al 68,Al 61,H  62)   -159.1927         0.010000   
    776. D(H  62,Al 68,Al 60,Al 61)    -11.7782         0.010000   
    777. D(Al 61,Al 68,Al 60,H  65)     88.7218         0.010000   
    778. D(Al 61,Al 68,H  66,Al 60)    -20.5055         0.010000   
    779. D(Al 61,Al 68,Al 60,H  64)    -22.2483         0.010000   
    780. D(O  18,H  69,Al 68,Al 60)     51.4453         0.010000   
    781. D(O  16,H  69,Al 68,Al 61)     51.5469         0.010000   
    782. D(O  16,H  69,Al 68,Al 60)     -9.7797         0.010000   
    783. D(O  16,H  69,O  18,Zr  1)    -34.8331         0.010000   
    784. D(Al 68,H  69,O  18,C  42)     23.6997         0.010000   
    785. D(Al 68,H  69,O  18,Zr  1)   -161.3098         0.010000   
    786. D(O  18,H  69,O  16,Zr  1)     34.8785         0.010000   
    787. D(Al 68,H  69,O  16,C  40)    -41.3461         0.010000   
    788. D(Al 68,H  69,O  16,Zr  1)    113.0853         0.010000   
    789. D(Al 60,H  71,C  42,O  18)     95.1568         0.010000   
    790. D(O   8,H  71,C  40,O  16)     68.5452         0.010000   
    791. D(Al 60,H  71,C  40,O  34)    121.7606         0.010000   
    792. D(O   8,H  71,O  35,Zr  5)     28.1079         0.010000   
    793. D(Al 60,H  71,O  35,C  44)     90.9982         0.010000   
    794. D(Al 60,H  71,O  35,Zr  5)   -138.6712         0.010000   
    795. D(Al 60,H  71,O  34,C  40)    -67.5147         0.010000   
    796. D(Al 60,H  71,O  34,Zr  5)    149.4960         0.010000   
    797. D(O   8,H  71,O  20,Zr  2)    -28.9130         0.010000   
    798. D(Al 60,H  71,O  20,C  44)    -74.6076         0.010000   
    799. D(Al 60,H  71,O  20,Zr  2)    151.0927         0.010000   
    800. D(O   8,H  71,O  18,Zr  1)    -31.0274         0.010000   
    801. D(Al 60,H  71,O  18,C  42)    -95.6094         0.010000   
    802. D(O   8,H  71,O  34,Zr  5)    -42.7783         0.010000   
    803. D(Al 60,H  71,O  18,Zr  1)    135.7958         0.010000   
    804. D(O   8,H  71,O  16,Zr  1)     44.6939         0.010000   
    805. D(Al 60,H  71,O  16,C  40)     83.4275         0.010000   
    806. D(Al 60,H  71,C  40,O  16)   -105.1412         0.010000   
    807. D(Al 60,H  71,O  16,Zr  1)   -135.5964         0.010000   
    808. D(O  18,H  71,O   8,Zr  1)     28.2757         0.010000   
    809. D(Al 60,H  71,O   8,Zr  2)   -152.4384         0.010000   
    810. D(Al 60,H  71,C  42,O  22)   -137.1746         0.010000   
    811. D(Al 60,H  71,O   8,Zr  1)    -42.3697         0.010000   
    812. D(O  18,H  71,Al 60,Al 61)    -85.8954         0.011440   
    813. D(O   8,H  71,Al 60,H  64)    -48.3799         0.011440   
    814. D(O   8,H  71,Al 60,Al 61)    -20.5470         0.011440   
    815. D(O   8,H  71,C  44,O  20)    -63.1686         0.010000   
    816. D(Al 60,H  71,C  44,O  35)   -107.1833         0.010000   
    817. D(Al 60,H  71,C  44,O  20)    123.7772         0.010000   
    818. D(O   8,H  71,C  42,O  18)    -71.0431         0.010000   
    -----------------------------------------------------------------

Number of atoms                         .... 72
Number of degrees of freedom            .... 818


         *************************************************************
         *                GEOMETRY OPTIMIZATION CYCLE   1            *
         *************************************************************
---------------------------------
CARTESIAN COORDINATES (ANGSTROEM)
---------------------------------
  Zr    -0.400278    2.043469    1.448771
  Zr     0.589432   -2.193215   -1.492307
  Zr     1.914991   -1.193387    1.509780
  Zr    -1.761256    1.022553   -1.533463
  Zr     1.647133    1.000874   -1.760821
  Zr    -1.481307   -1.144532    1.722095
  O     -1.615090    0.630845    0.516185
  O      1.794593   -0.784252   -0.551468
  O      0.161403   -2.060415    0.625157
  O     -0.004007    1.912008   -0.676546
  O     -0.088218   -0.193231   -1.723208
  O      0.265755    0.041303    1.675822
  O     -1.920277    2.053678    2.741363
  O     -1.400317    3.589340    0.698942
  O      0.643820    1.838928    3.227915
  O      1.220287    3.156692    1.160876
  O     -1.039787   -3.300525   -1.224084
  O     -0.446720   -1.995227   -3.274517
  O      1.607112   -3.723486   -0.736581
  O      2.115668   -2.210778   -2.774772
  O      1.437505   -2.452595    2.955047
  O      2.180224    0.062068    3.126928
  O      2.996580   -2.712595    0.840417
  O      3.569195   -0.102473    0.958431
  O     -3.450417    0.002045   -0.929935
  O     -2.792306    2.585336   -0.881077
  O     -2.062295   -0.296796   -3.093103
  O     -1.308794    2.226297   -3.027037
  O      1.017257    2.350456   -3.062912
  O      2.372492    2.629998   -0.803449
  O      2.114427    0.022509   -3.426773
  O      3.617006    0.561013   -1.298217
  O     -3.456645   -0.645685    1.333037
  O     -1.872493   -0.172549    3.414411
  O     -2.250340   -2.687394    0.679120
  O     -0.890414   -2.543078    2.986002
  C     -2.222705    1.075011    3.544644
  C     -2.423208    3.561510   -0.104303
  C      1.637067    1.118565    3.647377
  C      2.122742    3.340386    0.250374
  C     -2.030344   -3.377812   -0.394330
  C     -1.485849   -1.316748   -3.650492
  C      2.648348   -3.680109    0.042958
  C      2.452517   -1.227814   -3.557925
  C      0.293949   -2.873670    3.403827
  C      4.142621    0.270409   -0.147239
  C     -4.004320   -0.338013    0.196530
  C     -0.172812    2.671762   -3.470945
  H     -1.935399   -1.643837   -4.582225
  H      3.298248   -4.557022    0.033381
  H      2.072572    1.440512    4.587298
  H     -3.041935    4.460070   -0.130236
  H      3.078756   -1.478770   -4.416790
  H     -0.223706    3.400250   -4.280050
  H      2.771174    4.198777    0.400647
  H      5.224470    0.361926   -0.098776
  H     -2.782662   -4.124721   -0.629841
  H     -5.090266   -0.379205    0.183226
  H     -2.825195    1.327462    4.420257
  H      0.333504   -3.601008    4.214761
  Al    -0.048565   -5.928852    1.330460
  Al    -2.007461   -7.218890   -0.066258
  H     -0.962061   -7.672232   -1.290712
  H     -2.017389   -8.548384    0.842397
  H     -1.689803   -5.966736    1.000312
  H      0.233286   -6.873901    2.603563
  H      1.134216   -6.341594    0.222689
  H     -3.160946   -6.545931   -0.963728
  Al     0.418983   -6.732703   -1.240207
  H      0.077400   -5.421927   -2.114374
  H      1.455895   -7.908650   -1.599849
  H      0.146539   -4.339216    1.229924

----------------------------
CARTESIAN COORDINATES (A.U.)
----------------------------
  NO LB      ZA    FRAG     MASS         X           Y           Z
   0 Zr   12.0000*   0    91.220   -0.756416    3.861596    2.737780
   1 Zr   12.0000*   0    91.220    1.113865   -4.144577   -2.820051
   2 Zr   12.0000*   0    91.220    3.618809   -2.255174    2.853070
   3 Zr   12.0000*   0    91.220   -3.328292    1.932346   -2.897825
   4 Zr   12.0000*   0    91.220    3.112631    1.891377   -3.327470
   5 Zr   12.0000*   0    91.220   -2.799265   -2.162852    3.254287
   6 O     8.0000    0    15.999   -3.052078    1.192125    0.975449
   7 O     8.0000    0    15.999    3.391289   -1.482021   -1.042123
   8 O     8.0000    0    15.999    0.305008   -3.893620    1.181375
   9 O     8.0000    0    15.999   -0.007572    3.613171   -1.278487
  10 O     8.0000    0    15.999   -0.166708   -0.365154   -3.256391
  11 O     8.0000    0    15.999    0.502205    0.078051    3.166845
  12 O     8.0000    0    15.999   -3.628798    3.880890    5.180426
  13 O     8.0000    0    15.999   -2.646215    6.782870    1.320809
  14 O     8.0000    0    15.999    1.216643    3.475069    6.099876
  15 O     8.0000    0    15.999    2.306009    5.965284    2.193737
  16 O     8.0000    0    15.999   -1.964913   -6.237088   -2.313183
  17 O     8.0000    0    15.999   -0.844178   -3.770432   -6.187940
  18 O     8.0000    0    15.999    3.037002   -7.036369   -1.391936
  19 O     8.0000    0    15.999    3.998033   -4.177764   -5.243559
  20 O     8.0000    0    15.999    2.716491   -4.634733    5.584230
  21 O     8.0000    0    15.999    4.120026    0.117291    5.909038
  22 O     8.0000    0    15.999    5.662715   -5.126062    1.588158
  23 O     8.0000    0    15.999    6.744801   -0.193646    1.811172
  24 O     8.0000    0    15.999   -6.520344    0.003864   -1.757322
  25 O     8.0000    0    15.999   -5.276693    4.885577   -1.664994
  26 O     8.0000    0    15.999   -3.897172   -0.560863   -5.845117
  27 O     8.0000    0    15.999   -2.473262    4.207091   -5.720271
  28 O     8.0000    0    15.999    1.922337    4.441718   -5.788064
  29 O     8.0000    0    15.999    4.483361    4.969975   -1.518299
  30 O     8.0000    0    15.999    3.995688    0.042535   -6.475662
  31 O     8.0000    0    15.999    6.835151    1.060160   -2.453275
  32 O     8.0000    0    15.999   -6.532113   -1.220169    2.519074
  33 O     8.0000    0    15.999   -3.538499   -0.326071    6.452303
  34 O     8.0000    0    15.999   -4.252526   -5.078439    1.283351
  35 O     8.0000    0    15.999   -1.682639   -4.805721    5.642727
  36 C     6.0000    0    12.011   -4.200304    2.031477    6.698407
  37 C     6.0000    0    12.011   -4.579199    6.730279   -0.197104
  38 C     6.0000    0    12.011    3.093609    2.113781    6.892544
  39 C     6.0000    0    12.011    4.011401    6.312414    0.473139
  40 C     6.0000    0    12.011   -3.836794   -6.383140   -0.745176
  41 C     6.0000    0    12.011   -2.807848   -2.488293   -6.898430
  42 C     6.0000    0    12.011    5.004653   -6.954398    0.081179
[...]
215:   2906.63   0.010845   54.81  0.001164  (-0.019357  0.020901  0.018784)

* The epsilon (eps) is given for a Dirac delta lineshape.
** The dipole moment derivative (T) already includes vibrational overlap.

The first frequency considered to be a vibration is 9
The total number of vibrations considered is 207


--------------------------
THERMOCHEMISTRY AT 298.15K
--------------------------

Temperature         ...   298.15 K
Pressure            ...     1.00 atm
Total Mass          ...  1273.54 AMU
Quasi RRHO          ...     True
Cut-Off Frequency   ...     1.00 cm^-1

Throughout the following assumptions are being made:
  (1) The electronic state is orbitally nondegenerate
  (2) There are no thermally accessible electronically excited states
  (3) Hindered rotations indicated by low frequency modes are not
      treated as such but are treated as vibrations and this may
      cause some error
  (4) All equations used are the standard statistical mechanics
      equations for an ideal gas
  (5) All vibrations are strictly harmonic

freq.      11.24  E(vib)   ...       0.58 
freq.      23.54  E(vib)   ...       0.56 
freq.      26.93  E(vib)   ...       0.55 
freq.      31.65  E(vib)   ...       0.55 
freq.      36.85  E(vib)   ...       0.54 
freq.      45.84  E(vib)   ...       0.53 
freq.      49.26  E(vib)   ...       0.52 
freq.      60.41  E(vib)   ...       0.51 
freq.      61.57  E(vib)   ...       0.51 
freq.      69.94  E(vib)   ...       0.50 
freq.      78.33  E(vib)   ...       0.49 
freq.      80.60  E(vib)   ...       0.48 
freq.      84.12  E(vib)   ...       0.48 
freq.      92.95  E(vib)   ...       0.47 
freq.      96.32  E(vib)   ...       0.47 
freq.      98.63  E(vib)   ...       0.46 
freq.     101.37  E(vib)   ...       0.46 
freq.     101.70  E(vib)   ...       0.46 
freq.     103.96  E(vib)   ...       0.46 
freq.     108.93  E(vib)   ...       0.45 
freq.     111.82  E(vib)   ...       0.45 
freq.     113.75  E(vib)   ...       0.44 
freq.     115.71  E(vib)   ...       0.44 
freq.     125.01  E(vib)   ...       0.43 
freq.     129.11  E(vib)   ...       0.43 
freq.     144.12  E(vib)   ...       0.41 
freq.     146.06  E(vib)   ...       0.41 
freq.     149.76  E(vib)   ...       0.40 
freq.     151.44  E(vib)   ...       0.40 
freq.     153.13  E(vib)   ...       0.40 
freq.     156.13  E(vib)   ...       0.40 
freq.     157.91  E(vib)   ...       0.40 
freq.     160.24  E(vib)   ...       0.39 
freq.     164.11  E(vib)   ...       0.39 
freq.     166.71  E(vib)   ...       0.39 
freq.     168.39  E(vib)   ...       0.38 
freq.     170.31  E(vib)   ...       0.38 
freq.     172.04  E(vib)   ...       0.38 
freq.     173.73  E(vib)   ...       0.38 
freq.     185.65  E(vib)   ...       0.37 
freq.     187.71  E(vib)   ...       0.36 
freq.     189.53  E(vib)   ...       0.36 
freq.     191.99  E(vib)   ...       0.36 
freq.     196.50  E(vib)   ...       0.36 
freq.     197.93  E(vib)   ...       0.35 
freq.     203.08  E(vib)   ...       0.35 
freq.     211.28  E(vib)   ...       0.34 
freq.     211.86  E(vib)   ...       0.34 
freq.     213.01  E(vib)   ...       0.34 
freq.     216.29  E(vib)   ...       0.34 
freq.     229.46  E(vib)   ...       0.32 
freq.     231.98  E(vib)   ...       0.32 
freq.     233.67  E(vib)   ...       0.32 
freq.     240.55  E(vib)   ...       0.31 
freq.     242.63  E(vib)   ...       0.31 
freq.     259.27  E(vib)   ...       0.30 
freq.     261.09  E(vib)   ...       0.30 
freq.     262.52  E(vib)   ...       0.29 
freq.     263.44  E(vib)   ...       0.29 
freq.     265.54  E(vib)   ...       0.29 
freq.     265.98  E(vib)   ...       0.29 
freq.     268.41  E(vib)   ...       0.29 
freq.     271.95  E(vib)   ...       0.29 
freq.     272.49  E(vib)   ...       0.29 
freq.     274.92  E(vib)   ...       0.28 
freq.     275.94  E(vib)   ...       0.28 
freq.     277.90  E(vib)   ...       0.28 
freq.     279.21  E(vib)   ...       0.28 
freq.     281.75  E(vib)   ...       0.28 
freq.     288.41  E(vib)   ...       0.27 
freq.     289.56  E(vib)   ...       0.27 
freq.     291.24  E(vib)   ...       0.27 
freq.     293.16  E(vib)   ...       0.27 
freq.     293.99  E(vib)   ...       0.27 
freq.     295.90  E(vib)   ...       0.27 
freq.     302.35  E(vib)   ...       0.26 
freq.     306.95  E(vib)   ...       0.26 
freq.     308.41  E(vib)   ...       0.26 
freq.     310.88  E(vib)   ...       0.26 
freq.     312.68  E(vib)   ...       0.25 
freq.     313.66  E(vib)   ...       0.25 
freq.     316.12  E(vib)   ...       0.25 
freq.     318.27  E(vib)   ...       0.25 
freq.     320.54  E(vib)   ...       0.25 
freq.     324.44  E(vib)   ...       0.25 
freq.     329.88  E(vib)   ...       0.24 
freq.     337.60  E(vib)   ...       0.24 
freq.     341.52  E(vib)   ...       0.23 
freq.     349.44  E(vib)   ...       0.23 
freq.     351.69  E(vib)   ...       0.23 
freq.     360.49  E(vib)   ...       0.22 
freq.     371.34  E(vib)   ...       0.21 
freq.     387.38  E(vib)   ...       0.20 
freq.     394.26  E(vib)   ...       0.20 
freq.     399.30  E(vib)   ...       0.19 
freq.     402.46  E(vib)   ...       0.19 
freq.     403.59  E(vib)   ...       0.19 
freq.     407.25  E(vib)   ...       0.19 
freq.     416.95  E(vib)   ...       0.18 
freq.     417.76  E(vib)   ...       0.18 
freq.     420.37  E(vib)   ...       0.18 
freq.     421.49  E(vib)   ...       0.18 
freq.     422.79  E(vib)   ...       0.18 
freq.     430.14  E(vib)   ...       0.18 
freq.     470.74  E(vib)   ...       0.15 
freq.     479.47  E(vib)   ...       0.15 
freq.     484.29  E(vib)   ...       0.15 
freq.     490.32  E(vib)   ...       0.15 
freq.     522.01  E(vib)   ...       0.13 
freq.     533.27  E(vib)   ...       0.13 
freq.     538.92  E(vib)   ...       0.12 
freq.     545.53  E(vib)   ...       0.12 
freq.     626.36  E(vib)   ...       0.09 
freq.     653.46  E(vib)   ...       0.08 
freq.     662.33  E(vib)   ...       0.08 
freq.     684.39  E(vib)   ...       0.07 
freq.     685.80  E(vib)   ...       0.07 
freq.     689.75  E(vib)   ...       0.07 
freq.     692.77  E(vib)   ...       0.07 
freq.     696.14  E(vib)   ...       0.07 
freq.     722.10  E(vib)   ...       0.07 
freq.     733.30  E(vib)   ...       0.06 
freq.     733.79  E(vib)   ...       0.06 
freq.     734.04  E(vib)   ...       0.06 
freq.     734.93  E(vib)   ...       0.06 
freq.     735.59  E(vib)   ...       0.06 
freq.     736.42  E(vib)   ...       0.06 
freq.     737.79  E(vib)   ...       0.06 
freq.     738.60  E(vib)   ...       0.06 
freq.     738.79  E(vib)   ...       0.06 
freq.     739.38  E(vib)   ...       0.06 
freq.     739.66  E(vib)   ...       0.06 
freq.     741.87  E(vib)   ...       0.06 
freq.     742.95  E(vib)   ...       0.06 
freq.     761.47  E(vib)   ...       0.06 
freq.     949.73  E(vib)   ...       0.03 
freq.     968.47  E(vib)   ...       0.03 
freq.     998.73  E(vib)   ...       0.02 
freq.     999.25  E(vib)   ...       0.02 
freq.     999.50  E(vib)   ...       0.02 
freq.     999.86  E(vib)   ...       0.02 
freq.    1001.34  E(vib)   ...       0.02 
freq.    1003.99  E(vib)   ...       0.02 
freq.    1004.73  E(vib)   ...       0.02 
freq.    1005.13  E(vib)   ...       0.02 
freq.    1005.63  E(vib)   ...       0.02 
freq.    1005.99  E(vib)   ...       0.02 
freq.    1006.13  E(vib)   ...       0.02 
freq.    1006.75  E(vib)   ...       0.02 
freq.    1044.27  E(vib)   ...       0.02 
freq.    1346.89  E(vib)   ...       0.01 
freq.    1350.08  E(vib)   ...       0.01 
freq.    1353.26  E(vib)   ...       0.01 
freq.    1353.69  E(vib)   ...       0.01 
freq.    1354.53  E(vib)   ...       0.01 
freq.    1354.86  E(vib)   ...       0.01 
freq.    1355.95  E(vib)   ...       0.01 
freq.    1356.34  E(vib)   ...       0.01 
freq.    1357.40  E(vib)   ...       0.01 
freq.    1358.12  E(vib)   ...       0.01 
freq.    1358.20  E(vib)   ...       0.01 
freq.    1358.98  E(vib)   ...       0.01 
freq.    1361.24  E(vib)   ...       0.01 
freq.    1361.69  E(vib)   ...       0.01 
freq.    1363.89  E(vib)   ...       0.01 
freq.    1364.12  E(vib)   ...       0.01 
freq.    1364.75  E(vib)   ...       0.01 
freq.    1365.35  E(vib)   ...       0.01 
freq.    1365.87  E(vib)   ...       0.01 
freq.    1367.15  E(vib)   ...       0.01 
freq.    1367.56  E(vib)   ...       0.01 
freq.    1371.28  E(vib)   ...       0.01 
freq.    1371.82  E(vib)   ...       0.01 
freq.    1380.02  E(vib)   ...       0.01 
freq.    1537.85  E(vib)   ...       0.00 
freq.    1545.57  E(vib)   ...       0.00 
freq.    1562.88  E(vib)   ...       0.00 
freq.    1566.22  E(vib)   ...       0.00 
freq.    1569.26  E(vib)   ...       0.00 
freq.    1577.15  E(vib)   ...       0.00 
freq.    1577.71  E(vib)   ...       0.00 
freq.    1631.01  E(vib)   ...       0.00 
freq.    1632.36  E(vib)   ...       0.00 
freq.    1637.22  E(vib)   ...       0.00 
freq.    1637.44  E(vib)   ...       0.00 
freq.    1638.84  E(vib)   ...       0.00 
freq.    1697.36  E(vib)   ...       0.00 
freq.    1776.96  E(vib)   ...       0.00 
freq.    1799.86  E(vib)   ...       0.00 
freq.    1886.73  E(vib)   ...       0.00 
freq.    1892.19  E(vib)   ...       0.00 
freq.    1894.47  E(vib)   ...       0.00 
freq.    1903.56  E(vib)   ...       0.00 
freq.    1927.82  E(vib)   ...       0.00 
freq.    1945.79  E(vib)   ...       0.00 
freq.    2880.14  E(vib)   ...       0.00 
freq.    2884.10  E(vib)   ...       0.00 
freq.    2887.03  E(vib)   ...       0.00 
freq.    2888.47  E(vib)   ...       0.00 
freq.    2889.56  E(vib)   ...       0.00 
freq.    2890.26  E(vib)   ...       0.00 
freq.    2894.38  E(vib)   ...       0.00 
freq.    2903.94  E(vib)   ...       0.00 
freq.    2904.24  E(vib)   ...       0.00 
freq.    2904.69  E(vib)   ...       0.00 
freq.    2905.55  E(vib)   ...       0.00 
freq.    2906.63  E(vib)   ...       0.00 

------------
INNER ENERGY
------------

The inner energy is: U= E(el) + E(ZPE) + E(vib) + E(rot) + E(trans)
    E(el)   - is the total energy from the electronic structure calculation
              = E(kin-el) + E(nuc-el) + E(el-el) + E(nuc-nuc)
    E(ZPE)  - the the zero temperature vibrational energy from the frequency calculation
    E(vib)  - the the finite temperature correction to E(ZPE) due to population
              of excited vibrational states
    E(rot)  - is the rotational thermal energy
    E(trans)- is the translational thermal energy

Summary of contributions to the inner energy U:
Electronic energy                ...  -3732.50965511 Eh
Zero point energy                ...      0.36991840 Eh     232.13 kcal/mol
Thermal vibrational correction   ...      0.06116514 Eh      38.38 kcal/mol
Thermal rotational correction    ...      0.00141627 Eh       0.89 kcal/mol
Thermal translational correction ...      0.00141627 Eh       0.89 kcal/mol
-----------------------------------------------------------------------
Total thermal energy                  -3732.07573903 Eh


Summary of corrections to the electronic energy:
(perhaps to be used in another calculation)
Total thermal correction                  0.06399768 Eh      40.16 kcal/mol
Non-thermal (ZPE) correction              0.36991840 Eh     232.13 kcal/mol
-----------------------------------------------------------------------
Total correction                          0.43391608 Eh     272.29 kcal/mol


--------
ENTHALPY
--------

The enthalpy is H = U + kB*T
                kB is Boltzmann's constant
Total thermal energy              ...  -3732.07573903 Eh 
Thermal Enthalpy correction       ...      0.00094421 Eh       0.59 kcal/mol
-----------------------------------------------------------------------
Total Enthalpy                    ...  -3732.07479482 Eh


Note: Only C1 symmetry has been detected, increase convergence thresholds 
      if your molecule has a higher symmetry. Symmetry factor of 1.0 is   
      used for the rotational entropy correction. 
 

Note: Rotational entropy computed according to Herzberg 
Infrared and Raman Spectra, Chapter V,1, Van Nostrand Reinhold, 1945 
Point Group:  C1, Symmetry Number:   1  
Rotational constants in cm-1:     0.001778     0.001243     0.001202 

Vibrational entropy computed according to the QRRHO of S. Grimme
Chem.Eur.J. 2012 18 9955 using a reference frequency of 100.0 cm-1


-------
ENTROPY
-------

The entropy contributions are T*S = T*(S(el)+S(vib)+S(rot)+S(trans))
     S(el)   - electronic entropy
     S(vib)  - vibrational entropy
     S(rot)  - rotational entropy
     S(trans)- translational entropy
The entropies will be listed as multiplied by the temperature to get
units of energy

Electronic entropy                ...      0.00000000 Eh      0.00 kcal/mol
Vibrational entropy               ...      0.11021568 Eh     69.16 kcal/mol
Rotational entropy                ...      0.01883278 Eh     11.82 kcal/mol
Translational entropy             ...      0.02247478 Eh     14.10 kcal/mol
-----------------------------------------------------------------------
Final entropy term                ...      0.15152325 Eh     95.08 kcal/mol

In case the symmetry of your molecule has not been determined correctly
or in case you have a reason to use a different symmetry number we print 
out the resulting rotational entropy values for sn=1,12:

 non-linear molecules -----------------------------------
|  sn= 1 | S(rot)=       0.01883278 Eh     11.82 kcal/mol|
|  sn= 2 | S(rot)=       0.01817833 Eh     11.41 kcal/mol|
|  sn= 3 | S(rot)=       0.01779550 Eh     11.17 kcal/mol|
|  sn= 4 | S(rot)=       0.01752387 Eh     11.00 kcal/mol|
|  sn= 5 | S(rot)=       0.01731318 Eh     10.86 kcal/mol|
|  sn= 6 | S(rot)=       0.01714104 Eh     10.76 kcal/mol|
|  sn= 7 | S(rot)=       0.01699549 Eh     10.66 kcal/mol|
|  sn= 8 | S(rot)=       0.01686942 Eh     10.59 kcal/mol|
|  sn= 9 | S(rot)=       0.01675821 Eh     10.52 kcal/mol|
|  sn=10 | S(rot)=       0.01665873 Eh     10.45 kcal/mol|
|  sn=11 | S(rot)=       0.01656874 Eh     10.40 kcal/mol|
|  sn=12 | S(rot)=       0.01648658 Eh     10.35 kcal/mol|
 linear molecules ---------------------------------------
|  Dinfh | S(rot)=       0.01167409 Eh      7.33 kcal/mol|
|  Cinfv | S(rot)=       0.01232855 Eh      7.74 kcal/mol|
 --------------------------------------------------------


-------------------
GIBBS FREE ENERGY
-------------------

The Gibbs free energy is G = H - T*S

Total enthalpy                    ...  -3732.07479482 Eh 
Total entropy correction          ...     -0.15152325 Eh    -95.08 kcal/mol
-----------------------------------------------------------------------
Final Gibbs free energy         ...  -3732.22631807 Eh

For completeness - the Gibbs free energy minus the electronic energy
G-E(el)                           ...      0.28333704 Eh    177.80 kcal/mol


Maximum memory used throughout the entire PROP-calculation: 143.3 MB

--------------------------------
SUGGESTED CITATIONS FOR THIS RUN
--------------------------------

Below you find a list of papers that are relevant to this ORCA run
We neither can nor want to force you to cite these papers, but we appreciate if you do
You receive ORCA, which is the product of decades of hard work by many enthusiastic individuals, for free
The only thing we kindly ask in return is that you cite our papers,
We deeply appreciate it, if you show your appreciation for ORCA by not just citing the generic ORCA reference.

Please note that relegating all ORCA citations to the supporting information does *not* help us.
SI sections are not indexed - citations you put there will not count into any citation statistics
But we need these citations in order to attract the funding resources that allow us to do what we are doing

Therefore, if you are a happy ORCA user, please consider citing a few of the papers listed below in the main body of your paper

In addition to the list printed below, the program has created the file run.bibtex that contains the list in bibtex format
You can import this file easily into all common literature databanks and citation aid programs


List of essential papers. We consider these as the minimum necessary citations

  1. Neese, F.
     Software update: the ORCA program system, version 6.0
     WIRES Comput. Molec. Sci. 2025 15(1), e70019
     doi.org/10.1002/wcms.7019

List of papers to cite with high priority. The work reported in these papers was absolutely
necessary for this run to complete.
Our perspective: the developers of density functionals and basis sets usually get cited in chemistry papers
Good! But without the algorithms to do something with them, the functionals or basis sets would not do anything.
Hence, in our opinion, the algorithm design and method developments papers are equally worthy of getting cited

  1. Neese, F.
     An improvement of the resolution of the identity approximation for the formation of the Coulomb matrix
     J. Comp. Chem. 2003 24(14), 1740-1747
     doi.org/10.1002/jcc.10318
  2. Grimme, S.; Antony, J.; Ehrlich, S.; Krieg, H.
     A consistent and accurate ab initio parametrization of density functional dispersion correction (DFT-D) for the 94 elements H-Pu
     J. Chem. Phys. 2010 132 , 154104
     doi.org/10.1063/1.3382344
  3. Grimme, S.; Ehrlich, S.; Goerigk, L.
     Effect of the damping function in dispersion corrected density functional theory
     J. Comput. Chem. 2011 32(7), 1456-1465
     doi.org/10.1002/jcc.21759
  4. Bykov, D.; Petrenko, T.; Izsak, R.; Kossmann, S.; Becker, U.; Valeev, E.; Neese, F.
     Efficient implementation of the analytic second derivatives of Hartree-Fock and hybrid DFT energies: a detailed analysis of different approximations
     Molec. Phys. 2015 113 , 1961-1977
     doi.org/10.1080/00268976.2015.1025114
  5. Helmich-Paris, B.
     A trust-region augmented Hessian implementation for restricted and unrestricted Hartree–Fock and Kohn–Sham methods
     J. Chem. Phys. 2021 154 , 164104
     doi.org/10.1063/5.0040798
  6. Neese, F.
     The SHARK Integral Generation and Digestion System
     J. Comp. Chem. 2022 44(3), 381
     doi.org/10.1002/jcc.26942

List of suggested additional citations. These are papers that are important in the 'surrounding' of 
of this run, or papers that preceded the highly important papers. If you like your results we are grateful for a citation.

  1. Neese, F.
     The ORCA program system
     WIRES Comput. Molec. Sci. 2012 2(1), 73-78
     doi.org/10.1002/wcms.81
  2. Neese, F.
     Software update: the ORCA program system, version 4.0
     WIRES Comput. Molec. Sci. 2018 8(1), 1-6
     doi.org/10.1002/wcms.1327
  3. Neese, F.; Wennmohs, F.; Becker, U.; Riplinger, C.
     The ORCA quantum chemistry program package
     J. Chem. Phys. 2020 152(22), 224108
     doi.org/10.1063/5.0004608
  4. Neese, F.
     Software update: The ORCA program system—Version 5.0
     WIRES Comput. Molec. Sci. 2022 12(1), e1606
     doi.org/10.1002/wcms.1606

List of optional additional citations

  1. Neese, F.
     Approximate second-order SCF convergence for spin unrestricted wavefunctions
     Chem. Phys. Lett. 2000 325(1-3), 93-98
     doi.org/10.1016/s0009-2614(00)00662-x

Timings for individual modules:

Sum of individual times          ...     8467.703 sec (= 141.128 min)
Startup calculation              ...      333.923 sec (=   5.565 min)   3.9 %
SCF iterations                   ...     2256.052 sec (=  37.601 min)  26.6 %
Property integrals               ...     2018.867 sec (=  33.648 min)  23.8 %
SCF Response                     ...     1294.170 sec (=  21.569 min)  15.3 %
Property calculations            ...     1744.151 sec (=  29.069 min)  20.6 %
SCF Gradient evaluation          ...      804.490 sec (=  13.408 min)   9.5 %
Geometry relaxation              ...       16.049 sec (=   0.267 min)   0.2 %
                             ****ORCA TERMINATED NORMALLY****
TOTAL RUN TIME: 0 days 2 hours 21 minutes 29 seconds 254 msec
