
                                 *****************
                                 * O   R   C   A *
                                 *****************

                                            #,                                       
                                            ###                                      
                                            ####                                     
                                            #####                                    
                                            ######                                   
                                           ########,                                 
                                     ,,################,,,,,                         
                               ,,#################################,,                 
                          ,,##########################################,,             
                       ,#########################################, ''#####,          
                    ,#############################################,,   '####,        
                  ,##################################################,,,,####,       
                ,###########''''           ''''###############################       
              ,#####''   ,,,,##########,,,,          '''####'''          '####       
            ,##' ,,,,###########################,,,                        '##       
           ' ,,###''''                  '''############,,,                           
         ,,##''                                '''############,,,,        ,,,,,,###''
      ,#''                                            '''#######################'''  
     '                                                          ''''####''''         
             ,#######,   #######,   ,#######,      ##                                
            ,#'     '#,  ##    ##  ,#'     '#,    #''#        ,####,    ,#,          
            ##       ##  ##   ,#'  ##            #'  '#       #'       ,# #          
            ##       ##  #######   ##           ,######,      #####,      #          
            '#,     ,#'  ##    ##  '#,     ,#' ,#      #,     #,   #      #          
             '#######'   ##     ##  '#######'  #'      '#     '####' #    #          



                #########################################################
                #                        -***-                          #
                #          Department of theory and spectroscopy        #
                #                                                       #
                #                      Frank Neese                      #
                #                                                       #
                #     Directorship, Architecture, Infrastructure        #
                #                    SHARK, DRIVERS                     #
                #        Core code/Algorithms in most modules           #
                #                                                       #
                #        Max Planck Institute fuer Kohlenforschung      #
                #                Kaiser Wilhelm Platz 1                 #
                #                 D-45470 Muelheim/Ruhr                 #
                #                      Germany                          #
                #                                                       #
                #                  All rights reserved                  #
                #                        -***-                          #
                #########################################################


                         Program Version 6.1.0  -  RELEASE   -
                                (GIT: $679e74b$)
                          ($2025-06-10 18:02:51 +0200$)


 With contributions from (in alphabetic order):
[Max-Planck-Institut fuer Kohlenforschung]                               
  Daniel Aravena         : Magnetic Suceptibility                        
  Michael Atanasov       : Ab Initio Ligand Field Theory (pilot matlab implementation)
  Alexander A. Auer      : GIAO ZORA, VPT2 properties, NMR spectrum      
  Ute Becker             : All parallelization in ORCA, NUMFREQ, NUMCALC 
  Giovanni Bistoni       : ED, misc. LED, open-shell LED, HFLD           
  Dmytro Bykov           : pre 5.0 version of the SCF Hessian            
  Marcos Casanova-Páez   : Triplet and SCS-CIS(D). UHF-(DLPNO)-IP/EA/STEOM-CCSD. UHF-CVS-IP/STEOM-CCSD   
  Vijay G. Chilkuri      : MRCI spin determinant printing, contributions to CSF-ICE 
  Pauline Colinet        : FMM embedding                                 
  Dipayan Datta          : RHF DLPNO-CCSD density                        
  Achintya Kumar Dutta   : EOM-CC, STEOM-CC                              
  Nicolas Foglia         : Exact transition moments, OPA infrastructure, MCD improvements    
  Dmitry Ganyushin       : Spin-Orbit,Spin-Spin,Magnetic field MRCI      
  Miquel Garcia-Rates    : C-PCM and meta-GGA Hessian, CCSD/C-PCM, Gaussian charge scheme 
  Tiago L. C. Gouveia    : GS-ROHF, GS-ROCIS                             
  Yang Guo               : DLPNO-NEVPT2, F12-NEVPT2, CIM, IAO-localization        
  Andreas Hansen         : Spin unrestricted coupled pair/coupled cluster methods 
  Ingolf Harden          : AUTO-CI MPn and infrastructure                
  Benjamin Helmich-Paris : MC-RPA, TRAH-(SCF,CASSCF), AVAS, COSX integrals, SCF dyn. polar., MC-PDFT, srDFT 
  Lee Huntington         : MR-EOM, pCC                                   
  Robert Izsak           : Overlap fitted RIJCOSX, COSX-SCS-MP3, EOM     
  Riya Kayal             : Wick's Theorem for AUTO-CI, AUTO-CI UHF-CCSDT 
  Emily Kempfer          : AUTO-CI RHF CISDT and CCSDT, approximate NEVPT4
  Christian Kollmar      : KDIIS, OOCD, Brueckner-CCSD(T), CCSD density, CASPT2, CASPT2-K, improved NEVPT2 
  Axel Koslowski         : Symmetry handling                             
  Simone Kossmann        : meta-GGA functionals, TD-DFT gradient, OOMP2, (MP2 Hessian; deprecated post 5.0) 
  Lucas Lang             : DCDCAS, Hyperfine gauge corrections, ICE-SOC+SSC
  Marvin Lechner         : AUTO-CI (C++ implementation), FIC-MRCC        
  Spencer Leger          : CASSCF response                               
  Dagmar Lenk            : GEPOL surface, SMD, ORCA-2-JSON               
  Dimitrios Liakos       : Extrapolation schemes; Compound Job, Property file
  Dimitrios Manganas     : Further ROCIS development; embedding schemes. LFT, Crystal Embedding 
  Dimitrios Pantazis     : SARC Basis sets                               
  Anastasios Papadopoulos: AUTO-CI, single reference methods and gradients 
  Taras Petrenko         : pre 6.0 DFT Hessian and TD-DFT gradient,  ECA, NRVS 
  Petra Pikulova         : Analytic Raman intensities                    
  Peter Pinski           : DLPNO-MP2, DLPNO-MP2 Gradient                 
  Shashank Vittal Rao    : ES-AILFT, MagRelax                            
  Christoph Reimann      : Effective Core Potentials                     
  Marius Retegan         : Local ZFS, SOC                                
  Christoph Riplinger    : Optimizer, TS searches, QM/MM, DLPNO-CCSD(T), (RO)-DLPNO pert. Triples 
  Michael Roemelt        : Original ROCIS implementation, recursive CI coupling coefficients
  Masaaki Saitow         : Open-shell DLPNO-CCSD energy and density      
  Barbara Sandhoefer     : DKH picture change effects                    
  Yorick L. A. Schmerwitz: GMF and freeze-and-release deltaSCF, NEB S-IDPP initial path                    
  Kantharuban Sivalingam : CASSCF convergence/infrastructure, NEVPT2, NEVPT3, NEVPT4(SD), FIC-MRCI and CEPA variants
  Bernardo de Souza      : ESD, SOC TD-DFT                               
  Georgi L. Stoychev     : AutoAux, RI-MP2 NMR, DLPNO-MP2 response, X2C  
  Van Anh Tran           : RI-MP2 g-tensors                              
  Willem Van den Heuvel  : Paramagnetic NMR                              
  Zikuan Wang            : NOTCH, Electric field optimization            
  Frank Wennmohs         : Technical directorship and infrastructure     
  Hang Xu                : AUTO-CI-Response properties                   
                                                                         
[FACCTs GmbH]                                                            
  Markus Bursch, Nicolas Foglia, Miquel Garcia-Rates, Ingolf Harden, Hagen Neugebauer, Anastasios Papadopoulos, 
  Christoph Riplinger, Bernardo de Souza, Georgi L. Stoychev                                                    
                                                                 
  APM, various basis sets, CI-OPT, improved COSX, DLPNO-Multilevel,           
  DOCKER, DRACO, updates on ESD, Fragmentator, GOAT, IRC, LR-CPCM, L-BFGS, MBIS, meta-GGA TD-DFT gradient, ML-optimized integration grids, 
  MM, NACMEs, nearIR, NEB, NEB-TS, NL-DFT gradient (VV10), 2- and 3-layer-ONIOM, interface openCOSMO-RS, QMMM,   
  Crystal-QMMM, RESP, rigid body optimization, SF, symmetry and pop. for TD-DFT, various functionals, SOLVATOR                                   
                                                                         
[Other institutions]                                                     
  V. Asgeirsson          : NEB                                           
  Christoph Bannwarth    : sTDA-DFT, sTD-DFT, PBEh-3c, B97-3c, D3        
  Giovanni Bistoni       : ETS/NOCV, ADLD/ADEX, COVALED                  
  Martin Brehm           : Molecular dynamics                            
  Ronald Cardenas        : ETS/NOCV                                      
  Martina Colucci        : COVALED                                       
  Sebastian Ehlert       : rSCAN, r2SCAN, r2SCAN-3c, D4, dhf basis sets  
  Marvin Friede          : D4 for Fr, Ra, Ac-Lr                          
  Lars Goerigk           : TD-DFT with DH, B97 family of functionals     
  Stefan Grimme          : VdW corrections, initial TS optimization, DFT functionals, gCP, sTDA/sTD-DF 
  Waldemar Hujo          : DFT-NL                                        
  H. Jonsson             : NEB                                           
  Holger Kruse           : gCP                                           
  Marcel Mueller         : wB97X-3c, vDZP basis set                      
  Hagen Neugebauer       : wr2SCAN, Native XTB                           
  Gianluca Regni         : ADLD/ADEX                                     
  Tobias Risthaus        : pre 6.0 range-separated hybrid DFT and stability analysis
  Lukas Wittmann         : regularized MP2, r2SCAN double-hybrids, wr2SCAN        
                                                                         
We gratefully acknowledge several colleagues who have allowed us to      
interface, adapt or use parts of their codes:                            
  Ed Valeev, F. Pavosevic, A. Kumar             : LibInt (2-el integral package), F12 methods 
  Garnet Chan, S. Sharma, J. Yang, R. Olivares  : DMRG                   
  Ulf Ekstrom                                   : XCFun DFT Library      
  Mihaly Kallay                                 : mrcc  (arbitrary order and MRCC methods)
  Frank Weinhold                                : gennbo (NPA and NBO analysis)           
  Simon Mueller                                 : openCOSMO-RS                            
  Christopher J. Cramer and Donald G. Truhlar   : smd solvation model                     
  S Lehtola, MJT Oliveira, MAL Marques          : LibXC Library                           
  Liviu Ungur et al                             : ANISO software                          


 Your calculation uses the libint2 library for the computation of 2-el integrals
 For citations please refer to: http://libint.valeyev.net

 Your ORCA version has been built with support for libXC version: 7.0.0
 For citations please refer to: https://libxc.gitlab.io

 This ORCA versions uses:
   CBLAS   interface :  Fast vector & matrix operations
   LAPACKE interface :  Fast linear algebra routines
   SCALAPACK package :  Parallel linear algebra routines
   Shared memory     :  Shared parallel matrices
   BLAS/LAPACK       :  OpenBLAS 0.3.29  USE64BITINT DYNAMIC_ARCH NO_AFFINITY Bulldozer SINGLE_THREADED
        Core in use  :  Bulldozer
   Copyright (c) 2011-2014, The OpenBLAS Project


  ***********************************
  * Starting time: Thu Aug 14 15:36:24 2025
  * Host name:     chromium09
  * Process ID:    231530
  * Working dir.:  /local/scratch/mehlhorn/61913
  ***********************************



***************************************
The coordinates will be read from file: start.xyz
***************************************


Your calculation utilizes the atom-pairwise dispersion correction
with the Becke-Johnson damping scheme (D3BJ)


Warning: RI is on but no J-basis has been assigned. Assigning Def2/J (nothing to worry about!)
================================================================================

----- Orbital basis set information -----
Your calculation utilizes the basis: def2-TZVP
   F. Weigend and R. Ahlrichs, Phys. Chem. Chem. Phys. 7, 3297 (2005).

----- AuxJ basis set information -----
Your calculation utilizes the auxiliary basis: def2/J
   H-Rn: F. Weigend, Phys. Chem. Chem. Phys. 8, 1057 (2006).
   Fr-Lr: K. Eichkorn, F. Weigend, O. Treutler, R. Ahlrichs; Theor. Chem. Acc. 97, 119 (1997).

================================================================================
                                        WARNINGS
                       Please study these warnings very carefully!
================================================================================


WARNING: Geometry Optimization
  ===> : Switching off AutoStart
         For restart on a previous wavefunction, please use MOREAD

================================================================================
                                       INPUT FILE
================================================================================
NAME = run.inp
|  1> # Geometry optimization for (AlH3)n cluster
|  2> 
|  3> %pal nprocs 24  end
|  4> 
|  5> %geom MaxIter 500 end
|  6> 
|  7> 
|  8> ! PBE def2-TZVP
|  9> ! RKS	# closed shell for AlH3
| 10> ! D3    #  dispersion correction
| 11> ! Freq 	# Frequency analysis to check the stabiltity of the structures
| 12> 
| 13> ! NoPop # population analysis not necessary	
| 14> 
| 15> ! DEFGRID3
| 16> ! TightSCF
| 17> ! TightOpt
| 18> 
| 19> ! SmallPrint
| 20> 
| 21> 
| 22> * xyzFile 0 1 start.xyz # only maingroup elements H and Al so there should be no net spin
| 23> 
| 24>                          ****END OF INPUT****
================================================================================

                       *****************************
                       * Geometry Optimization Run *
                       *****************************

Geometry optimization settings:
Update method            Update   .... BFGS
Choice of coordinates    CoordSys .... (2022) Redundant Internals
Initial Hessian          InHess   .... Almloef's Model
Max. no of cycles        MaxIter  .... 500

Convergence Tolerances:
Energy Change            TolE     ....  1.0000e-06 Eh
Max. Gradient            TolMAXG  ....  1.0000e-04 Eh/bohr
RMS Gradient             TolRMSG  ....  3.0000e-05 Eh/bohr
Max. Displacement        TolMAXD  ....  1.0000e-03 bohr
RMS Displacement         TolRMSD  ....  6.0000e-04 bohr
Strict Convergence                .... False

------------------------------------------------------------------------------
                        ORCA OPTIMIZATION COORDINATE SETUP
------------------------------------------------------------------------------

The optimization will be done in redundant internal coordinates (2022)
Making redundant internal coordinates   ...  (2022 redundants) done
Evaluating the initial hessian          ...  (Almloef) done
Evaluating the coordinates              ...  done
Calculating the B-matrix                .... done
Calculating the G-matrix                .... done
The number of degrees of freedom        ....  502

    -----------------------------------------------------------------
                    Redundant Internal Coordinates


    -----------------------------------------------------------------
         Definition                    Initial Value    Approx d2E/dq
    -----------------------------------------------------------------
      1. B(Al  1,Al  0)                  3.2423         0.034014   
      2. B(Al  2,Al  0)                  3.2099         0.038316   
      3. B(Al  3,Al  1)                  3.1016         0.057033   
      4. B(Al  3,Al  2)                  3.1218         0.052952   
      5. B(Al  4,Al  3)                  3.1048         0.056371   
      6. B(Al  4,Al  2)                  2.7231         0.229087   
      7. B(Al  5,Al  3)                  3.2235         0.036452   
      8. B(Al  5,Al  4)                  3.0972         0.057959   
      9. B(Al  6,Al  5)                  2.9627         0.094990   
     10. B(Al  6,Al  3)                  3.1704         0.044294   
     11. B(H   7,Al  0)                  1.5919         0.399202   
     12. B(H   8,Al  0)                  1.5948         0.395064   
     13. B(H   9,Al  1)                  1.5931         0.397568   
     14. B(H  10,Al  1)                  1.5937         0.396668   
     15. B(H  11,Al  0)                  1.7198         0.249608   
     16. B(H  11,Al  1)                  1.7132         0.255671   
     17. B(H  12,Al  2)                  1.7582         0.216716   
     18. B(H  12,Al  0)                  1.7040         0.264509   
     19. B(H  13,Al  2)                  1.5828         0.412893   
     20. B(H  14,Al  4)                  1.9247         0.117557   
     21. B(H  14,Al  2)                  1.6682         0.301622   
     22. B(H  15,Al  5)                  1.6549         0.316818   
     23. B(H  15,Al  4)                  1.9005         0.128511   
     24. B(H  16,Al  4)                  1.6743         0.294933   
     25. B(H  16,Al  3)                  1.8082         0.180344   
     26. B(H  17,Al  4)                  1.6413         0.332976   
     27. B(H  17,Al  2)                  2.0324         0.079153   
     28. B(H  18,Al  4)                  1.5838         0.411292   
     29. B(H  19,Al  6)                  1.7510         0.222524   
     30. B(H  19,Al  5)                  1.6992         0.269213   
     31. B(H  20,Al  6)                  1.5900         0.402108   
     32. B(H  21,Al  6)                  1.5958         0.393632   
     33. B(H  22,Al  6)                  1.6823         0.286450   
     34. B(H  22,Al  3)                  1.7688         0.208468   
     35. B(H  23,Al  3)                  1.7420         0.229995   
     36. B(H  23,Al  1)                  1.7142         0.254802   
     37. B(H  24,Al  3)                  1.7899         0.192882   
     38. B(H  24,Al  2)                  1.6755         0.293685   
     39. B(H  25,Al  3)                  1.5970         0.391892   
     40. B(H  26,Al  5)                  1.6627         0.307774   
     41. B(H  26,Al  3)                  1.8891         0.134005   
     42. B(H  27,Al  5)                  1.5842         0.410718   
     43. A(H   8,Al  0,H  12)          108.0175         0.357129   
     44. A(Al  2,Al  0,H   7)          128.5025         0.300713   
     45. A(Al  1,Al  0,H  11)           19.1483         0.274304   
     46. A(H  11,Al  0,H  12)           98.5126         0.330663   
     47. A(Al  2,Al  0,H  11)           85.2611         0.279367   
     48. A(H   8,Al  0,H  11)          106.8904         0.353633   
     49. A(Al  2,Al  0,H   8)           94.9819         0.300215   
     50. A(Al  2,Al  0,H  12)           22.3749         0.281881   
     51. A(Al  1,Al  0,Al  2)           80.6777         0.236899   
     52. A(Al  1,Al  0,H   8)           88.6876         0.294598   
     53. A(H   7,Al  0,H  12)          107.2632         0.357762   
     54. A(Al  1,Al  0,H  12)           99.0874         0.276752   
     55. A(H   7,Al  0,H   8)          127.2299         0.383308   
     56. A(H   7,Al  0,H  11)          105.2197         0.354258   
     57. A(Al  1,Al  0,H   7)          122.5212         0.295084   
     58. A(Al  3,Al  1,H   9)          127.0393         0.320444   
     59. A(Al  0,Al  1,H   9)          114.9970         0.294893   
     60. A(Al  0,Al  1,H  10)           91.9313         0.294787   
     61. A(Al  3,Al  1,H  11)           73.1149         0.298435   
     62. A(Al  0,Al  1,H  11)           19.2242         0.275314   
     63. A(H  10,Al  1,H  11)          110.1856         0.355319   
     64. A(H   9,Al  1,H  11)          105.7648         0.355455   
     65. A(H   9,Al  1,H  23)          107.1478         0.355250   
     66. A(Al  0,Al  1,H  23)          106.5670         0.275170   
     67. A(H  11,Al  1,H  23)           94.7561         0.329932   
     68. A(Al  3,Al  1,H  10)          100.0224         0.320325   
     69. A(H   9,Al  1,H  10)          127.2076         0.383305   
     70. A(H  10,Al  1,H  23)          106.9630         0.355114   
     71. A(Al  3,Al  1,H  23)           26.4087         0.298274   
     72. A(Al  0,Al  1,Al  3)           81.5293         0.250832   
     73. A(H  13,Al  2,H  14)          125.3474         0.367990   
     74. A(H  12,Al  2,H  17)          166.1610         0.267125   
     75. A(H  13,Al  2,H  17)           88.7332         0.295105   
     76. A(Al  3,Al  2,H  14)           78.5036         0.302795   
     77. A(H  14,Al  2,H  17)           78.4281         0.280965   
     78. A(H  14,Al  2,H  24)          104.5550         0.347286   
     79. A(Al  3,Al  2,H  13)          150.4596         0.318543   
     80. A(Al  0,Al  2,H  17)          153.8482         0.235790   
     81. A(Al  0,Al  2,Al  3)           81.7398         0.252483   
     82. A(Al  3,Al  2,H  24)           26.6579         0.301509   
     83. A(Al  3,Al  2,H  12)           87.7934         0.287382   
     84. A(Al  3,Al  2,H  17)           78.7747         0.246942   
     85. A(H  17,Al  2,H  24)           78.7752         0.279809   
     86. A(Al  0,Al  2,H  13)          100.0331         0.302336   
     87. A(Al  4,Al  2,H  12)          132.6944         0.365363   
     88. A(H  12,Al  2,H  24)           90.7332         0.328665   
     89. A(Al  4,Al  2,H  17)           36.8962         0.309026   
     90. A(Al  4,Al  2,H  24)           79.8821         0.385043   
     91. A(Al  3,Al  2,Al  4)           63.7442         0.334048   
     92. A(Al  0,Al  2,H  12)           21.6490         0.273374   
     93. A(Al  0,Al  2,H  14)          114.5199         0.287699   
     94. A(H  13,Al  2,H  24)          124.7854         0.366311   
     95. A(Al  4,Al  2,H  13)          118.7039         0.408774   
     96. A(H  12,Al  2,H  13)          104.7536         0.347877   
     97. A(Al  4,Al  2,H  14)           44.3786         0.386835   
     98. A(Al  0,Al  2,Al  4)          141.1982         0.316746   
     99. A(Al  0,Al  2,H  24)           75.9888         0.286504   
    100. A(H  12,Al  2,H  14)           95.7662         0.330116   
    101. A(Al  1,Al  3,H  26)           89.7649         0.269946   
    102. A(H  23,Al  3,H  25)          104.0137         0.348303   
    103. A(Al  1,Al  3,Al  4)          131.0545         0.270436   
    104. A(Al  4,Al  3,H  22)          109.0850         0.288452   
    105. A(Al  2,Al  3,H  22)          160.5827         0.285647   
    106. A(Al  1,Al  3,H  22)          114.7245         0.288980   
    107. A(Al  6,Al  3,H  26)           64.1951         0.259884   
    108. A(Al  2,Al  3,Al  5)           94.0221         0.250649   
    109. A(H  16,Al  3,H  22)           86.5731         0.301744   
    110. A(H  22,Al  3,H  25)           97.0107         0.342599   
    111. A(Al  6,Al  3,H  22)           22.6566         0.277860   
    112. A(Al  4,Al  3,Al  5)           58.5701         0.252954   
    113. A(H  24,Al  3,H  26)           76.1553         0.284446   
    114. A(Al  5,Al  3,H  22)           75.5311         0.269712   
    115. A(Al  5,Al  3,H  24)           89.1191         0.266561   
    116. A(Al  6,Al  3,H  24)          140.1963         0.274567   
    117. A(Al  4,Al  3,H  24)           67.6640         0.284975   
    118. A(H  23,Al  3,H  24)           85.2461         0.309864   
    119. A(H  25,Al  3,H  26)          174.2386         0.318461   
    120. A(H  22,Al  3,H  24)          162.8393         0.305005   
    121. A(Al  2,Al  3,H  24)           24.8331         0.282219   
    122. A(H  16,Al  3,H  26)           82.0361         0.281495   
    123. A(Al  5,Al  3,H  26)           23.1917         0.252511   
    124. A(Al  4,Al  3,H  26)           71.6381         0.269468   
    125. A(Al  2,Al  3,H  26)           89.5860         0.266930   
    126. A(H  24,Al  3,H  25)          100.1362         0.338178   
    127. A(H  22,Al  3,H  26)           86.8010         0.287913   
    128. A(H  23,Al  3,H  26)           80.2346         0.292387   
    129. A(Al  1,Al  3,Al  5)          112.8417         0.253388   
    130. A(Al  2,Al  3,H  25)           85.3923         0.315847   
    131. A(Al  1,Al  3,H  25)           92.5402         0.319691   
    132. A(Al  6,Al  3,H  25)          119.6656         0.306864   
    133. A(Al  4,Al  3,H  25)          102.9471         0.319083   
    134. A(H  16,Al  3,H  23)          162.0967         0.306529   
    135. A(Al  5,Al  3,Al  6)           55.2023         0.244247   
    136. A(H  16,Al  3,H  24)           92.9352         0.298035   
    137. A(Al  6,Al  3,H  16)           85.2552         0.271766   
    138. A(Al  1,Al  3,Al  2)           84.3052         0.267884   
    139. A(Al  5,Al  3,H  16)           61.7135         0.263881   
    140. A(Al  1,Al  3,H  24)           63.9789         0.285493   
    141. A(Al  4,Al  3,H  16)           25.8363         0.282016   
    142. A(Al  2,Al  3,H  16)           74.0298         0.279302   
    143. A(Al  1,Al  3,H  16)          156.8079         0.282527   
    144. A(Al  4,Al  3,Al  6)          101.2642         0.260347   
    145. A(Al  2,Al  3,Al  6)          148.8038         0.257937   
    146. A(Al  2,Al  3,Al  4)           51.8669         0.267412   
    147. A(H  16,Al  3,H  25)           93.8457         0.334416   
    148. A(Al  6,Al  3,H  23)           84.8220         0.282108   
    149. A(Al  5,Al  3,H  23)          100.4179         0.273777   
    150. A(Al  4,Al  3,H  23)          144.5655         0.292938   
    151. A(Al  1,Al  3,H  23)           25.9542         0.293478   
    152. A(Al  5,Al  3,H  25)          154.4596         0.297464   
    153. A(Al  1,Al  3,Al  6)          110.6659         0.260800   
    154. A(H  22,Al  3,H  23)           89.9663         0.313783   
    155. A(Al  2,Al  3,H  23)          108.2171         0.290070   
    156. A(Al  5,Al  4,H  14)          135.6811         0.265303   
    157. A(Al  3,Al  4,H  14)           75.9997         0.264198   
    158. A(Al  2,Al  4,H  14)           37.3148         0.329633   
    159. A(Al  3,Al  4,Al  5)           62.6300         0.271099   
    160. A(Al  3,Al  4,H  17)           84.7789         0.310753   
    161. A(Al  2,Al  4,Al  5)          105.6135         0.339112   
    162. A(H  17,Al  4,H  18)          127.4283         0.374055   
    163. A(H  16,Al  4,H  18)          120.1762         0.366334   
    164. A(H  15,Al  4,H  18)           97.2913         0.318797   
    165. A(H  14,Al  4,H  18)           99.7671         0.314209   
    166. A(Al  5,Al  4,H  18)          123.4601         0.323081   
    167. A(Al  3,Al  4,H  18)          147.1617         0.321613   
    168. A(Al  2,Al  4,H  18)          129.6468         0.408493   
    169. A(H  16,Al  4,H  17)          112.3735         0.353386   
    170. A(H  14,Al  4,H  17)           82.3133         0.303695   
    171. A(Al  5,Al  4,H  17)           78.9594         0.312153   
    172. A(H  15,Al  4,H  17)           88.9767         0.308069   
    173. A(H  15,Al  4,H  16)           84.2148         0.302135   
    174. A(H  14,Al  4,H  16)           85.4522         0.297880   
    175. A(Al  5,Al  4,H  16)           65.7483         0.306108   
    176. A(Al  3,Al  4,H  16)           28.0766         0.304747   
    177. A(Al  2,Al  4,H  16)           88.0546         0.385327   
    178. A(Al  2,Al  4,Al  3)           64.3888         0.337544   
    179. A(Al  2,Al  4,H  17)           48.0234         0.393577   
    180. A(H  14,Al  4,H  15)          162.8173         0.262077   
    181. A(Al  5,Al  4,H  15)           27.2479         0.268894   
    182. A(Al  3,Al  4,H  15)           88.5239         0.267766   
    183. A(Al  2,Al  4,H  15)          128.4498         0.334534   
    184. A(Al  3,Al  5,Al  4)           58.7999         0.253989   
    185. A(H  15,Al  5,H  19)           98.7566         0.345083   
    186. A(Al  6,Al  5,H  19)           31.3450         0.326831   
    187. A(Al  4,Al  5,H  19)          101.6764         0.301670   
    188. A(Al  3,Al  5,H  19)           81.6141         0.280480   
    189. A(H  26,Al  5,H  27)          118.0667         0.368933   
    190. A(H  15,Al  5,H  27)          117.7606         0.370774   
    191. A(Al  6,Al  5,H  27)          115.4344         0.350692   
    192. A(Al  4,Al  5,H  27)          138.2096         0.323007   
    193. A(Al  3,Al  5,H  27)          144.3140         0.299690   
    194. A(H  19,Al  5,H  26)           99.3918         0.343410   
    195. A(H  15,Al  5,H  26)          105.6045         0.352960   
    196. A(Al  6,Al  5,H  26)           71.4362         0.334147   
    197. A(Al  4,Al  5,H  26)           73.9684         0.308213   
    198. A(Al  3,Al  5,H  26)           26.5780         0.286370   
    199. A(Al  4,Al  5,Al  6)          106.3494         0.293928   
    200. A(Al  3,Al  5,Al  6)           61.4898         0.273509   
    201. A(Al  6,Al  5,H  15)          119.3349         0.335760   
    202. A(Al  4,Al  5,H  15)           31.7218         0.309654   
    203. A(Al  3,Al  5,H  15)           89.0241         0.287668   
    204. A(H  19,Al  5,H  27)          114.1310         0.360579   
    205. A(H  21,Al  6,H  22)          108.6860         0.361785   
    206. A(H  20,Al  6,H  22)          109.8717         0.363103   
    207. A(H  19,Al  6,H  22)           96.8842         0.328747   
    208. A(Al  5,Al  6,H  22)           84.6019         0.330196   
    209. A(Al  3,Al  6,H  22)           23.8920         0.291944   
    210. A(H  20,Al  6,H  21)          128.7655         0.383550   
    211. A(H  19,Al  6,H  21)          104.1406         0.346630   
    212. A(Al  5,Al  6,H  21)           82.0585         0.348187   
    213. A(Al  3,Al  6,H  21)           93.8566         0.307082   
    214. A(H  19,Al  6,H  20)          103.3473         0.347876   
    215. A(Al  5,Al  6,H  20)          133.6603         0.349440   
    216. A(Al  3,Al  6,H  20)          132.0432         0.308137   
    217. A(Al  5,Al  6,H  19)           30.3173         0.316796   
    218. A(Al  3,Al  6,H  19)           82.5619         0.280670   
    219. A(Al  3,Al  6,Al  5)           63.3079         0.281828   
    220. A(Al  0,H  11,Al  1)          141.6275         0.328811   
    221. A(Al  0,H  12,Al  2)          135.9761         0.323056   
    222. A(Al  2,H  14,Al  4)           98.3066         0.298943   
    223. A(Al  4,H  15,Al  5)          121.0303         0.305616   
    224. A(Al  3,H  16,Al  4)          126.0871         0.319125   
    225. A(Al  2,H  17,Al  4)           95.0804         0.285310   
    226. A(Al  5,H  19,Al  6)          118.3377         0.325403   
    227. A(Al  3,H  22,Al  6)          133.4514         0.325233   
    228. A(Al  1,H  23,Al  3)          127.6371         0.324229   
    229. A(Al  2,H  24,Al  3)          128.5090         0.322428   
    230. A(Al  3,H  26,Al  5)          130.2304         0.306249   
    231. D(H   9,Al  1,Al  0,H   7)     37.2531         0.010000   
    232. D(Al  3,Al  1,Al  0,H   8)    135.5260         0.010000   
    233. D(Al  3,Al  1,Al  0,H  11)    -62.3045         0.010000   
    234. D(H   9,Al  1,Al  0,H   8)    -97.4240         0.010000   
    235. D(Al  3,Al  1,Al  0,Al  2)     40.2596         0.010000   
    236. D(H   9,Al  1,Al  0,Al  2)    167.3095         0.010000   
    237. D(H   9,Al  1,Al  0,H  12)    154.5374         0.010000   
    238. D(H   9,Al  1,Al  0,H  11)     64.7455         0.010000   
    239. D(Al  3,Al  1,Al  0,H   7)    -89.7969         0.010000   
    240. D(Al  3,Al  1,Al  0,H  12)     27.4875         0.010000   
    241. D(Al  4,Al  2,Al  0,Al  1)    -66.5505         0.010000   
    242. D(Al  3,Al  2,Al  0,H  12)    105.0874         0.010000   
    243. D(H  12,Al  2,Al  0,H   7)    -20.5650         0.010000   
    244. D(Al  3,Al  2,Al  0,H  11)    -21.1812         0.010000   
    245. D(Al  4,Al  2,Al  0,H   8)   -154.3952         0.010000   
    246. D(H  12,Al  2,Al  0,Al  1)   -145.0076         0.010000   
    247. D(Al  4,Al  2,Al  0,H  12)     78.4572         0.010000   
    248. D(Al  4,Al  2,Al  0,H  11)    -47.8114         0.010000   
    249. D(Al  3,Al  2,Al  0,H   7)     84.5224         0.010000   
    250. D(Al  3,Al  2,Al  0,H   8)   -127.7650         0.010000   
    251. D(Al  3,Al  2,Al  0,Al  1)    -39.9202         0.010000   
    252. D(Al  4,Al  2,Al  0,H   7)     57.8922         0.010000   
    253. D(Al  4,Al  3,Al  1,H   9)    179.2395         0.010000   
    254. D(Al  4,Al  3,Al  2,H  13)    102.4611         0.010000   
    255. D(Al  4,Al  3,Al  2,H  24)    123.0906         0.010000   
    256. D(Al  2,Al  3,Al  1,H  11)    -58.9592         0.010000   
    257. D(Al  5,Al  3,Al  2,H  12)    175.1707         0.010000   
    258. D(Al  2,Al  3,Al  1,H  23)    157.3277         0.010000   
    259. D(Al  5,Al  3,Al  2,H  13)     58.4971         0.010000   
    260. D(Al  4,Al  3,Al  2,H  12)   -140.8653         0.010000   
    261. D(Al  5,Al  3,Al  2,Al  0)    154.2873         0.010000   
    262. D(Al  1,Al  3,Al  2,H  24)    -33.4590         0.010000   
    263. D(Al  4,Al  3,Al  1,H  11)    -83.4850         0.010000   
    264. D(Al  4,Al  3,Al  2,H  14)    -44.5246         0.010000   
    265. D(Al  4,Al  3,Al  1,Al  0)    -65.7463         0.010000   
    266. D(Al  1,Al  3,Al  2,H  13)    -54.0885         0.010000   
    267. D(Al  5,Al  3,Al  1,H   9)    111.7892         0.010000   
    268. D(Al  2,Al  3,Al  1,Al  0)    -41.2205         0.010000   
    269. D(Al  5,Al  3,Al  1,H  23)     65.3516         0.010000   
    270. D(Al  1,Al  3,Al  2,Al  0)     41.7017         0.010000   
    271. D(Al  5,Al  3,Al  1,H  11)   -150.9353         0.010000   
    272. D(Al  1,Al  3,Al  2,H  17)   -120.7650         0.010000   
    273. D(Al  1,Al  3,Al  2,H  14)    158.9258         0.010000   
    274. D(Al  4,Al  3,Al  1,H  10)     24.7281         0.010000   
    275. D(Al  4,Al  3,Al  2,H  17)     35.7846         0.010000   
    276. D(Al  2,Al  3,Al  1,H  10)     49.2539         0.010000   
    277. D(Al  5,Al  3,Al  1,H  10)    -42.7222         0.010000   
    278. D(Al  4,Al  3,Al  2,Al  0)   -161.7487         0.010000   
    279. D(Al  1,Al  3,Al  2,H  12)     62.5852         0.010000   
    280. D(Al  5,Al  3,Al  2,Al  4)    -43.9640         0.010000   
    281. D(Al  5,Al  3,Al  1,Al  0)   -133.1966         0.010000   
    282. D(Al  4,Al  3,Al  1,H  23)    132.8019         0.010000   
    283. D(Al  1,Al  3,Al  2,Al  4)   -156.5496         0.010000   
    284. D(Al  2,Al  3,Al  1,H   9)   -156.2347         0.010000   
    285. D(Al  5,Al  4,Al  2,Al  0)     78.0904         0.010000   
    286. D(Al  3,Al  4,Al  2,H  17)   -107.1886         0.010000   
    287. D(Al  5,Al  4,Al  2,H  12)    107.5490         0.010000   
    288. D(Al  3,Al  4,Al  2,H  14)    100.7390         0.010000   
    289. D(Al  5,Al  4,Al  2,Al  3)     48.4463         0.010000   
    290. D(Al  3,Al  4,Al  2,H  12)     59.1026         0.010000   
    291. D(Al  3,Al  4,Al  2,Al  0)     29.6441         0.010000   
    292. D(Al  3,Al  4,Al  2,H  13)   -146.7103         0.010000   
    293. D(Al  5,Al  4,Al  3,H  24)   -103.3918         0.010000   
    294. D(Al  5,Al  4,Al  3,H  22)     58.5814         0.010000   
    295. D(Al  5,Al  4,Al  3,H  25)    160.8247         0.010000   
    296. D(Al  5,Al  4,Al  3,Al  6)     36.5187         0.010000   
    297. D(Al  5,Al  4,Al  3,H  16)     89.2991         0.010000   
    298. D(Al  5,Al  4,Al  3,Al  1)    -94.0734         0.010000   
    299. D(Al  2,Al  4,Al  3,H  26)    104.5301         0.010000   
    300. D(Al  2,Al  4,Al  3,H  25)    -73.4250         0.010000   
    301. D(Al  2,Al  4,Al  3,H  24)     22.3585         0.010000   
    302. D(Al  2,Al  4,Al  3,H  23)     65.3087         0.010000   
    303. D(Al  2,Al  4,Al  3,H  22)   -175.6684         0.010000   
    304. D(Al  2,Al  4,Al  3,H  16)   -144.9506         0.010000   
    305. D(Al  2,Al  4,Al  3,Al  6)    162.2690         0.010000   
    306. D(Al  2,Al  4,Al  3,Al  5)    125.7503         0.010000   
    307. D(H  14,Al  4,Al  2,Al  0)    -71.0950         0.010000   
    308. D(Al  5,Al  4,Al  3,Al  2)   -125.7503         0.010000   
    309. D(Al  2,Al  4,Al  3,Al  1)     31.6769         0.010000   
    310. D(Al  5,Al  4,Al  2,H  17)    -58.7422         0.010000   
    311. D(Al  5,Al  4,Al  2,H  24)     25.9992         0.010000   
    312. D(Al  5,Al  4,Al  3,H  23)    -60.4416         0.010000   
    313. D(Al  5,Al  4,Al  2,H  14)    149.1854         0.010000   
    314. D(Al  5,Al  4,Al  2,H  13)    -98.2640         0.010000   
    315. D(Al  3,Al  4,Al  2,H  24)    -22.4472         0.010000   
    316. D(Al  6,Al  5,Al  4,H  17)   -130.4112         0.010000   
    317. D(Al  6,Al  5,Al  4,H  16)     -9.5301         0.010000   
    318. D(Al  6,Al  5,Al  4,H  14)    -63.6692         0.010000   
    319. D(Al  6,Al  5,Al  4,Al  3)    -40.6057         0.010000   
    320. D(Al  6,Al  5,Al  4,Al  2)    -90.0587         0.010000   
    321. D(Al  3,Al  5,Al  4,H  17)    -89.8055         0.010000   
    322. D(Al  3,Al  5,Al  4,H  16)     31.0756         0.010000   
    323. D(Al  6,Al  5,Al  4,H  18)    101.7608         0.010000   
    324. D(Al  3,Al  5,Al  4,H  15)    160.3704         0.010000   
    325. D(Al  3,Al  5,Al  4,Al  2)    -49.4530         0.010000   
    326. D(Al  6,Al  5,Al  3,H  24)   -161.1450         0.010000   
    327. D(Al  6,Al  5,Al  3,H  23)    -76.1419         0.010000   
    328. D(Al  3,Al  5,Al  4,H  14)    -23.0635         0.010000   
    329. D(Al  6,Al  5,Al  3,H  22)     11.1035         0.010000   
    330. D(Al  6,Al  5,Al  3,H  16)    105.0460         0.010000   
    331. D(Al  6,Al  5,Al  3,Al  4)    134.7066         0.010000   
    332. D(Al  6,Al  5,Al  3,Al  2)    174.4940         0.010000   
    333. D(Al  6,Al  5,Al  3,Al  1)    -99.9981         0.010000   
    334. D(Al  4,Al  5,Al  3,H  26)    119.2712         0.010000   
    335. D(Al  4,Al  5,Al  3,H  25)    -47.9412         0.010000   
    336. D(Al  3,Al  5,Al  4,H  18)    142.3666         0.010000   
    337. D(Al  4,Al  5,Al  3,H  24)     64.1484         0.010000   
    338. D(Al  4,Al  5,Al  3,H  23)    149.1516         0.010000   
    339. D(Al  4,Al  5,Al  3,H  16)    -29.6606         0.010000   
    340. D(Al  6,Al  5,Al  4,H  15)    119.7647         0.010000   
    341. D(Al  4,Al  5,Al  3,Al  6)   -134.7066         0.010000   
    342. D(Al  4,Al  5,Al  3,Al  2)     39.7874         0.010000   
    343. D(Al  4,Al  5,Al  3,Al  1)    125.2954         0.010000   
    344. D(Al  4,Al  5,Al  3,H  22)   -123.6031         0.010000   
    345. D(H  19,Al  6,Al  3,Al  5)     24.6642         0.010000   
    346. D(H  19,Al  6,Al  3,Al  1)    128.7338         0.010000   
    347. D(H  19,Al  6,Al  3,Al  4)    -13.5318         0.010000   
    348. D(Al  5,Al  6,Al  3,H  26)     24.8621         0.010000   
    349. D(Al  5,Al  6,Al  3,H  25)   -150.3043         0.010000   
    350. D(Al  5,Al  6,Al  3,H  23)    106.5041         0.010000   
    351. D(Al  5,Al  6,Al  3,H  22)   -151.0474         0.010000   
    352. D(Al  5,Al  6,Al  3,H  16)    -58.5752         0.010000   
    353. D(Al  5,Al  6,Al  3,Al  4)    -38.1959         0.010000   
    354. D(H  19,Al  6,Al  3,Al  2)     14.0155         0.010000   
    355. D(Al  5,Al  6,Al  3,Al  2)    -10.6486         0.010000   
    356. D(Al  5,Al  6,Al  3,H  24)     30.3164         0.010000   
    357. D(Al  5,Al  6,Al  3,Al  1)    104.0697         0.010000   
    358. D(H  20,Al  6,Al  5,Al  3)   -123.8013         0.010000   
    359. D(H  19,Al  6,Al  5,H  26)   -151.9201         0.010000   
    360. D(H  19,Al  6,Al  5,H  15)    -54.0592         0.010000   
    361. D(H  19,Al  6,Al  5,Al  4)    -85.6308         0.010000   
    362. D(Al  3,Al  6,Al  5,H  27)   -139.9243         0.010000   
    363. D(Al  3,Al  6,Al  5,H  26)    -26.9773         0.010000   
    364. D(H  19,Al  6,Al  5,Al  3)   -124.9427         0.010000   
    365. D(Al  3,Al  6,Al  5,H  19)    124.9427         0.010000   
    366. D(Al  3,Al  6,Al  5,H  15)     70.8835         0.010000   
    367. D(Al  3,Al  6,Al  5,Al  4)     39.3119         0.010000   
    368. D(H  19,Al  6,Al  5,H  27)     95.1330         0.010000   
    369. D(H  19,Al  6,Al  3,H  22)   -126.3832         0.010000   
    370. D(H  19,Al  6,Al  3,H  16)    -33.9110         0.010000   
    371. D(Al  0,H  11,Al  1,H  23)    129.0777         0.010000   
    372. D(Al  0,H  11,Al  1,H  10)     19.0479         0.010000   
    373. D(Al  0,H  11,Al  1,H   9)   -121.5984         0.010000   
    374. D(Al  0,H  11,Al  1,Al  3)    113.7619         0.010000   
    375. D(Al  1,H  11,Al  0,H  12)    -93.1993         0.010000   
    376. D(Al  1,H  11,Al  0,H   8)     18.6582         0.010000   
    377. D(Al  1,H  11,Al  0,H   7)    156.2096         0.010000   
    378. D(Al  1,H  11,Al  0,Al  2)    -75.1201         0.010000   
    379. D(Al  0,H  12,Al  2,H  24)    -46.4834         0.010000   
    380. D(Al  0,H  12,Al  2,H  17)    -86.8490         0.010000   
    381. D(Al  0,H  12,Al  2,H  14)   -151.1919         0.010000   
    382. D(Al  0,H  12,Al  2,H  13)     79.9133         0.010000   
    383. D(Al  0,H  12,Al  2,Al  4)   -123.3493         0.010000   
    384. D(Al  0,H  12,Al  2,Al  3)    -72.9839         0.010000   
    385. D(Al  2,H  12,Al  0,H  11)     54.3357         0.010000   
    386. D(Al  2,H  12,Al  0,H   8)    -56.6178         0.010000   
    387. D(Al  2,H  12,Al  0,H   7)    163.2698         0.010000   
    388. D(Al  2,H  12,Al  0,Al  1)     34.9657         0.010000   
    389. D(Al  2,H  14,Al  4,H  18)    147.3724         0.010000   
    390. D(Al  2,H  14,Al  4,H  17)     20.5694         0.010000   
    391. D(Al  2,H  14,Al  4,H  16)    -92.7616         0.010000   
    392. D(Al  2,H  14,Al  4,H  15)    -39.5970         0.010000   
    393. D(Al  2,H  14,Al  4,Al  5)    -44.9233         0.010000   
    394. D(Al  2,H  14,Al  4,Al  3)    -65.9343         0.010000   
    395. D(Al  4,H  14,Al  2,H  24)     58.3423         0.010000   
    396. D(Al  4,H  14,Al  2,H  17)    -16.6796         0.010000   
    397. D(Al  4,H  14,Al  2,H  13)    -96.7232         0.010000   
    398. D(Al  4,H  14,Al  2,H  12)    150.6064         0.010000   
    399. D(Al  4,H  14,Al  2,Al  3)     64.0480         0.010000   
    400. D(Al  4,H  14,Al  2,Al  0)    139.3386         0.010000   
    401. D(Al  4,H  15,Al  5,H  27)    138.6710         0.010000   
    402. D(Al  4,H  15,Al  5,H  26)      4.3201         0.010000   
    403. D(Al  4,H  15,Al  5,H  19)    -98.0630         0.010000   
    404. D(Al  4,H  15,Al  5,Al  6)    -72.8411         0.010000   
    405. D(Al  4,H  15,Al  5,Al  3)    -16.7018         0.010000   
    406. D(Al  5,H  15,Al  4,H  18)    164.9324         0.010000   
    407. D(Al  5,H  15,Al  4,H  17)    -67.4394         0.010000   
    408. D(Al  5,H  15,Al  4,H  16)     45.1709         0.010000   
    409. D(Al  5,H  15,Al  4,H  14)     -8.1435         0.010000   
    410. D(Al  5,H  15,Al  4,Al  3)     17.3634         0.010000   
    411. D(Al  5,H  15,Al  4,Al  2)    -37.7053         0.010000   
    412. D(Al  3,H  16,Al  4,H  18)    167.1601         0.010000   
    413. D(Al  3,H  16,Al  4,H  17)    -11.2579         0.010000   
    414. D(Al  3,H  16,Al  4,H  15)    -97.7540         0.010000   
    415. D(Al  3,H  16,Al  4,H  14)     68.4980         0.010000   
    416. D(Al  3,H  16,Al  4,Al  5)    -76.8909         0.010000   
    417. D(Al  3,H  16,Al  4,Al  2)     31.2087         0.010000   
    418. D(Al  4,H  16,Al  3,H  26)     63.8347         0.010000   
    419. D(Al  4,H  16,Al  3,H  25)   -112.1137         0.010000   
    420. D(Al  4,H  16,Al  3,H  24)    -11.7403         0.010000   
    421. D(Al  4,H  16,Al  3,H  23)     71.8734         0.010000   
    422. D(Al  4,H  16,Al  3,H  22)    151.0794         0.010000   
    423. D(Al  4,H  16,Al  3,Al  6)    128.4023         0.010000   
    424. D(Al  4,H  16,Al  3,Al  5)     75.6764         0.010000   
    425. D(Al  4,H  16,Al  3,Al  2)    -28.0247         0.010000   
    426. D(Al  4,H  16,Al  3,Al  1)     -6.4678         0.010000   
    427. D(Al  2,H  17,Al  4,H  18)   -113.0938         0.010000   
    428. D(Al  2,H  17,Al  4,H  15)    148.5009         0.010000   
    429. D(Al  2,H  17,Al  4,H  14)    -16.6479         0.010000   
    430. D(Al  2,H  17,Al  4,Al  5)    122.9840         0.010000   
    431. D(Al  2,H  17,Al  4,Al  3)     59.8899         0.010000   
    432. D(Al  4,H  17,Al  2,H  24)    -88.0537         0.010000   
    433. D(Al  4,H  17,Al  2,H  14)     19.5338         0.010000   
    434. D(Al  4,H  17,Al  2,H  13)    146.0613         0.010000   
    435. D(Al  4,H  17,Al  2,H  12)    -46.7357         0.010000   
    436. D(Al  2,H  17,Al  4,H  16)     65.1839         0.010000   
    437. D(Al  4,H  17,Al  2,Al  3)    -60.8660         0.010000   
    438. D(Al  4,H  17,Al  2,Al  0)   -103.4309         0.010000   
    439. D(Al  5,H  19,Al  6,H  22)    -66.7846         0.010000   
    440. D(Al  5,H  19,Al  6,H  21)     44.5128         0.010000   
    441. D(Al  5,H  19,Al  6,H  20)   -179.1513         0.010000   
    442. D(Al  5,H  19,Al  6,Al  3)    -47.6110         0.010000   
    443. D(Al  6,H  19,Al  5,H  27)    -99.7408         0.010000   
    444. D(Al  6,H  19,Al  5,H  26)     26.8897         0.010000   
    445. D(Al  6,H  19,Al  5,H  15)    134.4280         0.010000   
    446. D(Al  6,H  19,Al  5,Al  4)    102.3145         0.010000   
    447. D(Al  6,H  19,Al  5,Al  3)     46.7276         0.010000   
    448. D(Al  3,H  22,Al  6,H  21)    -53.9712         0.010000   
    449. D(Al  3,H  22,Al  6,H  20)    160.4337         0.010000   
    450. D(Al  3,H  22,Al  6,H  19)     53.5225         0.010000   
    451. D(Al  3,H  22,Al  6,Al  5)     25.7487         0.010000   
    452. D(Al  6,H  22,Al  3,H  26)     -3.6878         0.010000   
    453. D(Al  6,H  22,Al  3,H  25)   -179.3495         0.010000   
    454. D(Al  6,H  22,Al  3,H  24)      2.9600         0.010000   
    455. D(Al  6,H  22,Al  3,H  23)     76.5333         0.010000   
    456. D(Al  6,H  22,Al  3,H  16)    -85.8906         0.010000   
    457. D(Al  6,H  22,Al  3,Al  5)    -24.2387         0.010000   
    458. D(Al  6,H  22,Al  3,Al  4)    -73.0047         0.010000   
    459. D(Al  6,H  22,Al  3,Al  2)    -83.2990         0.010000   
    460. D(Al  6,H  22,Al  3,Al  1)     84.5781         0.010000   
    461. D(Al  1,H  23,Al  3,H  26)   -110.1255         0.010000   
    462. D(Al  1,H  23,Al  3,H  25)     65.8964         0.010000   
    463. D(Al  1,H  23,Al  3,H  24)    -33.3835         0.010000   
    464. D(Al  1,H  23,Al  3,H  22)    163.1148         0.010000   
    465. D(Al  1,H  23,Al  3,H  16)   -118.2040         0.010000   
    466. D(Al  1,H  23,Al  3,Al  6)   -174.7898         0.010000   
    467. D(Al  1,H  23,Al  3,Al  5)   -121.6084         0.010000   
    468. D(Al  1,H  23,Al  3,Al  4)    -72.6121         0.010000   
    469. D(Al  1,H  23,Al  3,Al  2)    -23.8157         0.010000   
    470. D(Al  3,H  23,Al  1,H  11)    -34.6298         0.010000   
    471. D(Al  3,H  23,Al  1,H  10)     78.1620         0.010000   
    472. D(Al  3,H  23,Al  1,H   9)   -142.7482         0.010000   
    473. D(Al  3,H  23,Al  1,Al  0)    -19.1632         0.010000   
    474. D(Al  2,H  24,Al  3,H  16)    -39.9340         0.010000   
    475. D(Al  2,H  24,Al  3,Al  6)   -126.0434         0.010000   
    476. D(Al  2,H  24,Al  3,Al  5)   -101.5520         0.010000   
    477. D(Al  2,H  24,Al  3,Al  4)    -45.4352         0.010000   
    478. D(Al  2,H  24,Al  3,Al  1)    142.3740         0.010000   
    479. D(Al  3,H  24,Al  2,H  17)     87.3040         0.010000   
    480. D(Al  3,H  24,Al  2,H  14)     12.5413         0.010000   
    481. D(Al  3,H  24,Al  2,H  13)    167.7894         0.010000   
    482. D(Al  3,H  24,Al  2,H  12)    -83.6088         0.010000   
    483. D(Al  3,H  24,Al  2,Al  4)     49.7507         0.010000   
    484. D(Al  2,H  24,Al  3,H  22)   -127.8240         0.010000   
    485. D(Al  3,H  24,Al  2,Al  0)    -99.6146         0.010000   
    486. D(Al  2,H  24,Al  3,H  26)   -120.9871         0.010000   
    487. D(Al  2,H  24,Al  3,H  25)     54.5046         0.010000   
    488. D(Al  2,H  24,Al  3,H  23)    157.9180         0.010000   
    489. D(Al  3,H  26,Al  5,H  27)    172.5271         0.010000   
    490. D(Al  3,H  26,Al  5,H  15)    -53.2883         0.010000   
    491. D(Al  3,H  26,Al  5,Al  6)     62.9934         0.010000   
    492. D(Al  3,H  26,Al  5,Al  4)    -50.9265         0.010000   
    493. D(Al  5,H  26,Al  3,H  25)     71.9206         0.010000   
    494. D(Al  5,H  26,Al  3,H  24)    122.3467         0.010000   
    495. D(Al  5,H  26,Al  3,H  23)   -150.1863         0.010000   
    496. D(Al  5,H  26,Al  3,H  22)    -59.6694         0.010000   
    497. D(Al  5,H  26,Al  3,H  16)     27.3136         0.010000   
    498. D(Al  5,H  26,Al  3,Al  6)    -61.2464         0.010000   
    499. D(Al  5,H  26,Al  3,Al  4)     51.6521         0.010000   
    500. D(Al  3,H  26,Al  5,H  19)     48.6234         0.010000   
    501. D(Al  5,H  26,Al  3,Al  2)    101.2435         0.010000   
    502. D(Al  5,H  26,Al  3,Al  1)   -174.4498         0.010000   
    -----------------------------------------------------------------

Number of atoms                         .... 28
Number of degrees of freedom            .... 502


         *************************************************************
         *                GEOMETRY OPTIMIZATION CYCLE   1            *
         *************************************************************
---------------------------------
CARTESIAN COORDINATES (ANGSTROEM)
---------------------------------
  Al     1.597155   -4.050784    0.590695
  Al     1.615901   -4.040804    3.832934
  Al     0.866650   -0.967788    1.105404
  Al    -0.857512   -2.223830    3.384754
  Al    -1.109837    0.603051    2.125855
  Al    -0.801378    0.437139    5.203218
  Al    -2.471722   -1.844691    6.087006
  H      0.792774   -5.131677   -0.257191
  H      3.175699   -3.825405    0.617400
  H      1.637420   -5.482451    4.510441
  H      2.765755   -2.938206    3.876600
  H      1.099342   -4.292654    2.218966
  H      0.853736   -2.541396    0.321214
  H      2.203519   -0.281068    0.609089
  H     -0.673796   -0.533412    0.634916
  H     -1.264931    1.316781    3.880378
  H     -1.772526   -0.773873    2.810213
  H      0.523313    0.653984    2.281252
  H     -2.040772    1.656975    1.397102
  H     -2.325822   -0.150199    5.670462
  H     -4.014308   -2.005058    6.437291
  H     -1.202393   -2.129661    7.011157
  H     -2.167697   -2.457090    4.549923
  H      0.166218   -3.271434    4.327728
  H      0.661660   -1.688877    2.603836
  H     -1.439696   -3.177063    2.243385
  H     -0.143559   -0.965539    4.599499
  H     -0.017834    1.192770    6.354201

----------------------------
CARTESIAN COORDINATES (A.U.)
----------------------------
  NO LB      ZA    FRAG     MASS         X           Y           Z
   0 Al   13.0000    0    26.982    3.018185   -7.654872    1.116252
   1 Al   13.0000    0    26.982    3.053611   -7.636012    7.243196
   2 Al   13.0000    0    26.982    1.637732   -1.828854    2.088910
   3 Al   13.0000    0    26.982   -1.620463   -4.202430    6.396258
   4 Al   13.0000    0    26.982   -2.097288    1.139601    4.017284
   5 Al   13.0000    0    26.982   -1.514384    0.826073    9.832657
   6 Al   13.0000    0    26.982   -4.670878   -3.485961   11.502774
   7 H     1.0000    0     1.008    1.498125   -9.697465   -0.486020
   8 H     1.0000    0     1.008    6.001201   -7.228969    1.166718
   9 H     1.0000    0     1.008    3.094275  -10.360330    8.523499
  10 H     1.0000    0     1.008    5.226519   -5.552405    7.325713
  11 H     1.0000    0     1.008    2.077455   -8.111941    4.193237
  12 H     1.0000    0     1.008    1.613328   -4.802542    0.607006
  13 H     1.0000    0     1.008    4.164047   -0.531141    1.151012
  14 H     1.0000    0     1.008   -1.273290   -1.008003    1.199817
  15 H     1.0000    0     1.008   -2.390373    2.488355    7.332852
  16 H     1.0000    0     1.008   -3.349588   -1.462409    5.310533
  17 H     1.0000    0     1.008    0.988919    1.235851    4.310942
  18 H     1.0000    0     1.008   -3.856500    3.131230    2.640141
  19 H     1.0000    0     1.008   -4.395167   -0.283835   10.715620
  20 H     1.0000    0     1.008   -7.585942   -3.789010   12.164717
  21 H     1.0000    0     1.008   -2.272193   -4.024476   13.249167
  22 H     1.0000    0     1.008   -4.096353   -4.643227    8.598109
  23 H     1.0000    0     1.008    0.314107   -6.182114    8.178220
  24 H     1.0000    0     1.008    1.250356   -3.191514    4.920537
  25 H     1.0000    0     1.008   -2.720632   -6.003779    4.239384
  26 H     1.0000    0     1.008   -0.271287   -1.824605    8.691794
  27 H     1.0000    0     1.008   -0.033701    2.254009   12.007700

--------------------------------
INTERNAL COORDINATES (ANGSTROEM)
--------------------------------
 Al     0   0   0     0.000000000000     0.00000000     0.00000000
 Al     1   0   0     3.242308363793     0.00000000     0.00000000
 Al     1   2   0     3.209895030020    80.67771712     0.00000000
 Al     2   1   3     3.101617564738    81.52930989    40.25956574
 Al     3   1   2     2.723115532745   141.19822610   293.44954421
 Al     5   3   1     3.097230134616   105.61348452    78.09041051
 Al     6   5   3     2.962749181076   106.34943821   269.94129864
 H      1   2   3     1.591939274768   122.52121889   229.94357072
 H      1   2   3     1.594775561790    88.68763514    95.26645746
 H      2   1   3     1.593055169039   114.99703564   167.30951128
 H      2   1   3     1.593672064051    91.93125928   300.41176271
 H      2   1   3     1.713229933943    19.22419663   102.56405290
 H      1   2   3     1.703978617549    99.08740877   347.22788641
 H      3   1   2     1.582759902134   100.03311659   110.20272711
 H      3   1   2     1.668237614688   114.51986824   246.79283392
 H      6   5   3     1.654858128920    31.72180230   150.17659249
 H      5   3   1     1.674342509406    88.05464069    13.95342010
 H      5   3   1     1.641317277507    48.02344429   136.83262835
 H      5   3   1     1.583817192008   129.64678219   245.26807590
 H      6   5   3     1.699180691276   101.67639938   237.96023097
 H      7   6   5     1.589964424548   133.66030705   275.51061398
 H      7   6   5     1.595763681355    82.05846642   137.71563655
 H      7   6   5     1.682286159933    84.60185637    27.95408111
 H      2   1   3     1.714156303645   106.56703265    48.74804423
 H      3   1   2     1.675497053481    75.98884788   346.63096523
 H      4   2   1     1.596969994688    92.54015226    43.89000955
 H      6   5   3     1.662741431960    73.96844056   334.50580938
 H      6   5   3     1.584197640252   138.20955680    88.90613290

---------------------------
INTERNAL COORDINATES (A.U.)
---------------------------
 Al     0   0   0     0.000000000000     0.00000000     0.00000000
 Al     1   0   0     6.127074849292     0.00000000     0.00000000
 Al     1   2   0     6.065822525372    80.67771712     0.00000000
 Al     2   1   3     5.861207769515    81.52930989    40.25956574
 Al     3   1   2     5.145942587916   141.19822610   293.44954421
 Al     5   3   1     5.852916728152   105.61348452    78.09041051
 Al     6   5   3     5.598784555733   106.34943821   269.94129864
 H      1   2   3     3.008329251146   122.52121889   229.94357072
 H      1   2   3     3.013689056854    88.68763514    95.26645746
 H      2   1   3     3.010437985712   114.99703564   167.30951128
 H      2   1   3     3.011603748337    91.93125928   300.41176271
 H      2   1   3     3.237535379587    19.22419663   102.56405290
 H      1   2   3     3.220052925226    99.08740877   347.22788641
 H      3   1   2     2.990982750785   100.03311659   110.20272711
 H      3   1   2     3.152512218067   114.51986824   246.79283392
 H      6   5   3     3.127228654151    31.72180230   150.17659249
 H      5   3   1     3.164048797160    88.05464069    13.95342010
 H      5   3   1     3.101640153361    48.02344429   136.83262835
 H      5   3   1     2.992980739092   129.64678219   245.26807590
 H      6   5   3     3.210986158560   101.67639938   237.96023097
 H      7   6   5     3.004597325073   133.66030705   275.51061398
 H      7   6   5     3.015556332219    82.05846642   137.71563655
 H      7   6   5     3.179060121159    84.60185637    27.95408111
 H      2   1   3     3.239285964624   106.56703265    48.74804423
 H      3   1   2     3.166230569271    75.98884788   346.63096523
 H      4   2   1     3.017835934050    92.54015226    43.89000955
 H      6   5   3     3.142125937928    73.96844056   334.50580938
 H      6   5   3     2.993699682080   138.20955680    88.90613290

---------------------
BASIS SET INFORMATION
---------------------
There are 2 groups of distinct atoms

 Group   1 Type Al  : 14s9p3d1f contracted to 5s5p2d1f pattern {73211/51111/21/1}
 Group   2 Type H   : 5s1p contracted to 3s1p pattern {311/1}

Atom   0Al   basis set group =>   1
Atom   1Al   basis set group =>   1
Atom   2Al   basis set group =>   1
Atom   3Al   basis set group =>   1
Atom   4Al   basis set group =>   1
Atom   5Al   basis set group =>   1
Atom   6Al   basis set group =>   1
Atom   7H    basis set group =>   2
Atom   8H    basis set group =>   2
Atom   9H    basis set group =>   2
Atom  10H    basis set group =>   2
Atom  11H    basis set group =>   2
Atom  12H    basis set group =>   2
Atom  13H    basis set group =>   2
Atom  14H    basis set group =>   2
Atom  15H    basis set group =>   2
Atom  16H    basis set group =>   2
Atom  17H    basis set group =>   2
Atom  18H    basis set group =>   2
Atom  19H    basis set group =>   2
Atom  20H    basis set group =>   2
Atom  21H    basis set group =>   2
Atom  22H    basis set group =>   2
Atom  23H    basis set group =>   2
Atom  24H    basis set group =>   2
Atom  25H    basis set group =>   2
Atom  26H    basis set group =>   2
Atom  27H    basis set group =>   2
---------------------------------
AUXILIARY/J BASIS SET INFORMATION
---------------------------------
There are 2 groups of distinct atoms

 Group   1 Type Al  : 14s5p5d2f1g contracted to 8s4p3d1f1g pattern {71111111/2111/311/2/1}
 Group   2 Type H   : 5s2p1d contracted to 3s1p1d pattern {311/2/1}

Atom   0Al   basis set group =>   1
Atom   1Al   basis set group =>   1
Atom   2Al   basis set group =>   1
Atom   3Al   basis set group =>   1
Atom   4Al   basis set group =>   1
Atom   5Al   basis set group =>   1
Atom   6Al   basis set group =>   1
Atom   7H    basis set group =>   2
Atom   8H    basis set group =>   2
Atom   9H    basis set group =>   2
Atom  10H    basis set group =>   2
Atom  11H    basis set group =>   2
Atom  12H    basis set group =>   2
Atom  13H    basis set group =>   2
Atom  14H    basis set group =>   2
Atom  15H    basis set group =>   2
Atom  16H    basis set group =>   2
Atom  17H    basis set group =>   2
Atom  18H    basis set group =>   2
Atom  19H    basis set group =>   2
Atom  20H    basis set group =>   2
Atom  21H    basis set group =>   2
Atom  22H    basis set group =>   2
Atom  23H    basis set group =>   2
Atom  24H    basis set group =>   2
Atom  25H    basis set group =>   2
Atom  26H    basis set group =>   2
Atom  27H    basis set group =>   2


           ************************************************************
           *        Program running with 24 parallel MPI-processes    *
           *              working on a common directory               *
           ************************************************************
------------------------------------------------------------------------------
                             ORCA STARTUP CALCULATIONS
                           -- RI-GTO INTEGRALS CHOSEN --
------------------------------------------------------------------------------
------------------------------------------------------------------------------
                   ___                                                        
                  /   \      - P O W E R E D   B Y -                         
                 /     \                                                     
                 |  |  |   _    _      __       _____    __    __             
                 |  |  |  | |  | |    /  \     |  _  \  |  |  /  |          
                  \  \/   | |  | |   /    \    | | | |  |  | /  /          
                 / \  \   | |__| |  /  /\  \   | |_| |  |  |/  /          
                |  |  |   |  __  | /  /__\  \  |    /   |      \           
                |  |  |   | |  | | |   __   |  |    \   |  |\   \          
                \     /   | |  | | |  |  |  |  | |\  \  |  | \   \       
                 \___/    |_|  |_| |__|  |__|  |_| \__\ |__|  \__/        
                                                                              
                      - O R C A' S   B I G   F R I E N D -                    
                                      &                                       
                       - I N T E G R A L  F E E D E R -                       
                                                                              
 v1 FN, 2020, v2 2021, v3 2022-2024                                           
------------------------------------------------------------------------------


----------------------
SHARK INTEGRAL PACKAGE
----------------------

Number of atoms                             ...     28
Number of basis functions                   ...    385
Number of shells                            ...    175
Maximum angular momentum                    ...      3
Integral batch strategy                     ... SHARK/LIBINT Hybrid
RI-J (if used) integral strategy            ... SPLIT-RIJ (Revised 2003 algorithm where possible)
Printlevel                                  ...      1
Contraction scheme used                     ... SEGMENTED contraction
Prescreening option                         ... SCHWARTZ
   Thresh                                   ... 2.500e-11
   Tcut                                     ... 2.500e-12
   Tpresel                                  ... 2.500e-12 
Coulomb Range Separation                    ... NOT USED
Exchange Range Separation                   ... NOT USED
Multipole approximations                    ... NOT USED
Finite Nucleus Model                        ... NOT USED
CABS basis                                  ... NOT available
Auxiliary Coulomb fitting basis             ... AVAILABLE
   # of basis functions in Aux-J            ...    588
   # of shells in Aux-J                     ...    224
   Maximum angular momentum in Aux-J        ...      4
Auxiliary J/K fitting basis                 ... NOT available
Auxiliary Correlation fitting basis         ... NOT available
Auxiliary 'external' fitting basis          ... NOT available

Checking pre-screening integrals            ... done (  0.0 sec) Dimension = 175
   => SHARK Basis and OBASIS are compatible. Storing Pre-screening
Shell pair information
Shell pair cut-off parameter TPreSel        ...   2.5e-12
Total number of shell pairs                 ...     15400
Shell pairs after pre-screening             ...     12427
Total number of primitive shell pairs       ...     50085
Primitive shell pairs kept                  ...     27608
          la=0 lb=0:   3927 shell pairs
          la=1 lb=0:   4117 shell pairs
          la=1 lb=1:   1097 shell pairs
          la=2 lb=0:   1294 shell pairs
          la=2 lb=1:    738 shell pairs
          la=2 lb=2:    105 shell pairs
          la=3 lb=0:    653 shell pairs
          la=3 lb=1:    370 shell pairs
          la=3 lb=2:     98 shell pairs
          la=3 lb=3:     28 shell pairs

Checking whether 4 symmetric matrices of dimension 385 fit in memory
:Max Core in MB      =   4096.00
 MB in use           =     18.70
 MB left             =   4077.30
 MB needed           =      2.27
 Data fit in memory  = YES
Calculating RI/J V-Matrix + Cholesky decomp.... done (  0.1 sec)
Calculating Nuclear repulsion               ... done (  0.0 sec) ENN=    809.410115191805 Eh

Diagonalization of the overlap matrix:
Smallest eigenvalue                        ... 3.174e-04
Time for diagonalization                   ...    0.080 sec
Threshold for overlap eigenvalues          ... 1.000e-07
Number of eigenvalues below threshold      ... 0
Time for construction of square roots      ...    0.034 sec
Total time needed                          ...    0.118 sec

-------------------
DFT GRID GENERATION
-------------------

General Integration Accuracy     IntAcc      ... 4.959
Radial Grid Type                 RadialGrid  ... OptM3 with GC (2021)
Angular Grid (max. ang.)         AngularGrid ... 6 (Lebedev-590)
Angular grid pruning method      GridPruning ... 4 (adaptive)
Weight generation scheme         WeightScheme... mBecke (2022)
Basis function cutoff            BFCut       ... 1.0000e-11
Integration weight cutoff        WCut        ... 1.0000e-14
Partially contracted basis set               ... off
Rotationally invariant grid construction     ... off
Angular grids for H and He will be reduced by one unit

Total number of grid points                  ...   291465
Total number of batches                      ...     4567
Average number of points per batch           ...       63
Average number of grid points per atom       ...    10409
Grids setup in   8.3 sec
Initializing property integral containers    ... done (  0.0 sec)

SHARK setup successfully completed in   9.1 seconds

Maximum memory used throughout the entire STARTUP-calculation: 66.3 MB


           ************************************************************
           *        Program running with 24 parallel MPI-processes    *
           *              working on a common directory               *
           ************************************************************
-------------------------------------------------------------------------------
                                 ORCA GUESS
                   Start orbitals & Density for SCF / CASSCF
-------------------------------------------------------------------------------

------------
SCF SETTINGS
------------
Hamiltonian:
 Density Functional     Method          .... DFT(GTOs)
 Exchange Functional    Exchange        .... PBE
   PBE kappa parameter   XKappa         ....  0.804000
   PBE mue parameter    XMuePBE         ....  0.219520
 Correlation Functional Correlation     .... PBE
   PBE beta parameter  CBetaPBE         ....  0.066725
 LDA part of GGA corr.  LDAOpt          .... PW91-LDA
 Gradients option       PostSCFGGA      .... off
   NL short-range parameter             ....  6.400000
 RI-approximation to the Coulomb term is turned on
   Number of AuxJ basis functions       .... 588


General Settings:
 Integral files         IntName         .... run
 Hartree-Fock type      HFTyp           .... RHF
 Total Charge           Charge          ....    0
 Multiplicity           Mult            ....    1
 Number of Electrons    NEL             ....  112
 Basis Dimension        Dim             ....  385
 Nuclear Repulsion      ENuc            ....    809.4101151918 Eh

Convergence Acceleration:
 AO-DIIS                CNVDIIS         .... on
   Start iteration      DIISMaxIt       ....    12
   Startup error        DIISStart       ....  0.200000
   # of expansion vecs  DIISMaxEq       ....     5
   Bias factor          DIISBfac        ....   1.050
   Max. coefficient     DIISMaxC        ....  10.000
 MO-DIIS                CNVKDIIS        .... off
 Trust-Rad. Augm. Hess. CNVTRAH         .... auto
   Auto Start mean grad. ratio tolernc. ....  1.125000
   Auto Start start iteration           ....    50
   Auto Start num. interpolation iter.  ....    10
   Max. Number of Micro iterations      ....    24
   Max. Number of Macro iterations      .... Maxiter - #DIIS iter
   Number of Davidson start vectors     ....     2
   Converg. threshold    (grad. norm)   ....   1.000e-05
   Grad. Scal. Fac. for Micro threshold ....   0.100
   Minimum threshold for Micro iter.    ....   1.000e-02
   NR start threshold (gradient norm)   ....   1.000e-04
   Initial trust radius                 ....   0.400
   Minimum AH scaling param. (alpha)    ....   1.000
   Maximum AH scaling param. (alpha)    .... 1000.000
   Quad. conv. algorithm                .... NR
   White noise on init. David. guess    .... on
   Maximum white noise                  ....   0.010
   Pseudo random numbers                .... off
   Inactive MOs                         .... canonical
   Orbital update algorithm             .... Taylor
   Preconditioner                       .... Diag
   Full preconditioner red. dimension   ....   250
 SOSCF                 CNVSOSCF           .... on
   Start iteration     SOSCFMaxIt         ....   150
   Startup grad/error  SOSCFStart         ....  0.003300
   Hessian update      SOSCFHessUp        .... L-BFGS
   Autom. constraints  SOSCFAutoConstrain .... off
 Level Shifting         CNVShift        .... on
   Level shift para.    LevelShift      ....    0.2500
   Turn off err/grad.   ShiftErr        ....    0.0010
 Zerner damping         CNVZerner       .... off
 Static damping         CNVDamp         .... on
   Fraction old density DampFac         ....    0.7000
   Max. Damping (<1)    DampMax         ....    0.9800
   Min. Damping (>=0)   DampMin         ....    0.0000
   Turn off err/grad.   DampErr         ....    0.1000

SCF Procedure:
 Maximum # iterations   MaxIter         ....   125
 SCF integral mode      SCFMode         .... Direct
   Integral package                     .... SHARK and LIBINT hybrid scheme
 Reset frequency        DirectResetFreq ....    20
 Integral Threshold     Thresh          ....  2.500e-11 Eh
 Primitive CutOff       TCut            ....  2.500e-12 Eh

Convergence Tolerance:
 Convergence Check Mode ConvCheckMode   .... Total+1el-Energy
 Convergence forced     ConvForced      .... 0
 Energy Change          TolE            ....  1.000e-08 Eh
 1-El. energy change                    ....  1.000e-05 Eh
 Orbital Gradient       TolG            ....  1.000e-05
 Orbital Rotation angle TolX            ....  1.000e-05
 DIIS Error             TolErr          ....  5.000e-07

------------------------------
INITIAL GUESS: MODEL POTENTIAL
------------------------------
Loading Hartree-Fock densities                     ... done
Calculating cut-offs                               ... done
Initializing the effective Hamiltonian             ... done
Setting up the integral package (SHARK)            ... done
Starting the Coulomb interaction                   ... done (   0.2 sec)
Making the grid                                    ... done (   0.3 sec)
Mapping shells                                     ... done
Starting the XC term evaluation                    ... done (   0.1 sec)
  promolecular density results
     # of electrons  =    111.979022274
     EX              =   -132.418133076
     EC              =     -3.922100392
     EX+EC           =   -136.340233468
Transforming the Hamiltonian                       ... done (   0.0 sec)
Diagonalizing the Hamiltonian                      ... done (   0.1 sec)
Back transforming the eigenvectors                 ... done (   0.0 sec)
Now organizing SCF variables                       ... done
                      ------------------
                      INITIAL GUESS DONE (   0.8 sec)
                      ------------------
             **** ENERGY FILE WAS UPDATED (run.en.tmp) ****
Finished Guess after   1.6 sec
Maximum memory used throughout the entire GUESS-calculation: 24.6 MB


           ************************************************************
           *        Program running with 24 parallel MPI-processes    *
           *              working on a common directory               *
           ************************************************************

-------------------------------------------------------------------------------------------
                                      ORCA LEAN-SCF
                              memory conserving SCF solver
-------------------------------------------------------------------------------------------

----------------------------------------D-I-I-S--------------------------------------------
Iteration    Energy (Eh)           Delta-E    RMSDP     MaxDP     DIISErr   Damp  Time(sec)
-------------------------------------------------------------------------------------------
               ***  Starting incremental Fock matrix formation  ***
    1    -1708.5328306708661330     0.00e+00  2.41e-03  1.98e-02  8.60e-02  0.700   1.6
    2    -1708.5598890150749867    -2.71e-02  2.20e-03  1.70e-02  5.85e-02  0.700   1.5
                               ***Turning on AO-DIIS***
    3    -1708.5772305908863018    -1.73e-02  1.31e-03  9.97e-03  3.50e-02  0.700   1.4
    4    -1708.5876000528442091    -1.04e-02  2.81e-03  2.04e-02  2.27e-02  0.000   1.3
                              *** Initializing SOSCF ***
---------------------------------------S-O-S-C-F--------------------------------------
Iteration    Energy (Eh)           Delta-E    RMSDP     MaxDP     MaxGrad    Time(sec)
--------------------------------------------------------------------------------------
    5    -1708.6083987765464371    -2.08e-02  2.63e-04  4.34e-03  1.97e-03     1.5
               *** Restarting incremental Fock matrix formation ***
    6    -1708.6084548813178117    -5.61e-05  1.55e-04  1.76e-03  2.19e-04     1.4
    7    -1708.6084592430579505    -4.36e-06  5.06e-05  1.36e-03  1.72e-04     1.2
    8    -1708.6084615591080365    -2.32e-06  2.48e-05  3.82e-04  3.76e-05     1.2
    9    -1708.6084616910229670    -1.32e-07  9.56e-06  1.28e-04  2.41e-05     1.1
   10    -1708.6084617975552646    -1.07e-07  5.28e-06  5.90e-05  4.95e-06     1.1
   11    -1708.6084618141990177    -1.66e-08  2.25e-06  2.83e-05  4.36e-06     1.1
   12    -1708.6084618067784504     7.42e-09  1.08e-06  1.79e-05  1.46e-06     1.1
                 **** Energy Check signals convergence ****

               *****************************************************
               *                     SUCCESS                       *
               *           SCF CONVERGED AFTER  12 CYCLES          *
               *****************************************************

             **** ENERGY FILE WAS UPDATED (run.en.tmp) ****

----------------
TOTAL SCF ENERGY
----------------

Total Energy       :      -1708.60846180236149 Eh          -46493.59993 eV

Components:
Nuclear Repulsion  :        809.41011519180495 Eh           22025.16897 eV
Electronic Energy  :      -2518.01857699416632 Eh          -68518.76891 eV
One Electron Energy:      -3986.25232977275209 Eh         -108471.44047 eV
Two Electron Energy:       1468.23375277858577 Eh           39952.67157 eV

Virial components:
Potential Energy   :      -3413.24812694504590 Eh          -92879.20342 eV
Kinetic Energy     :       1704.63966514268441 Eh           46385.60349 eV
Virial Ratio       :          2.00232823202512

DFT components:
N(Alpha)           :       56.000009153892 electrons
N(Beta)            :       56.000009153892 electrons
N(Total)           :      112.000018307784 electrons
E(X)               :     -133.421888757810 Eh       
E(C)               :       -3.858087939640 Eh       
E(XC)              :     -137.279976697450 Eh       

---------------
SCF CONVERGENCE
---------------

  Last Energy change         ...   -7.4206e-09  Tolerance :   1.0000e-08
  Last MAX-Density change    ...    1.7873e-05  Tolerance :   1.0000e-07
  Last RMS-Density change    ...    1.0753e-06  Tolerance :   5.0000e-09
  Last DIIS Error            ...    1.9731e-03  Tolerance :   5.0000e-07
  Last Orbital Gradient      ...    1.4560e-06  Tolerance :   1.0000e-05
  Last Orbital Rotation      ...    3.7106e-06  Tolerance :   1.0000e-05


----------------
ORBITAL ENERGIES
----------------

  NO   OCC          E(Eh)            E(eV) 
   0   2.0000     -55.408375     -1507.7385 
   1   2.0000     -55.403652     -1507.6100 
   2   2.0000     -55.394800     -1507.3691 
   3   2.0000     -55.394674     -1507.3657 
   4   2.0000     -55.385740     -1507.1226 
   5   2.0000     -55.374785     -1506.8245 
   6   2.0000     -55.372353     -1506.7583 
   7   2.0000      -3.963505      -107.8525 
   8   2.0000      -3.963153      -107.8429 
   9   2.0000      -3.953467      -107.5793 
  10   2.0000      -3.952885      -107.5635 
  11   2.0000      -3.946295      -107.3842 
  12   2.0000      -3.934873      -107.0734 
  13   2.0000      -3.932550      -107.0101 
  14   2.0000      -2.567284       -69.8593 
  15   2.0000      -2.566860       -69.8478 
  16   2.0000      -2.566514       -69.8384 
  17   2.0000      -2.565857       -69.8205 
  18   2.0000      -2.562703       -69.7347 
  19   2.0000      -2.561840       -69.7112 
  20   2.0000      -2.558249       -69.6135 
  21   2.0000      -2.556967       -69.5786 
  22   2.0000      -2.556085       -69.5546 
  23   2.0000      -2.555827       -69.5476 
  24   2.0000      -2.551921       -69.4413 
  25   2.0000      -2.551563       -69.4315 
  26   2.0000      -2.551234       -69.4226 
  27   2.0000      -2.548952       -69.3605 
  28   2.0000      -2.543745       -69.2188 
  29   2.0000      -2.539941       -69.1153 
  30   2.0000      -2.537662       -69.0533 
  31   2.0000      -2.537490       -69.0486 
  32   2.0000      -2.535515       -68.9949 
  33   2.0000      -2.532415       -68.9105 
  34   2.0000      -2.530009       -68.8451 
  35   2.0000      -0.523043       -14.2327 
  36   2.0000      -0.473469       -12.8837 
  37   2.0000      -0.456880       -12.4323 
  38   2.0000      -0.421581       -11.4718 
  39   2.0000      -0.411970       -11.2103 
  40   2.0000      -0.385761       -10.4971 
  41   2.0000      -0.381015       -10.3679 
  42   2.0000      -0.345384        -9.3984 
  43   2.0000      -0.335995        -9.1429 
  44   2.0000      -0.332719        -9.0537 
  45   2.0000      -0.316851        -8.6220 
  46   2.0000      -0.315830        -8.5942 
  47   2.0000      -0.308529        -8.3955 
  48   2.0000      -0.295163        -8.0318 
  49   2.0000      -0.290219        -7.8973 
  50   2.0000      -0.286953        -7.8084 
  51   2.0000      -0.281819        -7.6687 
  52   2.0000      -0.275043        -7.4843 
  53   2.0000      -0.265729        -7.2308 
[...]
  9:     75.00   0.000008    0.04  0.000032  (-0.005191  0.001354 -0.001894)
 10:    100.92   0.000538    2.72  0.001664  ( 0.019029  0.033431 -0.013570)
 11:    120.90   0.000286    1.45  0.000739  (-0.021122 -0.012758  0.011404)
 12:    132.01   0.000544    2.75  0.001285  ( 0.017278  0.002525 -0.031310)
 13:    135.56   0.000409    2.06  0.000940  (-0.004608  0.001178  0.030296)
 14:    162.57   0.000047    0.24  0.000090  (-0.006218  0.005280  0.004837)
 15:    177.32   0.000688    3.48  0.001210  ( 0.023505  0.014419 -0.021209)
 16:    193.03   0.001233    6.23  0.001994  ( 0.040844 -0.017945 -0.001954)
 17:    211.40   0.000120    0.61  0.000177  (-0.008790 -0.008244 -0.005655)
 18:    246.80   0.000254    1.29  0.000322  (-0.002871 -0.016561 -0.006262)
 19:    260.58   0.000093    0.47  0.000112  ( 0.008314 -0.005903  0.002761)
 20:    270.30   0.000848    4.29  0.000979  (-0.005646  0.007547 -0.029841)
 21:    292.09   0.000207    1.05  0.000221  ( 0.012072  0.008006 -0.003378)
 22:    306.19   0.002137   10.80  0.002178  ( 0.042845 -0.005461 -0.017665)
 23:    327.88   0.002620   13.24  0.002493  (-0.025545  0.041369  0.011381)
 24:    336.69   0.001212    6.13  0.001123  ( 0.005247 -0.021231  0.025401)
 25:    364.00   0.005206   26.31  0.004463  ( 0.051143 -0.027066 -0.033387)
 26:    369.08   0.001624    8.21  0.001373  ( 0.021881 -0.029905 -0.000471)
 27:    387.73   0.002337   11.81  0.001881  (-0.000720  0.042232  0.009862)
 28:    405.18   0.000538    2.72  0.000415  ( 0.005698  0.017754 -0.008188)
 29:    422.26   0.006345   32.06  0.004689  ( 0.021716  0.005443 -0.064713)
 30:    443.06   0.001138    5.75  0.000802  (-0.002225  0.005070 -0.027765)
 31:    456.72   0.002978   15.05  0.002035  (-0.026735  0.001034  0.036316)
 32:    478.58   0.001536    7.76  0.001001  (-0.006333  0.026830 -0.015540)
 33:    485.08   0.003530   17.84  0.002271  ( 0.007632 -0.021923  0.041621)
 34:    504.64   0.010406   52.59  0.006435  ( 0.027727 -0.070138 -0.027325)
 35:    522.05   0.014710   74.34  0.008793  (-0.011498  0.066036  0.065576)
 36:    544.50   0.006508   32.89  0.003730  ( 0.027165  0.048643 -0.025020)
 37:    553.64   0.015554   78.60  0.008767  (-0.067810  0.016338  0.062465)
 38:    584.04   0.018516   93.57  0.009894  (-0.095208  0.022834  0.017536)
 39:    635.07   0.057217  289.15  0.028115  (-0.096714  0.102682  0.090654)
 40:    657.64   0.223536  1129.66  0.106073  (-0.170685  0.027268  0.276036)
 41:    681.89   0.095474  482.48  0.043693  ( 0.097253 -0.164284  0.085121)
 42:    684.13   0.050062  252.99  0.022836  (-0.011885  0.120656  0.090203)
 43:    697.19   0.075355  380.81  0.033729  (-0.038007  0.156349 -0.088541)
 44:    707.82   0.019580   98.95  0.008632  (-0.062715  0.067930 -0.009195)
 45:    723.20   0.049127  248.27  0.021199  ( 0.034144 -0.135744 -0.040081)
 46:    728.32   0.022546  113.94  0.009660  (-0.033146 -0.053826  0.075263)
 47:    737.19   0.081577  412.26  0.034533  (-0.034690  0.085847  0.161121)
 48:    750.57   0.035460  179.20  0.014743  (-0.045362  0.011521  0.112039)
 49:    759.60   0.013573   68.59  0.005576  ( 0.005943 -0.045649  0.058797)
 50:    805.63   0.052284  264.22  0.020252  ( 0.056812  0.124770  0.038173)
 51:    835.93   0.006601   33.36  0.002464  ( 0.017208  0.017241 -0.043254)
 52:    891.62   0.064012  323.49  0.022404  (-0.073674  0.124035  0.039897)
 53:    947.70   0.026346  133.14  0.008675  (-0.089039 -0.023032  0.014728)
 54:    949.97   0.016180   81.77  0.005315  ( 0.056688  0.041555 -0.019355)
 55:    968.50   0.043111  217.86  0.013891  ( 0.021765 -0.066477 -0.094857)
 56:    998.22   0.033608  169.84  0.010507  (-0.056500  0.010603 -0.084865)
 57:   1016.09   0.032929  166.41  0.010113  ( 0.085069  0.050033  0.019318)
 58:   1035.46   0.002382   12.04  0.000718  ( 0.024837 -0.000436 -0.010038)
 59:   1053.23   0.014830   74.95  0.004394  (-0.020570  0.018534  0.060229)
 60:   1073.35   0.033990  171.77  0.009882  (-0.031317 -0.005086  0.094211)
 61:   1119.28   0.015171   76.67  0.004230  ( 0.022433 -0.043385 -0.042944)
 62:   1195.62   0.030997  156.65  0.008090  ( 0.054186 -0.071575 -0.005591)
 63:   1587.44   0.023971  121.14  0.004712  (-0.059576  0.030756  0.014735)
 64:   1608.71   0.023041  116.44  0.004470  (-0.011636  0.062048 -0.022005)
 65:   1631.90   0.121031  611.64  0.023145  (-0.120458  0.041166  0.083306)
 66:   1650.25   0.052143  263.51  0.009860  (-0.081668  0.053934  0.016786)
 67:   1681.06   0.033974  171.69  0.006307  (-0.006045 -0.074860  0.025811)
 68:   1700.13   0.208401  1053.17  0.038253  (-0.070831  0.168445  0.069728)
 69:   1735.11   0.144500  730.25  0.025989  (-0.054360 -0.022173  0.150140)
 70:   1745.20   0.093877  474.42  0.016786  (-0.107764  0.071096 -0.010898)
 71:   1784.08   0.148692  751.43  0.026009  (-0.027934 -0.088291  0.132034)
 72:   1820.04   0.077430  391.30  0.013276  (-0.025085 -0.085766  0.072740)
 73:   1830.75   0.157073  793.78  0.026774  ( 0.011409  0.084010  0.139951)
 74:   1874.30   0.009230   46.64  0.001537  (-0.037286 -0.001533 -0.012006)
 75:   1885.52   0.007636   38.59  0.001264  ( 0.025308 -0.017632  0.017674)
 76:   1887.35   0.007570   38.26  0.001252  ( 0.032137  0.006754 -0.013165)
 77:   1892.68   0.024889  125.78  0.004104  ( 0.020854 -0.025744  0.054827)
 78:   1900.22   0.037343  188.72  0.006133  (-0.028840 -0.071622 -0.013088)
 79:   1903.18   0.019168   96.87  0.003143  (-0.043930 -0.034784  0.001800)
 80:   1910.10   0.024373  123.17  0.003982  ( 0.062116  0.010235 -0.004338)
 81:   1923.51   0.024989  126.29  0.004054  (-0.056029  0.027651 -0.012262)
 82:   1926.65   0.020190  102.03  0.003270  ( 0.000981  0.017646  0.054386)
 83:   1928.98   0.020256  102.36  0.003277  (-0.038915 -0.041888  0.002813)

* The epsilon (eps) is given for a Dirac delta lineshape.
** The dipole moment derivative (T) already includes vibrational overlap.

The first frequency considered to be a vibration is 6
The total number of vibrations considered is 78


--------------------------
THERMOCHEMISTRY AT 298.15K
--------------------------

Temperature         ...   298.15 K
Pressure            ...     1.00 atm
Total Mass          ...   210.04 AMU
Quasi RRHO          ...     True
Cut-Off Frequency   ...     1.00 cm^-1

Throughout the following assumptions are being made:
  (1) The electronic state is orbitally nondegenerate
  (2) There are no thermally accessible electronically excited states
  (3) Hindered rotations indicated by low frequency modes are not
      treated as such but are treated as vibrations and this may
      cause some error
  (4) All equations used are the standard statistical mechanics
      equations for an ideal gas
  (5) All vibrations are strictly harmonic

freq.      36.90  E(vib)   ...       0.54 
freq.      53.69  E(vib)   ...       0.52 
freq.      65.54  E(vib)   ...       0.50 
freq.      75.00  E(vib)   ...       0.49 
freq.     100.92  E(vib)   ...       0.46 
freq.     120.90  E(vib)   ...       0.44 
freq.     132.01  E(vib)   ...       0.42 
freq.     135.56  E(vib)   ...       0.42 
freq.     162.57  E(vib)   ...       0.39 
freq.     177.32  E(vib)   ...       0.37 
freq.     193.03  E(vib)   ...       0.36 
freq.     211.40  E(vib)   ...       0.34 
freq.     246.80  E(vib)   ...       0.31 
freq.     260.58  E(vib)   ...       0.30 
freq.     270.30  E(vib)   ...       0.29 
freq.     292.09  E(vib)   ...       0.27 
freq.     306.19  E(vib)   ...       0.26 
freq.     327.88  E(vib)   ...       0.24 
freq.     336.69  E(vib)   ...       0.24 
freq.     364.00  E(vib)   ...       0.22 
freq.     369.08  E(vib)   ...       0.21 
freq.     387.73  E(vib)   ...       0.20 
freq.     405.18  E(vib)   ...       0.19 
freq.     422.26  E(vib)   ...       0.18 
freq.     443.06  E(vib)   ...       0.17 
freq.     456.72  E(vib)   ...       0.16 
freq.     478.58  E(vib)   ...       0.15 
freq.     485.08  E(vib)   ...       0.15 
freq.     504.64  E(vib)   ...       0.14 
freq.     522.05  E(vib)   ...       0.13 
freq.     544.50  E(vib)   ...       0.12 
freq.     553.64  E(vib)   ...       0.12 
freq.     584.04  E(vib)   ...       0.11 
freq.     635.07  E(vib)   ...       0.09 
freq.     657.64  E(vib)   ...       0.08 
freq.     681.89  E(vib)   ...       0.08 
freq.     684.13  E(vib)   ...       0.07 
freq.     697.19  E(vib)   ...       0.07 
freq.     707.82  E(vib)   ...       0.07 
freq.     723.20  E(vib)   ...       0.07 
freq.     728.32  E(vib)   ...       0.06 
freq.     737.19  E(vib)   ...       0.06 
freq.     750.57  E(vib)   ...       0.06 
freq.     759.60  E(vib)   ...       0.06 
freq.     805.63  E(vib)   ...       0.05 
freq.     835.93  E(vib)   ...       0.04 
freq.     891.62  E(vib)   ...       0.03 
freq.     947.70  E(vib)   ...       0.03 
freq.     949.97  E(vib)   ...       0.03 
freq.     968.50  E(vib)   ...       0.03 
freq.     998.22  E(vib)   ...       0.02 
freq.    1016.09  E(vib)   ...       0.02 
freq.    1035.46  E(vib)   ...       0.02 
freq.    1053.23  E(vib)   ...       0.02 
freq.    1073.35  E(vib)   ...       0.02 
freq.    1119.28  E(vib)   ...       0.01 
freq.    1195.62  E(vib)   ...       0.01 
freq.    1587.44  E(vib)   ...       0.00 
freq.    1608.71  E(vib)   ...       0.00 
freq.    1631.90  E(vib)   ...       0.00 
freq.    1650.25  E(vib)   ...       0.00 
freq.    1681.06  E(vib)   ...       0.00 
freq.    1700.13  E(vib)   ...       0.00 
freq.    1735.11  E(vib)   ...       0.00 
freq.    1745.20  E(vib)   ...       0.00 
freq.    1784.08  E(vib)   ...       0.00 
freq.    1820.04  E(vib)   ...       0.00 
freq.    1830.75  E(vib)   ...       0.00 
freq.    1874.30  E(vib)   ...       0.00 
freq.    1885.52  E(vib)   ...       0.00 
freq.    1887.35  E(vib)   ...       0.00 
freq.    1892.68  E(vib)   ...       0.00 
freq.    1900.22  E(vib)   ...       0.00 
freq.    1903.18  E(vib)   ...       0.00 
freq.    1910.10  E(vib)   ...       0.00 
freq.    1923.51  E(vib)   ...       0.00 
freq.    1926.65  E(vib)   ...       0.00 
freq.    1928.98  E(vib)   ...       0.00 

------------
INNER ENERGY
------------

The inner energy is: U= E(el) + E(ZPE) + E(vib) + E(rot) + E(trans)
    E(el)   - is the total energy from the electronic structure calculation
              = E(kin-el) + E(nuc-el) + E(el-el) + E(nuc-nuc)
    E(ZPE)  - the the zero temperature vibrational energy from the frequency calculation
    E(vib)  - the the finite temperature correction to E(ZPE) due to population
              of excited vibrational states
    E(rot)  - is the rotational thermal energy
    E(trans)- is the translational thermal energy

Summary of contributions to the inner energy U:
Electronic energy                ...  -1708.64186200 Eh
Zero point energy                ...      0.15602327 Eh      97.91 kcal/mol
Thermal vibrational correction   ...      0.01678377 Eh      10.53 kcal/mol
Thermal rotational correction    ...      0.00141627 Eh       0.89 kcal/mol
Thermal translational correction ...      0.00141627 Eh       0.89 kcal/mol
-----------------------------------------------------------------------
Total thermal energy                  -1708.46622241 Eh


Summary of corrections to the electronic energy:
(perhaps to be used in another calculation)
Total thermal correction                  0.01961632 Eh      12.31 kcal/mol
Non-thermal (ZPE) correction              0.15602327 Eh      97.91 kcal/mol
-----------------------------------------------------------------------
Total correction                          0.17563959 Eh     110.22 kcal/mol


--------
ENTHALPY
--------

The enthalpy is H = U + kB*T
                kB is Boltzmann's constant
Total thermal energy              ...  -1708.46622241 Eh 
Thermal Enthalpy correction       ...      0.00094421 Eh       0.59 kcal/mol
-----------------------------------------------------------------------
Total Enthalpy                    ...  -1708.46527820 Eh


Note: Only C1 symmetry has been detected, increase convergence thresholds 
      if your molecule has a higher symmetry. Symmetry factor of 1.0 is   
      used for the rotational entropy correction. 
 

Note: Rotational entropy computed according to Herzberg 
Infrared and Raman Spectra, Chapter V,1, Van Nostrand Reinhold, 1945 
Point Group:  C1, Symmetry Number:   1  
Rotational constants in cm-1:     0.024173     0.012914     0.009646 

Vibrational entropy computed according to the QRRHO of S. Grimme
Chem.Eur.J. 2012 18 9955 using a reference frequency of 100.0 cm-1


-------
ENTROPY
-------

The entropy contributions are T*S = T*(S(el)+S(vib)+S(rot)+S(trans))
     S(el)   - electronic entropy
     S(vib)  - vibrational entropy
     S(rot)  - rotational entropy
     S(trans)- translational entropy
The entropies will be listed as multiplied by the temperature to get
units of energy

Electronic entropy                ...      0.00000000 Eh      0.00 kcal/mol
Vibrational entropy               ...      0.02901334 Eh     18.21 kcal/mol
Rotational entropy                ...      0.01551261 Eh      9.73 kcal/mol
Translational entropy             ...      0.01992231 Eh     12.50 kcal/mol
-----------------------------------------------------------------------
Final entropy term                ...      0.06444826 Eh     40.44 kcal/mol

In case the symmetry of your molecule has not been determined correctly
or in case you have a reason to use a different symmetry number we print 
out the resulting rotational entropy values for sn=1,12:

 non-linear molecules -----------------------------------
|  sn= 1 | S(rot)=       0.01551261 Eh      9.73 kcal/mol|
|  sn= 2 | S(rot)=       0.01485815 Eh      9.32 kcal/mol|
|  sn= 3 | S(rot)=       0.01447532 Eh      9.08 kcal/mol|
|  sn= 4 | S(rot)=       0.01420370 Eh      8.91 kcal/mol|
|  sn= 5 | S(rot)=       0.01399301 Eh      8.78 kcal/mol|
|  sn= 6 | S(rot)=       0.01382086 Eh      8.67 kcal/mol|
|  sn= 7 | S(rot)=       0.01367532 Eh      8.58 kcal/mol|
|  sn= 8 | S(rot)=       0.01354924 Eh      8.50 kcal/mol|
|  sn= 9 | S(rot)=       0.01343803 Eh      8.43 kcal/mol|
|  sn=10 | S(rot)=       0.01333855 Eh      8.37 kcal/mol|
|  sn=11 | S(rot)=       0.01324856 Eh      8.31 kcal/mol|
|  sn=12 | S(rot)=       0.01316641 Eh      8.26 kcal/mol|
 linear molecules ---------------------------------------
|  Dinfh | S(rot)=       0.00970798 Eh      6.09 kcal/mol|
|  Cinfv | S(rot)=       0.01036244 Eh      6.50 kcal/mol|
 --------------------------------------------------------


-------------------
GIBBS FREE ENERGY
-------------------

The Gibbs free energy is G = H - T*S

Total enthalpy                    ...  -1708.46527820 Eh 
Total entropy correction          ...     -0.06444826 Eh    -40.44 kcal/mol
-----------------------------------------------------------------------
Final Gibbs free energy         ...  -1708.52972646 Eh

For completeness - the Gibbs free energy minus the electronic energy
G-E(el)                           ...      0.11213554 Eh     70.37 kcal/mol


Maximum memory used throughout the entire PROP-calculation: 59.8 MB

--------------------------------
SUGGESTED CITATIONS FOR THIS RUN
--------------------------------

Below you find a list of papers that are relevant to this ORCA run
We neither can nor want to force you to cite these papers, but we appreciate if you do
You receive ORCA, which is the product of decades of hard work by many enthusiastic individuals, for free
The only thing we kindly ask in return is that you cite our papers,
We deeply appreciate it, if you show your appreciation for ORCA by not just citing the generic ORCA reference.

Please note that relegating all ORCA citations to the supporting information does *not* help us.
SI sections are not indexed - citations you put there will not count into any citation statistics
But we need these citations in order to attract the funding resources that allow us to do what we are doing

Therefore, if you are a happy ORCA user, please consider citing a few of the papers listed below in the main body of your paper

In addition to the list printed below, the program has created the file run.bibtex that contains the list in bibtex format
You can import this file easily into all common literature databanks and citation aid programs


List of essential papers. We consider these as the minimum necessary citations

  1. Neese, F.
     Software update: the ORCA program system, version 6.0
     WIRES Comput. Molec. Sci. 2025 15(1), e70019
     doi.org/10.1002/wcms.7019

List of papers to cite with high priority. The work reported in these papers was absolutely
necessary for this run to complete.
Our perspective: the developers of density functionals and basis sets usually get cited in chemistry papers
Good! But without the algorithms to do something with them, the functionals or basis sets would not do anything.
Hence, in our opinion, the algorithm design and method developments papers are equally worthy of getting cited

  1. Neese, F.
     An improvement of the resolution of the identity approximation for the formation of the Coulomb matrix
     J. Comp. Chem. 2003 24(14), 1740-1747
     doi.org/10.1002/jcc.10318
  2. Grimme, S.; Antony, J.; Ehrlich, S.; Krieg, H.
     A consistent and accurate ab initio parametrization of density functional dispersion correction (DFT-D) for the 94 elements H-Pu
     J. Chem. Phys. 2010 132 , 154104
     doi.org/10.1063/1.3382344
  3. Grimme, S.; Ehrlich, S.; Goerigk, L.
     Effect of the damping function in dispersion corrected density functional theory
     J. Comput. Chem. 2011 32(7), 1456-1465
     doi.org/10.1002/jcc.21759
  4. Bykov, D.; Petrenko, T.; Izsak, R.; Kossmann, S.; Becker, U.; Valeev, E.; Neese, F.
     Efficient implementation of the analytic second derivatives of Hartree-Fock and hybrid DFT energies: a detailed analysis of different approximations
     Molec. Phys. 2015 113 , 1961-1977
     doi.org/10.1080/00268976.2015.1025114
  5. Neese, F.
     The SHARK Integral Generation and Digestion System
     J. Comp. Chem. 2022 44(3), 381
     doi.org/10.1002/jcc.26942

List of suggested additional citations. These are papers that are important in the 'surrounding' of 
of this run, or papers that preceded the highly important papers. If you like your results we are grateful for a citation.

  1. Neese, F.
     The ORCA program system
     WIRES Comput. Molec. Sci. 2012 2(1), 73-78
     doi.org/10.1002/wcms.81
  2. Neese, F.
     Software update: the ORCA program system, version 4.0
     WIRES Comput. Molec. Sci. 2018 8(1), 1-6
     doi.org/10.1002/wcms.1327
  3. Neese, F.; Wennmohs, F.; Becker, U.; Riplinger, C.
     The ORCA quantum chemistry program package
     J. Chem. Phys. 2020 152(22), 224108
     doi.org/10.1063/5.0004608
  4. Neese, F.
     Software update: The ORCA program system—Version 5.0
     WIRES Comput. Molec. Sci. 2022 12(1), e1606
     doi.org/10.1002/wcms.1606

List of optional additional citations

  1. Neese, F.
     Approximate second-order SCF convergence for spin unrestricted wavefunctions
     Chem. Phys. Lett. 2000 325(1-3), 93-98
     doi.org/10.1016/s0009-2614(00)00662-x

Timings for individual modules:

Sum of individual times          ...     1273.317 sec (=  21.222 min)
Startup calculation              ...      309.794 sec (=   5.163 min)  24.3 %
SCF iterations                   ...      306.704 sec (=   5.112 min)  24.1 %
Property integrals               ...      184.410 sec (=   3.074 min)  14.5 %
SCF Response                     ...      114.399 sec (=   1.907 min)   9.0 %
Property calculations            ...       75.157 sec (=   1.253 min)   5.9 %
SCF Gradient evaluation          ...      277.048 sec (=   4.617 min)  21.8 %
Geometry relaxation              ...        5.804 sec (=   0.097 min)   0.5 %
                             ****ORCA TERMINATED NORMALLY****
TOTAL RUN TIME: 0 days 0 hours 21 minutes 41 seconds 917 msec
