
                                 *****************
                                 * O   R   C   A *
                                 *****************

                                            #,                                       
                                            ###                                      
                                            ####                                     
                                            #####                                    
                                            ######                                   
                                           ########,                                 
                                     ,,################,,,,,                         
                               ,,#################################,,                 
                          ,,##########################################,,             
                       ,#########################################, ''#####,          
                    ,#############################################,,   '####,        
                  ,##################################################,,,,####,       
                ,###########''''           ''''###############################       
              ,#####''   ,,,,##########,,,,          '''####'''          '####       
            ,##' ,,,,###########################,,,                        '##       
           ' ,,###''''                  '''############,,,                           
         ,,##''                                '''############,,,,        ,,,,,,###''
      ,#''                                            '''#######################'''  
     '                                                          ''''####''''         
             ,#######,   #######,   ,#######,      ##                                
            ,#'     '#,  ##    ##  ,#'     '#,    #''#        ,####,    ,#,          
            ##       ##  ##   ,#'  ##            #'  '#       #'       ,# #          
            ##       ##  #######   ##           ,######,      #####,      #          
            '#,     ,#'  ##    ##  '#,     ,#' ,#      #,     #,   #      #          
             '#######'   ##     ##  '#######'  #'      '#     '####' #    #          



                #########################################################
                #                        -***-                          #
                #          Department of theory and spectroscopy        #
                #                                                       #
                #                      Frank Neese                      #
                #                                                       #
                #     Directorship, Architecture, Infrastructure        #
                #                    SHARK, DRIVERS                     #
                #        Core code/Algorithms in most modules           #
                #                                                       #
                #        Max Planck Institute fuer Kohlenforschung      #
                #                Kaiser Wilhelm Platz 1                 #
                #                 D-45470 Muelheim/Ruhr                 #
                #                      Germany                          #
                #                                                       #
                #                  All rights reserved                  #
                #                        -***-                          #
                #########################################################


                         Program Version 6.1.0  -  RELEASE   -
                                (GIT: $679e74b$)
                          ($2025-06-10 18:02:51 +0200$)


 With contributions from (in alphabetic order):
[Max-Planck-Institut fuer Kohlenforschung]                               
  Daniel Aravena         : Magnetic Suceptibility                        
  Michael Atanasov       : Ab Initio Ligand Field Theory (pilot matlab implementation)
  Alexander A. Auer      : GIAO ZORA, VPT2 properties, NMR spectrum      
  Ute Becker             : All parallelization in ORCA, NUMFREQ, NUMCALC 
  Giovanni Bistoni       : ED, misc. LED, open-shell LED, HFLD           
  Dmytro Bykov           : pre 5.0 version of the SCF Hessian            
  Marcos Casanova-Páez   : Triplet and SCS-CIS(D). UHF-(DLPNO)-IP/EA/STEOM-CCSD. UHF-CVS-IP/STEOM-CCSD   
  Vijay G. Chilkuri      : MRCI spin determinant printing, contributions to CSF-ICE 
  Pauline Colinet        : FMM embedding                                 
  Dipayan Datta          : RHF DLPNO-CCSD density                        
  Achintya Kumar Dutta   : EOM-CC, STEOM-CC                              
  Nicolas Foglia         : Exact transition moments, OPA infrastructure, MCD improvements    
  Dmitry Ganyushin       : Spin-Orbit,Spin-Spin,Magnetic field MRCI      
  Miquel Garcia-Rates    : C-PCM and meta-GGA Hessian, CCSD/C-PCM, Gaussian charge scheme 
  Tiago L. C. Gouveia    : GS-ROHF, GS-ROCIS                             
  Yang Guo               : DLPNO-NEVPT2, F12-NEVPT2, CIM, IAO-localization        
  Andreas Hansen         : Spin unrestricted coupled pair/coupled cluster methods 
  Ingolf Harden          : AUTO-CI MPn and infrastructure                
  Benjamin Helmich-Paris : MC-RPA, TRAH-(SCF,CASSCF), AVAS, COSX integrals, SCF dyn. polar., MC-PDFT, srDFT 
  Lee Huntington         : MR-EOM, pCC                                   
  Robert Izsak           : Overlap fitted RIJCOSX, COSX-SCS-MP3, EOM     
  Riya Kayal             : Wick's Theorem for AUTO-CI, AUTO-CI UHF-CCSDT 
  Emily Kempfer          : AUTO-CI RHF CISDT and CCSDT, approximate NEVPT4
  Christian Kollmar      : KDIIS, OOCD, Brueckner-CCSD(T), CCSD density, CASPT2, CASPT2-K, improved NEVPT2 
  Axel Koslowski         : Symmetry handling                             
  Simone Kossmann        : meta-GGA functionals, TD-DFT gradient, OOMP2, (MP2 Hessian; deprecated post 5.0) 
  Lucas Lang             : DCDCAS, Hyperfine gauge corrections, ICE-SOC+SSC
  Marvin Lechner         : AUTO-CI (C++ implementation), FIC-MRCC        
  Spencer Leger          : CASSCF response                               
  Dagmar Lenk            : GEPOL surface, SMD, ORCA-2-JSON               
  Dimitrios Liakos       : Extrapolation schemes; Compound Job, Property file
  Dimitrios Manganas     : Further ROCIS development; embedding schemes. LFT, Crystal Embedding 
  Dimitrios Pantazis     : SARC Basis sets                               
  Anastasios Papadopoulos: AUTO-CI, single reference methods and gradients 
  Taras Petrenko         : pre 6.0 DFT Hessian and TD-DFT gradient,  ECA, NRVS 
  Petra Pikulova         : Analytic Raman intensities                    
  Peter Pinski           : DLPNO-MP2, DLPNO-MP2 Gradient                 
  Shashank Vittal Rao    : ES-AILFT, MagRelax                            
  Christoph Reimann      : Effective Core Potentials                     
  Marius Retegan         : Local ZFS, SOC                                
  Christoph Riplinger    : Optimizer, TS searches, QM/MM, DLPNO-CCSD(T), (RO)-DLPNO pert. Triples 
  Michael Roemelt        : Original ROCIS implementation, recursive CI coupling coefficients
  Masaaki Saitow         : Open-shell DLPNO-CCSD energy and density      
  Barbara Sandhoefer     : DKH picture change effects                    
  Yorick L. A. Schmerwitz: GMF and freeze-and-release deltaSCF, NEB S-IDPP initial path                    
  Kantharuban Sivalingam : CASSCF convergence/infrastructure, NEVPT2, NEVPT3, NEVPT4(SD), FIC-MRCI and CEPA variants
  Bernardo de Souza      : ESD, SOC TD-DFT                               
  Georgi L. Stoychev     : AutoAux, RI-MP2 NMR, DLPNO-MP2 response, X2C  
  Van Anh Tran           : RI-MP2 g-tensors                              
  Willem Van den Heuvel  : Paramagnetic NMR                              
  Zikuan Wang            : NOTCH, Electric field optimization            
  Frank Wennmohs         : Technical directorship and infrastructure     
  Hang Xu                : AUTO-CI-Response properties                   
                                                                         
[FACCTs GmbH]                                                            
  Markus Bursch, Nicolas Foglia, Miquel Garcia-Rates, Ingolf Harden, Hagen Neugebauer, Anastasios Papadopoulos, 
  Christoph Riplinger, Bernardo de Souza, Georgi L. Stoychev                                                    
                                                                 
  APM, various basis sets, CI-OPT, improved COSX, DLPNO-Multilevel,           
  DOCKER, DRACO, updates on ESD, Fragmentator, GOAT, IRC, LR-CPCM, L-BFGS, MBIS, meta-GGA TD-DFT gradient, ML-optimized integration grids, 
  MM, NACMEs, nearIR, NEB, NEB-TS, NL-DFT gradient (VV10), 2- and 3-layer-ONIOM, interface openCOSMO-RS, QMMM,   
  Crystal-QMMM, RESP, rigid body optimization, SF, symmetry and pop. for TD-DFT, various functionals, SOLVATOR                                   
                                                                         
[Other institutions]                                                     
  V. Asgeirsson          : NEB                                           
  Christoph Bannwarth    : sTDA-DFT, sTD-DFT, PBEh-3c, B97-3c, D3        
  Giovanni Bistoni       : ETS/NOCV, ADLD/ADEX, COVALED                  
  Martin Brehm           : Molecular dynamics                            
  Ronald Cardenas        : ETS/NOCV                                      
  Martina Colucci        : COVALED                                       
  Sebastian Ehlert       : rSCAN, r2SCAN, r2SCAN-3c, D4, dhf basis sets  
  Marvin Friede          : D4 for Fr, Ra, Ac-Lr                          
  Lars Goerigk           : TD-DFT with DH, B97 family of functionals     
  Stefan Grimme          : VdW corrections, initial TS optimization, DFT functionals, gCP, sTDA/sTD-DF 
  Waldemar Hujo          : DFT-NL                                        
  H. Jonsson             : NEB                                           
  Holger Kruse           : gCP                                           
  Marcel Mueller         : wB97X-3c, vDZP basis set                      
  Hagen Neugebauer       : wr2SCAN, Native XTB                           
  Gianluca Regni         : ADLD/ADEX                                     
  Tobias Risthaus        : pre 6.0 range-separated hybrid DFT and stability analysis
  Lukas Wittmann         : regularized MP2, r2SCAN double-hybrids, wr2SCAN        
                                                                         
We gratefully acknowledge several colleagues who have allowed us to      
interface, adapt or use parts of their codes:                            
  Ed Valeev, F. Pavosevic, A. Kumar             : LibInt (2-el integral package), F12 methods 
  Garnet Chan, S. Sharma, J. Yang, R. Olivares  : DMRG                   
  Ulf Ekstrom                                   : XCFun DFT Library      
  Mihaly Kallay                                 : mrcc  (arbitrary order and MRCC methods)
  Frank Weinhold                                : gennbo (NPA and NBO analysis)           
  Simon Mueller                                 : openCOSMO-RS                            
  Christopher J. Cramer and Donald G. Truhlar   : smd solvation model                     
  S Lehtola, MJT Oliveira, MAL Marques          : LibXC Library                           
  Liviu Ungur et al                             : ANISO software                          


 Your calculation uses the libint2 library for the computation of 2-el integrals
 For citations please refer to: http://libint.valeyev.net

 Your ORCA version has been built with support for libXC version: 7.0.0
 For citations please refer to: https://libxc.gitlab.io

 This ORCA versions uses:
   CBLAS   interface :  Fast vector & matrix operations
   LAPACKE interface :  Fast linear algebra routines
   SCALAPACK package :  Parallel linear algebra routines
   Shared memory     :  Shared parallel matrices
   BLAS/LAPACK       :  OpenBLAS 0.3.29  USE64BITINT DYNAMIC_ARCH NO_AFFINITY Bulldozer SINGLE_THREADED
        Core in use  :  Bulldozer
   Copyright (c) 2011-2014, The OpenBLAS Project


  ***********************************
  * Starting time: Fri Aug  8 17:10:00 2025
  * Host name:     chromium12
  * Process ID:    82970
  * Working dir.:  /local/scratch/mehlhorn/61799
  ***********************************



***************************************
The coordinates will be read from file: start.xyz
***************************************


Your calculation utilizes the geometrical counterpoise correction gCP
Please cite in your paper:
H.Kruse, S. Grimme J.Chem.Phys., 136, (2012), 154101 
   

Your calculation utilizes the atom-pairwise dispersion correction
with the Becke-Johnson damping scheme (D3BJ)


Warning: RI is on but no J-basis has been assigned. Assigning Def2/J (nothing to worry about!)
================================================================================

cite the ECPs for Zr [Def2-ECP] as follows:
Ce-Yb(ecp-28): M. Dolg, H. Stoll, H.Preuss, J. Chem. Phys., 1989, 90, 1730-1734.
Y-Cd(ecp-28), Hf-Hg(ecp-46): D. Andrae,U. Haeussermann, M. Dolg, H. Stoll, H. Preuss, Theor. Chim. Acta, 1990, 77, 123-141.
In-Sb(ecp-28), Tl-Bi(ecp-46): B. Metz, H. Stoll, M. Dolg, J. Chem. Phys., 2000, 113, 2563-2569.
Te-Xe(ecp-28), Po-Rn(ecp-46): K. A. Peterson, D. Figgen, E. Goll, H. Stoll, M. Dolg, J. Chem. Phys., 2003, 119, 11113-11123.
Rb(ecp-28), Cs(ecp-46): T. Leininger, A. Nicklass, W. Kuechle, H. Stoll, M. Dolg, A. Bergner, Chem. Phys. Lett., 1996, 255, 274-280.
Sr(ecp-28), Ba(ecp-46): M. Kaupp, P. V. Schleyer, H. Stoll and H. Preuss, J. Chem. Phys., 1991, 94, 1360-1366.
La(ecp-46): M. Dolg, H. Stoll, A. Savin, H. Preuss, Theor. Chim. Acta, 1989, 75, 173-194.
Lu(ecp-28): X. Cao, M. Dolg, J. Chem. Phys., 2001, 115, 7348-7355.

ECP parameters for Zr [Def2-ECP] have been obtained from:
TURBOMOLE (7.0.2)

----- Orbital basis set information -----
Your calculation utilizes the basis: def2-SV(P)
   F. Weigend and R. Ahlrichs, Phys. Chem. Chem. Phys. 7, 3297 (2005).

----- AuxJ basis set information -----
Your calculation utilizes the auxiliary basis: def2/J
   H-Rn: F. Weigend, Phys. Chem. Chem. Phys. 8, 1057 (2006).
   Fr-Lr: K. Eichkorn, F. Weigend, O. Treutler, R. Ahlrichs; Theor. Chem. Acc. 97, 119 (1997).

================================================================================
                                        WARNINGS
                       Please study these warnings very carefully!
================================================================================


WARNING: Gradients are needed
  ===> : At least TightSCF should be used for SCF convergence

WARNING: Geometry Optimization
  ===> : Switching off AutoStart
         For restart on a previous wavefunction, please use MOREAD

================================================================================
                                       INPUT FILE
================================================================================
NAME = run.inp
|  1> # Geometry optimization for (AlH3)n cluster
|  2> 
|  3> %pal nprocs 24  end
|  4> 
|  5> %geom MaxIter 500 end
|  6> 
|  7> 
|  8> ! PBE def2-SV(P)
|  9> ! RKS	# closed shell for AlH3
| 10> ! D3    #  dispersion correction
| 11> ! gCP(DFT/SV(P))
| 12> ! Freq 	# Frequency analysis to check the stabiltity of the structures
| 13> 
| 14> ! NoPop # population analysis not necessary	
| 15> 
| 16> ! DEFGRID2
| 17> ! NormalSCF
| 18> ! SloppyOpt
| 19> 
| 20> ! SmallPrint
| 21> 
| 22> 
| 23> * xyzFile 0 1 start.xyz # only maingroup elements H and Al so there should be no net spin
| 24> 
| 25>                          ****END OF INPUT****
================================================================================

                       *****************************
                       * Geometry Optimization Run *
                       *****************************

Geometry optimization settings:
Update method            Update   .... BFGS
Choice of coordinates    CoordSys .... (2022) Redundant Internals
Initial Hessian          InHess   .... Almloef's Model
Max. no of cycles        MaxIter  .... 500

Convergence Tolerances:
Energy Change            TolE     ....  8.0000e-05 Eh
Max. Gradient            TolMAXG  ....  5.0000e-03 Eh/bohr
RMS Gradient             TolRMSG  ....  1.0000e-03 Eh/bohr
Max. Displacement        TolMAXD  ....  3.0000e-02 bohr
RMS Displacement         TolRMSD  ....  2.0000e-02 bohr
Strict Convergence                .... False

------------------------------------------------------------------------------
                        ORCA OPTIMIZATION COORDINATE SETUP
------------------------------------------------------------------------------

The optimization will be done in redundant internal coordinates (2022)
Making redundant internal coordinates   ...  (2022 redundants) done
Evaluating the initial hessian          ...  (Almloef) done
Evaluating the coordinates              ...  done
Calculating the B-matrix                .... done
Calculating the G-matrix                .... done
The number of degrees of freedom        ....  833

    -----------------------------------------------------------------
                    Redundant Internal Coordinates


    -----------------------------------------------------------------
         Definition                    Initial Value    Approx d2E/dq
    -----------------------------------------------------------------
      1. B(Zr  2,Zr  1)                  3.4291         0.035699   
      2. B(Zr  3,Zr  0)                  3.4167         0.037370   
      3. B(Zr  4,Zr  3)                  3.4217         0.036685   
      4. B(Zr  4,Zr  1)                  3.4138         0.037775   
      5. B(Zr  5,Zr  0)                  3.4243         0.036335   
      6. B(Zr  5,Zr  2)                  3.4220         0.036643   
      7. B(O   6,Zr  0)                  2.0974         0.421098   
      8. B(O   6,Zr  5)                  2.1307         0.372620   
      9. B(O   6,Zr  3)                  2.1473         0.350610   
     10. B(O   7,Zr  1)                  2.0983         0.419646   
     11. B(O   7,Zr  4)                  2.1259         0.379188   
     12. B(O   7,Zr  2)                  2.1393         0.361026   
     13. B(O   8,Zr  2)                  2.0982         0.419903   
     14. B(O   8,Zr  5)                  2.1457         0.352660   
     15. B(O   8,Zr  1)                  2.1397         0.360547   
     16. B(O   9,Zr  4)                  2.1418         0.357672   
     17. B(O   9,Zr  3)                  2.0977         0.420633   
     18. B(O   9,Zr  0)                  2.1247         0.380957   
     19. B(O  10,Zr  3)                  2.1257         0.379541   
     20. B(O  10,Zr  1)                  2.1382         0.362423   
     21. B(O  10,Zr  4)                  2.0977         0.420628   
     22. B(O  11,Zr  5)                  2.1009         0.415713   
     23. B(O  11,Zr  0)                  2.1514         0.345338   
     24. B(O  11,Zr  2)                  2.1321         0.370656   
     25. B(O  12,Zr  0)                  1.9683         0.676525   
     26. B(O  13,Zr  0)                  1.9779         0.653174   
     27. B(O  14,Zr  0)                  2.0620         0.479617   
     28. B(O  15,Zr  0)                  2.0453         0.510008   
     29. B(O  16,Zr  1)                  2.0318         0.535900   
     30. B(O  17,Zr  1)                  2.0806         0.447926   
     31. B(O  18,Zr  1)                  1.9750         0.660141   
     32. B(O  19,Zr  1)                  1.9727         0.665797   
     33. B(O  20,Zr  2)                  1.9788         0.651043   
     34. B(O  21,Zr  2)                  2.0367         0.526307   
     35. B(O  22,Zr  2)                  1.9674         0.678773   
     36. B(O  23,Zr  2)                  2.0748         0.457483   
     37. B(O  24,Zr  3)                  2.0692         0.467026   
     38. B(O  25,Zr  3)                  1.9683         0.676563   
     39. B(O  26,Zr  3)                  2.0399         0.520076   
     40. B(O  27,Zr  3)                  1.9775         0.654221   
     41. B(O  28,Zr  4)                  1.9700         0.672451   
     42. B(O  29,Zr  4)                  2.0688         0.467670   
     43. B(O  30,Zr  4)                  1.9779         0.653242   
     44. B(O  31,Zr  4)                  2.0370         0.525698   
     45. B(O  32,Zr  5)                  2.0416         0.516887   
     46. B(O  33,Zr  5)                  1.9793         0.649864   
     47. B(O  34,Zr  5)                  2.0688         0.467706   
     48. B(O  35,Zr  5)                  1.9669         0.680037   
     49. B(C  36,O  12)                  1.2980         0.784667   
     50. B(C  36,O  33)                  1.2982         0.783992   
     51. B(C  37,O  25)                  1.2982         0.784116   
     52. B(C  37,O  13)                  1.2984         0.783499   
     53. B(C  38,O  21)                  1.2963         0.789594   
     54. B(C  38,O  14)                  1.2983         0.783738   
     55. B(C  39,O  29)                  1.2996         0.780009   
     56. B(C  39,O  15)                  1.2974         0.786371   
     57. B(C  40,O  34)                  1.2987         0.782601   
     58. B(C  40,O  16)                  1.2968         0.788195   
     59. B(C  41,O  26)                  1.2972         0.786929   
     60. B(C  41,O  17)                  1.2994         0.780621   
     61. B(C  42,O  22)                  1.2978         0.785152   
     62. B(C  42,O  18)                  1.2980         0.784721   
     63. B(C  43,O  19)                  1.2980         0.784608   
     64. B(C  43,O  30)                  1.2982         0.784120   
     65. B(C  44,O  35)                  1.2981         0.784323   
     66. B(C  44,O  20)                  1.2984         0.783522   
     67. B(C  45,O  31)                  1.2967         0.788311   
     68. B(C  45,O  23)                  1.2986         0.782779   
     69. B(C  46,O  32)                  1.2970         0.787467   
     70. B(C  46,O  24)                  1.2992         0.781065   
     71. B(C  47,O  28)                  1.2981         0.784368   
     72. B(C  47,O  27)                  1.2982         0.783904   
     73. B(H  48,C  41)                  1.0867         0.364442   
     74. B(H  49,C  42)                  1.0898         0.360320   
     75. B(H  50,C  38)                  1.0864         0.364838   
     76. B(H  51,C  37)                  1.0899         0.360231   
     77. B(H  52,C  43)                  1.0898         0.360388   
     78. B(H  53,C  47)                  1.0898         0.360346   
     79. B(H  54,C  39)                  1.0869         0.364190   
     80. B(H  55,C  45)                  1.0863         0.364963   
     81. B(H  56,C  40)                  1.0866         0.364578   
     82. B(H  57,C  46)                  1.0868         0.364365   
     83. B(H  58,C  36)                  1.0898         0.360342   
     84. B(H  59,C  44)                  1.0899         0.360244   
     85. B(Al 61,Al 60)                  2.6152         0.340579   
     86. B(H  62,O  16)                  2.9926         0.010000   
     87. B(H  62,H  56)                  2.7918         0.010000   
     88. B(H  62,C  40)                  3.1102         0.010000   
     89. B(H  62,Al 61)                  1.6744         0.294868   
     90. B(H  62,Al 60)                  1.6761         0.293049   
     91. B(H  63,Al 61)                  1.6041         0.381770   
     92. B(H  64,C  42)                  3.0346         0.010000   
     93. B(H  64,H  49)                  2.7573         0.010000   
     94. B(H  64,Al 61)                  1.6747         0.294523   
     95. B(H  64,Al 60)                  1.6751         0.294167   
     96. B(H  65,O  18)                  2.5502         0.010000   
     97. B(H  65,O  16)                  2.5209         0.010000   
     98. B(H  65,Al 60)                  1.6050         0.380500   
     99. B(H  66,Al 60)                  1.6033         0.382875   
    100. B(H  67,H  56)                  3.2657         0.010000   
    101. B(H  67,O  34)                  3.2262         0.010000   
    102. B(H  67,H  59)                  3.1366         0.010000   
    103. B(H  67,O  35)                  2.9931         0.010000   
    104. B(H  67,O  18)                  2.9463         0.010000   
    105. B(H  67,O  22)                  2.8341         0.010000   
    106. B(H  67,C  42)                  2.8112         0.010000   
    107. B(H  67,C  40)                  2.7690         0.010000   
    108. B(H  67,C  44)                  2.6774         0.010000   
    109. B(H  67,O  20)                  2.6643         0.010000   
    110. B(H  67,O   8)                  2.5678         0.010000   
    111. B(H  67,O  16)                  2.5290         0.010000   
    112. B(H  67,Al 61)                  1.6026         0.383808   
    113. A(O   9,Zr  0,O  15)           70.8588         0.478818   
    114. A(O  13,Zr  0,O  14)          137.5690         0.523330   
    115. A(Zr  5,Zr  0,O  12)           74.8924         0.362325   
    116. A(O   9,Zr  0,O  11)           92.4463         0.445891   
    117. A(Zr  3,Zr  0,O  14)          144.3806         0.343464   
    118. A(O  11,Zr  0,O  14)           71.2789         0.464987   
    119. A(O   6,Zr  0,O  13)           82.3797         0.510725   
    120. A(Zr  5,Zr  0,O  15)          159.5143         0.345393   
    121. A(O  12,Zr  0,O  13)           83.0603         0.558497   
    122. A(Zr  5,Zr  0,O   6)           36.2419         0.334514   
    123. A(O  13,Zr  0,O  15)           82.5315         0.529412   
    124. A(O  11,Zr  0,O  15)          132.2124         0.470252   
    125. A(Zr  3,Zr  0,O   6)           36.8949         0.336079   
    126. A(O   6,Zr  0,O  15)          134.6394         0.487758   
    127. A(O  11,Zr  0,O  13)          144.2853         0.492212   
    128. A(O   6,Zr  0,O  11)           67.1509         0.454075   
    129. A(Zr  5,Zr  0,O   9)           91.1262         0.329010   
    130. A(Zr  3,Zr  0,O  11)           91.5038         0.325233   
    131. A(O   6,Zr  0,O  14)          138.3000         0.482251   
    132. A(O   9,Zr  0,O  12)          162.9818         0.504561   
    133. A(Zr  3,Zr  0,O  15)           97.7445         0.347028   
    134. A(O  12,Zr  0,O  15)          124.4382         0.532927   
    135. A(O   6,Zr  0,O  12)           95.6772         0.514091   
    136. A(O  14,Zr  0,O  15)           74.3977         0.499676   
    137. A(Zr  5,Zr  0,O  11)           35.8637         0.323736   
    138. A(Zr  5,Zr  0,O  13)          108.6920         0.360161   
    139. A(Zr  3,Zr  0,O   9)           35.7185         0.330540   
    140. A(Zr  5,Zr  0,O  14)          104.9474         0.341852   
    141. A(O  11,Zr  0,O  12)           81.9383         0.495430   
    142. A(Zr  3,Zr  0,O  12)          127.9402         0.364068   
    143. A(O   9,Zr  0,O  14)          112.0291         0.473435   
    144. A(O   6,Zr  0,O   9)           67.3941         0.462278   
    145. A(Zr  3,Zr  0,O  13)           72.8742         0.361889   
    146. A(O   9,Zr  0,O  13)           92.5602         0.501270   
    147. A(O  12,Zr  0,O  14)           81.4824         0.526797   
    148. A(Zr  3,Zr  0,Zr  5)           70.5647         0.247867   
    149. A(Zr  2,Zr  1,O   7)           36.3851         0.333343   
    150. A(O  10,Zr  1,O  18)          144.0460         0.497623   
    151. A(O  16,Zr  1,O  19)          123.8483         0.536310   
    152. A(O   7,Zr  1,O  17)          137.7562         0.475911   
    153. A(O  16,Zr  1,O  17)           74.2866         0.497929   
    154. A(Zr  4,Zr  1,O  10)           35.9017         0.328412   
    155. A(O   8,Zr  1,O  16)           71.2428         0.478329   
    156. A(O   7,Zr  1,O   8)           67.0735         0.457366   
    157. A(O  10,Zr  1,O  19)           81.9212         0.498412   
    158. A(Zr  2,Zr  1,O  19)          127.5826         0.360251   
    159. A(O  10,Zr  1,O  17)           70.7053         0.463283   
    160. A(O  17,Zr  1,O  19)           80.5801         0.518519   
    161. A(Zr  4,Zr  1,O   7)           36.3603         0.336490   
    162. A(O  18,Zr  1,O  19)           82.5047         0.557926   
    163. A(O  17,Zr  1,O  18)          137.4921         0.517690   
    164. A(O   8,Zr  1,O  10)           93.5082         0.445344   
    165. A(Zr  4,Zr  1,O  17)          104.2245         0.340170   
    166. A(O   8,Zr  1,O  19)          162.8016         0.497932   
    167. A(Zr  4,Zr  1,O  19)           74.8416         0.363744   
    168. A(Zr  4,Zr  1,O  16)          159.7666         0.350574   
    169. A(O   8,Zr  1,O  18)           91.9343         0.497143   
    170. A(O  10,Zr  1,O  16)          131.6135         0.478787   
    171. A(Zr  2,Zr  1,O  18)           73.0578         0.359728   
    172. A(Zr  2,Zr  1,O  16)           98.9891         0.347248   
    173. A(Zr  2,Zr  1,O  10)           91.5142         0.325369   
    174. A(Zr  4,Zr  1,O  18)          108.4667         0.363214   
    175. A(O   7,Zr  1,O  19)           95.9907         0.512225   
    176. A(O   7,Zr  1,O  18)           82.5650         0.511409   
    177. A(Zr  2,Zr  1,Zr  4)           70.4015         0.247620   
    178. A(O   7,Zr  1,O  10)           67.1412         0.457799   
    179. A(Zr  2,Zr  1,O  17)          145.2011         0.336977   
    180. A(O   8,Zr  1,O  17)          113.6748         0.462844   
    181. A(Zr  4,Zr  1,O   8)           91.7066         0.328131   
    182. A(Zr  2,Zr  1,O   8)           35.5794         0.325091   
    183. A(O   7,Zr  1,O  16)          135.3652         0.491937   
    184. A(O  16,Zr  1,O  18)           83.5952         0.535447   
    185. A(Zr  1,Zr  2,O  23)          103.0504         0.338165   
    186. A(O  21,Zr  2,O  22)          125.2794         0.536436   
    187. A(O   7,Zr  2,O   8)           67.0831         0.457528   
    188. A(O  21,Zr  2,O  23)           74.5871         0.498211   
    189. A(Zr  5,Zr  2,O   8)           36.7320         0.334825   
    190. A(Zr  5,Zr  2,O  11)           35.7522         0.327981   
    191. A(O   8,Zr  2,O  22)           93.3072         0.514137   
    192. A(O   7,Zr  2,O  22)           83.7945         0.499846   
    193. A(O  22,Zr  2,O  23)           81.0513         0.522465   
    194. A(Zr  1,Zr  2,O  22)           74.4819         0.361439   
    195. A(Zr  1,Zr  2,O   7)           35.5810         0.325162   
    196. A(O   8,Zr  2,O  21)          136.4096         0.490349   
    197. A(Zr  1,Zr  2,Zr  5)           70.2010         0.246531   
    198. A(Zr  5,Zr  2,O  21)           99.6897         0.347718   
    199. A(Zr  1,Zr  2,O  20)          111.9647         0.358879   
    200. A(O   7,Zr  2,O  20)          147.4883         0.495985   
    201. A(O   8,Zr  2,O  23)          137.6873         0.477818   
    202. A(O  11,Zr  2,O  20)           90.2754         0.498417   
    203. A(Zr  5,Zr  2,O  23)          146.8248         0.339640   
    204. A(O   7,Zr  2,O  21)          129.6056         0.476857   
    205. A(O  11,Zr  2,O  21)           71.5119         0.479175   
    206. A(O  20,Zr  2,O  23)          136.0253         0.518392   
    207. A(O   7,Zr  2,O  23)           70.6173         0.464747   
    208. A(O  11,Zr  2,O  22)          160.5600         0.502301   
    209. A(O   7,Zr  2,O  11)           91.9019         0.447268   
    210. A(Zr  5,Zr  2,O   7)           90.6084         0.326561   
    211. A(O  20,Zr  2,O  22)           83.4880         0.558502   
    212. A(Zr  1,Zr  2,O  11)           91.0125         0.326574   
    213. A(O   8,Zr  2,O  11)           67.6667         0.459730   
    214. A(O   8,Zr  2,O  20)           83.9391         0.510142   
    215. A(Zr  5,Zr  2,O  20)           72.8035         0.360477   
    216. A(O  11,Zr  2,O  23)          115.4270         0.466993   
    217. A(Zr  5,Zr  2,O  22)          125.0925         0.363052   
    218. A(Zr  1,Zr  2,O   8)           36.3940         0.333377   
    219. A(Zr  1,Zr  2,O  21)          158.3596         0.346195   
    220. A(O  20,Zr  2,O  21)           81.5876         0.532231   
    221. A(O   6,Zr  3,O  10)           92.5402         0.446815   
    222. A(Zr  4,Zr  3,O  24)          143.3265         0.340880   
    223. A(O   6,Zr  3,O  24)           71.0743         0.464014   
    224. A(O   9,Zr  3,O  26)          134.5670         0.489426   
    225. A(Zr  4,Zr  3,O  10)           35.6122         0.329328   
    226. A(Zr  0,Zr  3,O  27)          107.7364         0.361988   
    227. A(O  25,Zr  3,O  27)           83.2175         0.558673   
    228. A(O  26,Zr  3,O  27)           82.6937         0.531526   
    229. A(O   9,Zr  3,O  27)           81.8799         0.510773   
    230. A(Zr  4,Zr  3,O  27)           73.0506         0.360848   
    231. A(Zr  4,Zr  3,O  25)          128.7669         0.362922   
    232. A(O  24,Zr  3,O  26)           74.6605         0.499021   
    233. A(O  10,Zr  3,O  26)           71.1008         0.480217   
    234. A(O   6,Zr  3,O  26)          132.9906         0.473258   
    235. A(O   6,Zr  3,O   9)           66.9742         0.455238   
    236. A(Zr  0,Zr  3,Zr  4)           70.3671         0.248212   
    237. A(O  10,Zr  3,O  25)          163.6968         0.504216   
    238. A(Zr  0,Zr  3,O  25)           75.0143         0.364071   
    239. A(O  10,Zr  3,O  27)           92.6946         0.501072   
    240. A(Zr  0,Zr  3,O  24)          104.8734         0.341937   
    241. A(O   9,Zr  3,O  10)           67.2707         0.461870   
    242. A(O  25,Zr  3,O  26)          123.6399         0.534902   
    243. A(Zr  0,Zr  3,O   6)           35.9025         0.326044   
    244. A(O  24,Zr  3,O  27)          138.6421         0.520879   
    245. A(O   6,Zr  3,O  27)          143.3723         0.493743   
    246. A(O   6,Zr  3,O  25)           81.7288         0.496831   
    247. A(Zr  4,Zr  3,O   6)           91.0588         0.325053   
    248. A(Zr  4,Zr  3,O   9)           36.6252         0.334985   
    249. A(Zr  0,Zr  3,O  10)           91.3724         0.330337   
    250. A(Zr  4,Zr  3,O  26)           97.9468         0.347089   
    251. A(O  10,Zr  3,O  24)          111.3513         0.470805   
    252. A(Zr  0,Zr  3,O   9)           36.2499         0.336018   
    253. A(O  24,Zr  3,O  25)           81.3323         0.524174   
    254. A(O   9,Zr  3,O  25)           96.4857         0.513990   
    255. A(O   9,Zr  3,O  24)          137.8362         0.479792   
    256. A(Zr  0,Zr  3,O  26)          160.3060         0.348172   
    257. A(Zr  1,Zr  4,O  10)           36.7075         0.336621   
    258. A(O   9,Zr  4,O  10)           66.9748         0.456894   
    259. A(O   7,Zr  4,O  10)           67.3783         0.461790   
    260. A(Zr  3,Zr  4,O  10)           36.1615         0.334985   
    261. A(O  10,Zr  4,O  28)           95.6047         0.513403   
    262. A(O  28,Zr  4,O  29)           81.2919         0.523710   
    263. A(Zr  3,Zr  4,O  30)          108.1982         0.360755   
    264. A(O  10,Zr  4,O  29)          138.0141         0.479913   
    265. A(O  10,Zr  4,O  30)           81.9934         0.510628   
    266. A(O   9,Zr  4,O  30)          143.6842         0.495436   
    267. A(O  29,Zr  4,O  31)           74.9992         0.500148   
    268. A(O  10,Zr  4,O  31)          134.6172         0.490400   
    269. A(Zr  3,Zr  4,O  31)          159.8995         0.347718   
    270. A(Zr  1,Zr  4,O  28)          128.0739         0.364363   
    271. A(O   9,Zr  4,O  31)          132.8706         0.475937   
    272. A(O   7,Zr  4,O  30)           93.3115         0.500846   
    273. A(O   9,Zr  4,O  29)           71.1644         0.465828   
    274. A(Zr  1,Zr  4,O  31)           97.9192         0.349438   
    275. A(O  29,Zr  4,O  30)          138.1254         0.520868   
    276. A(O  30,Zr  4,O  31)           82.4517         0.532453   
    277. A(O  28,Zr  4,O  30)           83.1103         0.557866   
    278. A(Zr  1,Zr  4,Zr  3)           70.1523         0.248601   
    279. A(O   7,Zr  4,O  31)           71.3047         0.481087   
    280. A(O   9,Zr  4,O  28)           81.7043         0.498111   
    281. A(O   7,Zr  4,O   9)           91.7363         0.448358   
    282. A(Zr  3,Zr  4,O  28)           74.7617         0.362544   
    283. A(Zr  3,Zr  4,O   9)           35.7524         0.326121   
    284. A(O  28,Zr  4,O  31)          124.3276         0.535372   
    285. A(Zr  3,Zr  4,O   7)           90.7140         0.329277   
    286. A(Zr  1,Zr  4,O   9)           90.8543         0.327699   
    287. A(Zr  1,Zr  4,O   7)           35.8147         0.330876   
    288. A(O   7,Zr  4,O  29)          111.5600         0.470843   
    289. A(Zr  1,Zr  4,O  29)          143.8642         0.342634   
    290. A(O   7,Zr  4,O  28)          162.9658         0.503556   
    291. A(Zr  3,Zr  4,O  29)          104.7239         0.340958   
    292. A(Zr  1,Zr  4,O  30)           73.2316         0.362563   
    293. A(O  34,Zr  5,O  35)           81.9778         0.524823   
    294. A(O  33,Zr  5,O  35)           82.6106         0.558507   
    295. A(O  32,Zr  5,O  35)          124.6668         0.534798   
    296. A(O   8,Zr  5,O  35)           82.5598         0.497843   
    297. A(Zr  0,Zr  5,O   6)           35.5883         0.327811   
    298. A(O  32,Zr  5,O  34)           74.4659         0.498586   
    299. A(O  11,Zr  5,O  34)          138.2260         0.478882   
    300. A(Zr  0,Zr  5,O  34)          145.0133         0.340417   
    301. A(O   8,Zr  5,O  33)          145.1132         0.493665   
    302. A(O   8,Zr  5,O  32)          131.6524         0.473231   
    303. A(O   6,Zr  5,O  32)           71.0026         0.478048   
    304. A(Zr  2,Zr  5,O   6)           91.1934         0.328267   
    305. A(Zr  2,Zr  5,O  32)          159.2698         0.346663   
    306. A(Zr  0,Zr  5,O  32)           98.2426         0.346172   
    307. A(Zr  0,Zr  5,Zr  2)           70.5182         0.247162   
    308. A(Zr  2,Zr  5,O  33)          109.5595         0.360366   
    309. A(Zr  0,Zr  5,O  33)           72.7615         0.359849   
    310. A(O   6,Zr  5,O  33)           91.6554         0.498739   
    311. A(O  11,Zr  5,O  33)           82.6330         0.509015   
    312. A(O   6,Zr  5,O  34)          113.0899         0.469343   
    313. A(Zr  2,Zr  5,O  34)          104.3930         0.340897   
    314. A(O   8,Zr  5,O  34)           70.9212         0.464633   
    315. A(O  32,Zr  5,O  33)           82.2544         0.530242   
    316. A(O  33,Zr  5,O  34)          137.2457         0.520369   
    317. A(O   6,Zr  5,O  35)          161.9344         0.502970   
    318. A(Zr  2,Zr  5,O  35)           74.8160         0.363168   
    319. A(Zr  0,Zr  5,O  35)          126.7455         0.362646   
    320. A(O  11,Zr  5,O  32)          135.1079         0.487805   
    321. A(O   8,Zr  5,O  11)           67.3684         0.454746   
    322. A(O   6,Zr  5,O  11)           67.4700         0.459332   
    323. A(Zr  2,Zr  5,O  11)           36.3677         0.334267   
    324. A(Zr  0,Zr  5,O  11)           36.8655         0.333800   
    325. A(O  11,Zr  5,O  35)           94.7333         0.513352   
    326. A(O   6,Zr  5,O   8)           92.7956         0.445798   
    327. A(Zr  2,Zr  5,O   8)           35.7911         0.325304   
    328. A(Zr  0,Zr  5,O   8)           91.5421         0.324854   
    329. A(Zr  3,O   6,Zr  5)          134.9370         0.445328   
    330. A(Zr  0,O   6,Zr  5)          108.1698         0.460413   
    331. A(Zr  0,O   6,Zr  3)          107.2026         0.455329   
    332. A(Zr  2,O   7,Zr  4)          135.2812         0.449118   
    333. A(Zr  1,O   7,Zr  4)          107.8250         0.461593   
    334. A(Zr  1,O   7,Zr  2)          108.0339         0.457477   
    335. A(Zr  1,O   8,Zr  2)          108.0266         0.457417   
    336. A(Zr  5,O   8,H  67)          110.8470         0.164237   
    337. A(Zr  2,O   8,H  67)           92.2981         0.167268   
    338. A(Zr  1,O   8,H  67)           96.4894         0.164614   
    339. A(Zr  2,O   8,Zr  5)          107.4768         0.455577   
    340. A(Zr  1,O   8,Zr  5)          133.6483         0.443148   
    341. A(Zr  3,O   9,Zr  4)          107.6224         0.456895   
    342. A(Zr  0,O   9,Zr  4)          134.8974         0.448737   
    343. A(Zr  0,O   9,Zr  3)          108.0316         0.462184   
    344. A(Zr  3,O  10,Zr  4)          108.2263         0.461869   
    345. A(Zr  1,O  10,Zr  4)          107.3908         0.457994   
    346. A(Zr  1,O  10,Zr  3)          134.2169         0.449509   
    347. A(Zr  2,O  11,Zr  5)          107.8801         0.458890   
    348. A(Zr  0,O  11,Zr  5)          107.2708         0.453014   
    349. A(Zr  0,O  11,Zr  2)          134.6360         0.443683   
    350. A(Zr  0,O  12,C  36)          130.9444         0.511725   
    351. A(Zr  0,O  13,C  37)          133.5296         0.508237   
    352. A(Zr  0,O  14,C  38)          140.6403         0.479957   
    353. A(Zr  0,O  15,C  39)          128.3286         0.485733   
    354. A(Zr  1,O  16,C  40)          129.6475         0.490415   
    355. A(C  40,O  16,H  62)           82.8659         0.143765   
    356. A(H  62,O  16,H  67)           50.9049         0.100654   
    357. A(H  62,O  16,H  65)           54.7106         0.100734   
    358. A(Zr  1,O  16,H  62)          138.8297         0.147101   
    359. A(H  65,O  16,H  67)           81.3176         0.106251   
    360. A(C  40,O  16,H  67)           86.4152         0.169519   
    361. A(Zr  1,O  16,H  67)          100.5964         0.174424   
    362. A(C  40,O  16,H  65)          133.2442         0.170067   
    363. A(Zr  1,O  16,H  65)           97.0013         0.175005   
    364. A(Zr  1,O  17,C  41)          139.8925         0.473608   
    365. A(Zr  1,O  18,C  42)          133.3769         0.509393   
    366. A(H  65,O  18,H  67)           73.1397         0.100900   
    367. A(C  42,O  18,H  67)           71.2142         0.145854   
    368. A(Zr  1,O  18,H  67)           89.1736         0.152295   
    369. A(C  42,O  18,H  65)          115.1583         0.168035   
    370. A(Zr  1,O  18,H  65)           97.5716         0.176989   
    371. A(Zr  1,O  19,C  43)          131.0937         0.510191   
    372. A(C  44,O  20,H  67)           76.4957         0.160856   
    373. A(Zr  2,O  20,H  67)           92.2505         0.168773   
    374. A(Zr  2,O  20,C  44)          133.4972         0.507929   
    375. A(Zr  2,O  21,C  38)          130.2708         0.488938   
    376. A(Zr  2,O  22,C  42)          131.6271         0.512102   
    377. A(C  42,O  22,H  67)           75.7262         0.151425   
    378. A(Zr  2,O  22,H  67)           87.5605         0.158927   
    379. A(Zr  2,O  23,C  45)          140.8669         0.475692   
    380. A(Zr  3,O  24,C  46)          139.7214         0.477310   
    381. A(Zr  3,O  25,C  37)          130.7852         0.511664   
    382. A(Zr  3,O  26,C  41)          128.4065         0.487556   
    383. A(Zr  3,O  27,C  47)          133.3662         0.508438   
    384. A(Zr  4,O  28,C  47)          131.1629         0.511111   
    385. A(Zr  4,O  29,C  39)          139.2980         0.477312   
    386. A(Zr  4,O  30,C  43)          133.2409         0.508322   
    387. A(Zr  4,O  31,C  45)          129.8486         0.488686   
    388. A(Zr  5,O  32,C  46)          128.8420         0.487063   
    389. A(Zr  5,O  33,C  36)          133.6085         0.507814   
    390. A(Zr  5,O  34,C  40)          140.8607         0.477611   
    391. A(C  40,O  34,H  67)           58.1036         0.134023   
    392. A(Zr  5,O  34,H  67)           91.8488         0.135391   
    393. A(C  44,O  35,H  67)           63.4351         0.143679   
    394. A(Zr  5,O  35,H  67)          101.2229         0.150292   
    395. A(Zr  5,O  35,C  44)          130.8330         0.512179   
    396. A(O  12,C  36,O  33)          127.4621         0.466526   
    397. A(O  33,C  36,H  58)          116.2537         0.365058   
    398. A(O  12,C  36,H  58)          116.2841         0.365112   
    399. A(O  13,C  37,O  25)          127.4727         0.466412   
    400. A(O  25,C  37,H  51)          116.2824         0.365049   
    401. A(O  13,C  37,H  51)          116.2447         0.364999   
    402. A(O  14,C  38,O  21)          129.1967         0.467033   
    403. A(O  21,C  38,H  50)          115.3717         0.366280   
    404. A(O  14,C  38,H  50)          115.4315         0.365813   
    405. A(O  15,C  39,O  29)          129.3090         0.466276   
    406. A(O  29,C  39,H  54)          115.3905         0.365403   
    407. A(O  15,C  39,H  54)          115.3000         0.365912   
    408. A(O  16,C  40,O  34)          129.2777         0.466757   
    409. A(O  34,C  40,H  62)          132.8807         0.140435   
    410. A(O  16,C  40,H  62)           72.6958         0.140518   
    411. A(H  56,C  40,H  62)           63.0830         0.126733   
    412. A(H  62,C  40,H  67)           47.9589         0.098315   
    413. A(H  56,C  40,H  67)          107.5712         0.139109   
    414. A(O  34,C  40,H  67)           98.4310         0.157306   
    415. A(O  16,C  40,H  67)           65.7194         0.157416   
    416. A(O  34,C  40,H  56)          115.3740         0.365678   
    417. A(O  16,C  40,H  56)          115.3467         0.366124   
    418. A(O  17,C  41,O  26)          129.3116         0.466404   
    419. A(O  26,C  41,H  48)          115.3190         0.366000   
    420. A(O  17,C  41,H  48)          115.3694         0.365496   
    421. A(O  18,C  42,O  22)          127.4249         0.466658   
    422. A(H  64,C  42,H  67)           49.7470         0.098578   
    423. A(H  49,C  42,H  64)           65.0114         0.129072   
    424. A(O  22,C  42,H  64)          112.1000         0.143810   
    425. A(O  18,C  42,H  64)           89.6180         0.143803   
    426. A(H  49,C  42,H  67)          112.0492         0.137255   
    427. A(O  22,C  42,H  67)           77.6960         0.155002   
    428. A(O  18,C  42,H  67)           82.8654         0.154994   
    429. A(O  22,C  42,H  49)          116.3000         0.365146   
    430. A(O  18,C  42,H  49)          116.2742         0.365112   
    431. A(O  30,C  43,H  52)          116.2436         0.365076   
    432. A(O  19,C  43,H  52)          116.2717         0.365115   
    433. A(O  19,C  43,O  30)          127.4844         0.466533   
    434. A(H  59,C  44,H  67)          104.7057         0.142928   
    435. A(O  35,C  44,H  67)           90.8658         0.162746   
    436. A(O  20,C  44,H  67)           75.3709         0.162729   
    437. A(O  35,C  44,H  59)          116.3466         0.365067   
    438. A(O  20,C  44,H  59)          116.2827         0.365003   
    439. A(O  20,C  44,O  35)          127.3647         0.466437   
    440. A(O  31,C  45,H  55)          115.3113         0.366200   
    441. A(O  23,C  45,H  55)          115.3084         0.365758   
    442. A(O  23,C  45,O  31)          129.3797         0.466790   
    443. A(O  32,C  46,H  57)          115.3322         0.366029   
    444. A(O  24,C  46,H  57)          115.4244         0.365518   
    445. A(O  24,C  46,O  32)          129.2431         0.466510   
    446. A(O  28,C  47,H  53)          116.2612         0.365089   
    447. A(O  27,C  47,H  53)          116.2218         0.365052   
    448. A(O  27,C  47,O  28)          127.5167         0.466484   
    449. A(C  42,H  49,H  64)           93.9953         0.116758   
    450. A(H  62,H  56,H  67)           46.0606         0.091430   
    451. A(C  40,H  56,H  67)           53.9342         0.107236   
    452. A(C  40,H  56,H  62)           96.6095         0.116044   
    453. A(C  44,H  59,H  67)           55.6551         0.109248   
    454. A(H  65,Al 60,H  66)          152.9649         0.378071   
    455. A(H  64,Al 60,H  66)           98.7497         0.361715   
    456. A(H  62,Al 60,H  66)           99.7313         0.361480   
    457. A(Al 61,Al 60,H  66)          101.1875         0.432877   
    458. A(H  64,Al 60,H  65)          100.3623         0.361332   
    459. A(H  62,Al 60,H  65)          102.9822         0.361097   
    460. A(Al 61,Al 60,H  65)          105.6924         0.432393   
    461. A(H  62,Al 60,H  64)           77.3280         0.345701   
    462. A(Al 61,Al 60,H  64)           38.6706         0.412963   
    463. A(Al 61,Al 60,H  62)           38.6674         0.412684   
    464. A(H  64,Al 61,H  67)           97.6419         0.361940   
    465. A(H  63,Al 61,H  67)          159.6121         0.378449   
    466. A(H  62,Al 61,H  67)           94.6393         0.362013   
    467. A(Al 60,Al 61,H  67)           98.5551         0.433066   
    468. A(H  63,Al 61,H  64)          100.7185         0.361612   
    469. A(H  62,Al 61,H  64)           77.3832         0.346131   
    470. A(Al 60,Al 61,H  64)           38.6797         0.413052   
    471. A(H  62,Al 61,H  63)           97.9360         0.361684   
    472. A(Al 60,Al 61,H  63)          101.3015         0.432652   
    473. A(Al 60,Al 61,H  62)           38.7136         0.413137   
    474. A(O  16,H  62,C  40)           24.4383         0.096457   
    475. A(C  40,H  62,H  56)           20.3075         0.094028   
    476. A(C  40,H  62,Al 61)           97.7543         0.131475   
    477. A(C  40,H  62,Al 60)          113.7868         0.131416   
    478. A(O  16,H  62,H  56)           40.6322         0.094344   
    479. A(O  16,H  62,Al 61)           95.8261         0.134152   
    480. A(O  16,H  62,Al 60)           90.7219         0.134089   
    481. A(H  56,H  62,Al 61)          113.3315         0.119443   
    482. A(H  56,H  62,Al 60)          119.4365         0.119401   
    483. A(Al 60,H  62,Al 61)          102.6190         0.345839   
    484. A(C  42,H  64,H  49)           20.9933         0.094509   
    485. A(C  42,H  64,Al 61)           97.9166         0.134217   
    486. A(C  42,H  64,Al 60)          111.4534         0.134204   
    487. A(H  49,H  64,Al 61)          114.7689         0.120321   
    488. A(H  49,H  64,Al 60)          116.4253         0.120313   
    489. A(Al 60,H  64,Al 61)          102.6497         0.345993   
    490. A(O  16,H  65,O  18)           63.5611         0.105950   
    491. A(O  18,H  65,Al 60)          121.7475         0.158102   
    492. A(O  16,H  65,Al 60)          111.4597         0.159808   
    493. A(O  34,H  67,H  56)           36.2350         0.091967   
    494. A(H  56,H  67,H  59)          110.1754         0.090824   
    495. A(O  35,H  67,H  56)           80.9038         0.092602   
    496. A(O  22,H  67,H  56)          136.2019         0.093111   
    497. A(C  42,H  67,H  56)          120.9067         0.093347   
    498. A(C  40,H  67,H  56)           18.4946         0.093502   
    499. A(C  44,H  67,H  56)          106.0404         0.093858   
    500. A(O  20,H  67,H  56)          126.5513         0.093735   
    501. A(O   8,H  67,H  56)           78.1757         0.094130   
    502. A(H  56,H  67,Al 61)           95.8509         0.110790   
    503. A(O  34,H  67,H  59)           87.3765         0.092304   
    504. A(O  18,H  67,O  34)           95.7330         0.095783   
    505. A(O  22,H  67,O  34)          114.4539         0.096447   
    506. A(O  34,H  67,C  42)          116.6504         0.096873   
    507. A(O  34,H  67,C  44)           75.6550         0.097799   
    508. A(O  20,H  67,O  34)           90.9460         0.097576   
    509. A(O   8,H  67,O  34)           48.3084         0.098292   
    510. A(O  16,H  67,O  34)           46.1549         0.098597   
    511. A(O  34,H  67,Al 61)          126.1777         0.128466   
    512. A(O  18,H  67,H  59)          139.0665         0.093170   
    513. A(O  22,H  67,H  59)           94.3489         0.093578   
    514. A(C  42,H  67,H  59)          120.4587         0.093840   
    515. A(C  44,H  67,H  59)           19.6392         0.094409   
    516. A(O  20,H  67,H  59)           39.9658         0.094272   
    517. A(O   8,H  67,H  59)           89.0155         0.094712   
    518. A(O  16,H  67,H  59)          132.9814         0.094899   
    519. A(H  59,H  67,Al 61)           93.1123         0.113260   
    520. A(O  18,H  67,O  35)          121.8869         0.097234   
    521. A(O  22,H  67,O  35)           99.5708         0.098039   
    522. A(O  35,H  67,C  42)          122.4643         0.098557   
    523. A(O  35,H  67,C  40)           73.3988         0.098898   
    524. A(O  35,H  67,C  44)           25.6991         0.099681   
    525. A(O  20,H  67,O  35)           48.1515         0.099410   
    526. A(O   8,H  67,O  35)           57.8812         0.100279   
    527. A(O  16,H  67,O  35)           94.5246         0.100649   
    528. A(O  35,H  67,Al 61)          121.5813         0.136907   
    529. A(O  18,H  67,O  22)           47.4352         0.098398   
    530. A(O  18,H  67,C  42)           25.9204         0.098936   
    531. A(O  18,H  67,C  40)           84.9303         0.099291   
    532. A(O  18,H  67,C  44)          123.4509         0.100105   
    533. A(O  18,H  67,O  20)           99.1054         0.099823   
    534. A(O   8,H  67,O  18)           64.5154         0.100726   
    535. A(O  16,H  67,O  18)           57.7908         0.101111   
    536. A(O  18,H  67,Al 61)          116.5147         0.138807   
    537. A(O  22,H  67,C  42)           26.5778         0.099908   
    538. A(C  40,H  67,H  59)          109.0690         0.094012   
    539. A(O  22,H  67,C  40)          119.6365         0.100297   
    540. A(O  22,H  67,C  44)           85.0399         0.101191   
    541. A(O  20,H  67,O  22)           56.9904         0.100881   
    542. A(O  35,H  67,H  59)           38.6288         0.093011   
    543. A(O   8,H  67,O  22)           66.1882         0.101874   
    544. A(O  16,H  67,O  22)           98.9183         0.102296   
    545. A(O  22,H  67,Al 61)          119.1443         0.143680   
    546. A(C  40,H  67,C  42)          110.1065         0.100945   
    547. A(C  42,H  67,C  44)          111.4053         0.101890   
    548. A(O  20,H  67,C  42)           83.4923         0.101562   
    549. A(O   8,H  67,C  42)           74.4719         0.102611   
    550. A(O  34,H  67,C  40)           23.4653         0.097154   
    551. A(O  16,H  67,C  42)           83.5602         0.103058   
    552. A(C  42,H  67,Al 61)          109.0607         0.146813   
    553. A(C  40,H  67,C  44)           98.9944         0.102350   
    554. A(O  34,H  67,O  35)           50.2317         0.095524   
    555. A(O  20,H  67,C  40)          113.2214         0.102010   
    556. A(O   8,H  67,C  40)           59.7730         0.103097   
    557. A(O  16,H  67,C  40)           27.8654         0.103559   
    558. A(O  16,H  67,H  56)           38.1375         0.094299   
    559. A(C  40,H  67,Al 61)          114.2567         0.148876   
    560. A(O  20,H  67,C  44)           28.1334         0.103040   
    561. A(O   8,H  67,C  44)           69.4299         0.104212   
    562. A(O  16,H  67,C  44)          117.8355         0.104711   
    563. A(C  44,H  67,Al 61)          112.7448         0.153612   
    564. A(O   8,H  67,O  20)           62.8162         0.103826   
    565. A(O  16,H  67,O  20)          119.7208         0.104312   
    566. A(O  18,H  67,H  56)           95.0033         0.092745   
    567. A(O  20,H  67,Al 61)          121.8522         0.151970   
    568. A(O   8,H  67,O  16)           56.9718         0.105591   
    569. A(O   8,H  67,Al 61)          174.0266         0.157230   
    570. A(O  16,H  67,Al 61)          118.0512         0.159467   
    571. D(O   7,Zr  2,Zr  1,Zr  4)    -16.7010         0.010000   
    572. D(Zr  5,Zr  2,Zr  1,Zr  4)    104.8056         0.010000   
    573. D(Zr  5,Zr  2,Zr  1,O   7)    121.5066         0.010000   
    574. D(Zr  4,Zr  3,Zr  0,Zr  5)   -104.4140         0.010000   
    575. D(Zr  4,Zr  3,Zr  0,O   6)   -121.7502         0.010000   
    576. D(O   6,Zr  3,Zr  0,Zr  5)     17.3362         0.010000   
    577. D(Zr  1,Zr  4,Zr  3,O   6)     74.7962         0.010000   
    578. D(O   7,Zr  4,Zr  3,Zr  0)     74.7890         0.010000   
    579. D(Zr  3,Zr  4,Zr  1,Zr  2)   -104.8130         0.010000   
    580. D(O   7,Zr  4,Zr  1,Zr  2)     16.7111         0.010000   
    581. D(Zr  1,Zr  4,Zr  3,Zr  0)    104.7127         0.010000   
    582. D(Zr  3,Zr  4,Zr  1,O   7)   -121.5241         0.010000   
    583. D(O   6,Zr  5,Zr  0,Zr  3)    -17.6133         0.010000   
    584. D(Zr  2,Zr  5,Zr  0,Zr  3)    104.5480         0.010000   
    585. D(Zr  2,Zr  5,Zr  0,O   6)    122.1613         0.010000   
    586. D(O   6,Zr  5,Zr  2,Zr  1)    -74.5773         0.010000   
    587. D(Zr  0,Zr  5,Zr  2,O   7)    -74.3572         0.010000   
    588. D(Zr  0,Zr  5,Zr  2,Zr  1)   -104.0997         0.010000   
    589. D(Zr  5,O   6,Zr  3,Zr  0)   -140.3598         0.010000   
    590. D(Zr  3,O   6,Zr  5,Zr  0)    140.1031         0.010000   
    591. D(Zr  0,O   6,Zr  5,O   8)    -88.7430         0.010000   
    592. D(Zr  0,O   6,Zr  5,Zr  2)    -52.9641         0.010000   
    593. D(Zr  0,O   6,Zr  3,O   9)     24.8772         0.010000   
    594. D(Zr  5,O   6,Zr  0,Zr  3)    151.6208         0.010000   
    595. D(Zr  3,O   6,Zr  0,O   9)    -24.4599         0.010000   
    596. D(Zr  3,O   6,Zr  0,Zr  5)   -151.6208         0.010000   
    597. D(Zr  0,O   6,Zr  3,Zr  4)     53.2306         0.010000   
    598. D(Zr  2,O   7,Zr  1,O   8)     23.8478         0.010000   
    599. D(Zr  1,O   7,Zr  2,O   8)    -24.3478         0.010000   
    600. D(Zr  1,O   7,Zr  2,Zr  5)    -53.3432         0.010000   
    601. D(Zr  4,O   7,Zr  1,Zr  2)   -152.8291         0.010000   
    602. D(Zr  2,O   7,Zr  1,Zr  4)    152.8291         0.010000   
    603. D(Zr  2,O   7,Zr  4,Zr  1)   -141.8949         0.010000   
    604. D(Zr  1,O   7,Zr  4,Zr  3)     53.3069         0.010000   
    605. D(Zr  4,O   7,Zr  2,Zr  1)    141.8418         0.010000   
    606. D(Zr  1,O   7,Zr  4,O   9)     89.0536         0.010000   
    607. D(Zr  1,O   8,Zr  5,Zr  2)   -138.4783         0.010000   
    608. D(Zr  2,O   8,Zr  5,Zr  0)     52.5687         0.010000   
    609. D(Zr  1,O   8,Zr  5,Zr  0)    -85.9096         0.010000   
    610. D(Zr  5,O   8,Zr  2,Zr  1)   -149.7064         0.010000   
    611. D(Zr  1,O   8,Zr  2,O   7)     23.8470         0.010000   
    612. D(Zr  1,O   8,Zr  2,Zr  5)    149.7064         0.010000   
    613. D(Zr  5,O   8,Zr  1,Zr  2)    138.3221         0.010000   
    614. D(Zr  2,O   8,Zr  1,Zr  4)    -51.8001         0.010000   
    615. D(Zr  2,O   8,Zr  1,O   7)    -24.3441         0.010000   
    616. D(Zr  0,O   9,Zr  4,Zr  1)     87.8091         0.010000   
    617. D(Zr  0,O   9,Zr  4,Zr  3)    140.8056         0.010000   
    618. D(Zr  3,O   9,Zr  4,Zr  1)    -52.9964         0.010000   
    619. D(Zr  0,O   9,Zr  3,Zr  4)   -151.9150         0.010000   
    620. D(Zr  0,O   9,Zr  3,O   6)    -24.6572         0.010000   
    621. D(Zr  4,O   9,Zr  3,Zr  0)    151.9150         0.010000   
    622. D(Zr  3,O   9,Zr  0,Zr  5)     53.3156         0.010000   
    623. D(Zr  3,O   9,Zr  0,O   6)     25.2008         0.010000   
    624. D(Zr  4,O   9,Zr  0,Zr  3)   -140.6980         0.010000   
    625. D(Zr  4,O  10,Zr  1,Zr  2)     52.5023         0.010000   
    626. D(Zr  4,O  10,Zr  3,Zr  0)    -52.3651         0.010000   
    627. D(Zr  1,O  10,Zr  3,Zr  4)    139.4174         0.010000   
    628. D(Zr  3,O  10,Zr  1,Zr  4)   -139.6464         0.010000   
    629. D(Zr  3,O  10,Zr  4,Zr  1)    150.7526         0.010000   
    630. D(Zr  1,O  10,Zr  4,Zr  3)   -150.7526         0.010000   
    631. D(Zr  1,O  10,Zr  4,O   7)    -24.3797         0.010000   
    632. D(Zr  1,O  10,Zr  3,Zr  0)     87.0523         0.010000   
    633. D(Zr  3,O  10,Zr  1,Zr  2)    -87.1441         0.010000   
    634. D(Zr  2,O  11,Zr  5,Zr  0)   -150.8580         0.010000   
    635. D(Zr  0,O  11,Zr  5,Zr  2)    150.8580         0.010000   
    636. D(Zr  5,O  11,Zr  2,Zr  1)     52.8169         0.010000   
    637. D(Zr  0,O  11,Zr  2,Zr  5)   -139.1941         0.010000   
    638. D(Zr  0,O  11,Zr  2,Zr  1)    -86.3772         0.010000   
    639. D(Zr  5,O  11,Zr  0,Zr  3)    -52.8095         0.010000   
    640. D(Zr  0,O  11,Zr  5,O   6)     23.8915         0.010000   
    641. D(Zr  2,O  11,Zr  0,Zr  5)    139.3602         0.010000   
    642. D(Zr  2,O  11,Zr  0,Zr  3)     86.5507         0.010000   
    643. D(C  36,O  12,Zr  0,Zr  5)     -5.3318         0.010000   
    644. D(C  36,O  12,Zr  0,Zr  3)     44.3163         0.010000   
    645. D(C  37,O  13,Zr  0,Zr  5)    -57.7745         0.010000   
    646. D(C  37,O  13,Zr  0,Zr  3)      4.0733         0.010000   
    647. D(C  38,O  14,Zr  0,Zr  5)      7.2920         0.010000   
    648. D(C  38,O  14,Zr  0,Zr  3)    -70.0745         0.010000   
    649. D(C  39,O  15,Zr  0,Zr  5)    -19.7044         0.010000   
    650. D(C  39,O  15,Zr  0,Zr  3)    -73.1560         0.010000   
    651. D(H  65,O  16,Zr  1,Zr  2)   -106.1212         0.010000   
    652. D(C  40,O  16,Zr  1,Zr  4)     14.0173         0.010000   
    653. D(C  40,O  16,Zr  1,Zr  2)     70.4605         0.010000   
    654. D(C  41,O  17,Zr  1,Zr  4)     -5.4663         0.010000   
    655. D(C  41,O  17,Zr  1,Zr  2)     70.5531         0.010000   
    656. D(H  65,O  18,Zr  1,Zr  2)    135.5111         0.010000   
    657. D(C  42,O  18,Zr  1,Zr  4)     61.6909         0.010000   
    658. D(C  42,O  18,Zr  1,Zr  2)     -0.1832         0.010000   
    659. D(C  43,O  19,Zr  1,Zr  4)      3.2809         0.010000   
    660. D(C  43,O  19,Zr  1,Zr  2)    -46.4015         0.010000   
    661. D(H  67,O  20,Zr  2,Zr  1)     17.8514         0.010000   
    662. D(C  44,O  20,Zr  2,Zr  5)      3.9289         0.010000   
    663. D(C  44,O  20,Zr  2,Zr  1)    -55.5974         0.010000   
    664. D(C  38,O  21,Zr  2,Zr  5)    -68.4716         0.010000   
    665. D(C  38,O  21,Zr  2,Zr  1)     -8.5651         0.010000   
    666. D(H  67,O  22,Zr  2,Zr  1)    -66.7550         0.010000   
    667. D(C  42,O  22,Zr  2,Zr  5)     52.9901         0.010000   
    668. D(C  42,O  22,Zr  2,Zr  1)      1.6522         0.010000   
    669. D(C  45,O  23,Zr  2,Zr  5)    -61.4006         0.010000   
    670. D(C  45,O  23,Zr  2,Zr  1)     12.2875         0.010000   
    671. D(C  46,O  24,Zr  3,Zr  4)     74.8560         0.010000   
    672. D(C  46,O  24,Zr  3,Zr  0)     -2.1168         0.010000   
    673. D(C  37,O  25,Zr  3,Zr  4)    -43.2617         0.010000   
    674. D(C  37,O  25,Zr  3,Zr  0)      5.3573         0.010000   
    675. D(C  41,O  26,Zr  3,Zr  4)     72.4004         0.010000   
    676. D(C  41,O  26,Zr  3,Zr  0)     20.4750         0.010000   
    677. D(C  47,O  27,Zr  3,Zr  4)     -2.1732         0.010000   
    678. D(C  47,O  27,Zr  3,Zr  0)     60.0353         0.010000   
    679. D(C  47,O  28,Zr  4,Zr  3)     -3.7616         0.010000   
    680. D(C  47,O  28,Zr  4,Zr  1)     44.9074         0.010000   
    681. D(C  39,O  29,Zr  4,Zr  3)      1.5357         0.010000   
    682. D(C  39,O  29,Zr  4,Zr  1)    -74.8494         0.010000   
    683. D(C  43,O  30,Zr  4,Zr  3)    -59.9337         0.010000   
    684. D(C  43,O  30,Zr  4,Zr  1)      1.8809         0.010000   
    685. D(C  45,O  31,Zr  4,Zr  3)    -18.9212         0.010000   
    686. D(C  45,O  31,Zr  4,Zr  1)    -70.7994         0.010000   
    687. D(C  46,O  32,Zr  5,Zr  2)     16.5635         0.010000   
    688. D(C  46,O  32,Zr  5,Zr  0)     71.8635         0.010000   
    689. D(C  36,O  33,Zr  5,Zr  0)     -4.2815         0.010000   
    690. D(C  36,O  33,Zr  5,Zr  2)     56.9796         0.010000   
    691. D(H  67,O  34,Zr  5,Zr  0)    103.1721         0.010000   
    692. D(C  40,O  34,Zr  5,Zr  2)    -10.3788         0.010000   
    693. D(C  40,O  34,Zr  5,Zr  0)     66.0995         0.010000   
    694. D(C  44,O  35,Zr  5,Zr  0)    -42.2456         0.010000   
    695. D(H  67,O  35,Zr  5,Zr  0)   -106.7072         0.010000   
    696. D(C  44,O  35,Zr  5,Zr  2)      8.4167         0.010000   
    697. D(O  33,C  36,O  12,Zr  0)      4.7873         0.047238   
    698. D(H  58,C  36,O  33,Zr  5)   -177.5164         0.047147   
    699. D(O  12,C  36,O  33,Zr  5)      2.3307         0.047147   
    700. D(H  58,C  36,O  12,Zr  0)   -175.3656         0.047238   
    701. D(H  51,C  37,O  25,Zr  3)    175.2081         0.047164   
    702. D(O  13,C  37,O  25,Zr  3)     -4.9679         0.047164   
    703. D(H  51,C  37,O  13,Zr  0)    177.8269         0.047081   
    704. D(O  25,C  37,O  13,Zr  0)     -1.9972         0.047081   
    705. D(H  50,C  38,O  21,Zr  2)   -162.8502         0.047903   
    706. D(O  14,C  38,O  21,Zr  2)     17.0864         0.047903   
    707. D(H  50,C  38,O  14,Zr  0)   -156.0155         0.047113   
    708. D(O  21,C  38,O  14,Zr  0)     24.0480         0.047113   
    709. D(H  54,C  39,O  29,Zr  4)   -150.9003         0.046615   
    710. D(O  15,C  39,O  29,Zr  4)     29.3677         0.046615   
    711. D(H  54,C  39,O  15,Zr  0)   -161.0823         0.047467   
    712. D(O  29,C  39,O  15,Zr  0)     18.6500         0.047467   
    713. D(H  56,C  40,O  34,Zr  5)    159.2917         0.060927   
    714. D(O  16,C  40,O  34,H  67)    -65.4305         0.060927   
    715. D(O  16,C  40,O  34,Zr  5)    -20.2225         0.060927   
    716. D(H  56,C  40,O  16,Zr  1)    160.4125         0.070105   
    717. D(O  34,C  40,O  16,H  65)    155.2668         0.070105   
    718. D(O  34,C  40,O  16,Zr  1)    -20.0732         0.070105   
    719. D(H  48,C  41,O  26,Zr  3)    161.1817         0.047543   
    720. D(O  17,C  41,O  26,Zr  3)    -18.7444         0.047543   
    721. D(H  48,C  41,O  17,Zr  1)    153.9339         0.046696   
    722. D(O  26,C  41,O  17,Zr  1)    -26.1400         0.046696   
    723. D(H  49,C  42,O  22,Zr  2)    177.8386         0.061375   
    724. D(O  18,C  42,O  22,H  67)     70.9146         0.061375   
    725. D(O  18,C  42,O  22,Zr  2)     -2.5356         0.061375   
    726. D(H  49,C  42,O  18,Zr  1)   -178.9127         0.065452   
    727. D(O  22,C  42,O  18,H  65)   -128.6348         0.065452   
    728. D(O  22,C  42,O  18,Zr  1)      1.4614         0.065452   
    729. D(H  52,C  43,O  30,Zr  4)    179.4522         0.047165   
    730. D(O  19,C  43,O  30,Zr  4)     -0.3387         0.047165   
    731. D(H  52,C  43,O  19,Zr  1)    176.7473         0.047230   
    732. D(O  30,C  43,O  19,Zr  1)     -3.4619         0.047230   
    733. D(H  59,C  44,O  35,Zr  5)    171.4023         0.056852   
    734. D(O  20,C  44,O  35,H  67)     72.1655         0.056852   
    735. D(O  20,C  44,O  35,Zr  5)     -9.5265         0.056852   
    736. D(H  59,C  44,O  20,Zr  2)    179.5057         0.056722   
    737. D(O  35,C  44,O  20,H  67)    -79.6498         0.056722   
    738. D(O  35,C  44,O  20,Zr  2)      0.4340         0.056722   
    739. D(H  55,C  45,O  31,Zr  4)   -160.6870         0.047729   
    740. D(O  23,C  45,O  31,Zr  4)     19.6188         0.047729   
    741. D(H  55,C  45,O  23,Zr  2)   -160.0955         0.046985   
    742. D(O  31,C  45,O  23,Zr  2)     19.5987         0.046985   
    743. D(H  57,C  46,O  32,Zr  5)    161.5251         0.047615   
    744. D(O  24,C  46,O  32,Zr  5)    -18.2651         0.047615   
    745. D(H  57,C  46,O  24,Zr  3)    151.4792         0.046756   
    746. D(O  32,C  46,O  24,Zr  3)    -28.7307         0.046756   
    747. D(H  53,C  47,O  28,Zr  4)   -176.2626         0.047198   
    748. D(O  27,C  47,O  28,Zr  4)      3.9632         0.047198   
    749. D(H  53,C  47,O  27,Zr  3)   -179.3558         0.047136   
    750. D(O  28,C  47,O  27,Zr  3)      0.4185         0.047136   
    751. D(H  64,H  49,C  42,O  22)    103.4539         0.132685   
    752. D(H  64,H  49,C  42,O  18)    -76.2146         0.132685   
    753. D(H  67,H  56,C  40,O  16)     70.8966         0.147222   
    754. D(H  62,H  56,C  40,O  34)   -127.1455         0.147222   
    755. D(H  62,H  56,C  40,O  16)     52.4384         0.147222   
    756. D(H  67,H  59,C  44,O  35)     98.4769         0.121588   
    757. D(H  67,H  59,C  44,O  20)    -80.6998         0.121588   
    758. D(H  63,Al 61,Al 60,H  62)     88.6130         0.010000   
    759. D(H  62,Al 61,Al 60,H  65)     91.2829         0.010000   
    760. D(H  62,Al 61,Al 60,H  64)    178.3005         0.010000   
    761. D(H  56,H  62,Al 61,Al 60)   -130.1683         0.010000   
    762. D(Al 60,H  62,Al 61,H  64)      1.0883         0.010000   
    763. D(H  56,H  62,Al 60,Al 61)    126.3240         0.010000   
    764. D(Al 61,H  62,Al 60,H  65)    -98.9836         0.010000   
    765. D(Al 61,H  62,Al 60,H  64)     -1.0884         0.010000   
    766. D(Al 61,H  62,H  56,C  40)     42.0851         0.010000   
    767. D(Al 60,H  62,H  56,H  67)    -99.8381         0.010000   
    768. D(Al 60,H  62,H  56,C  40)    -79.0186         0.010000   
    769. D(Al 61,H  62,C  40,O  16)     87.0177         0.010000   
    770. D(Al 60,H  62,C  40,O  34)   -148.4937         0.010000   
    771. D(Al 60,H  62,C  40,O  16)    -20.4982         0.010000   
    772. D(Al 60,H  62,Al 61,H  63)    -98.1897         0.010000   
    773. D(Al 61,H  62,O  16,Zr  1)     50.5523         0.010000   
    774. D(Al 60,H  62,O  16,C  40)    161.3094         0.010000   
    775. D(Al 60,H  62,O  16,Zr  1)    -52.2098         0.010000   
    776. D(H  49,H  64,Al 61,Al 60)    127.2913         0.010000   
    777. D(Al 60,H  64,Al 61,H  62)     -1.0891         0.010000   
    778. D(H  49,H  64,Al 60,Al 61)   -126.2291         0.010000   
    779. D(Al 61,H  64,Al 60,H  65)    102.2139         0.010000   
    780. D(Al 61,H  64,Al 60,H  62)      1.0883         0.010000   
    781. D(Al 61,H  64,H  49,C  42)    -38.8284         0.010000   
    782. D(Al 60,H  64,H  49,C  42)     81.0800         0.010000   
    783. D(Al 61,H  64,C  42,O  18)    -95.6454         0.010000   
    784. D(Al 60,H  64,Al 61,H  63)     94.7437         0.010000   
    785. D(Al 60,H  64,C  42,O  22)    142.1291         0.010000   
    786. D(Al 60,H  64,C  42,O  18)     11.3444         0.010000   
    787. D(O  18,H  65,Al 60,Al 61)     35.1435         0.010000   
    788. D(O  16,H  65,Al 60,H  62)      3.6357         0.010000   
    789. D(O  16,H  65,Al 60,Al 61)    -36.2328         0.010000   
    790. D(O  16,H  65,O  18,Zr  1)    -30.0637         0.010000   
    791. D(Al 60,H  65,O  18,C  42)     15.8677         0.010000   
    792. D(Al 60,H  65,O  18,Zr  1)   -130.0139         0.010000   
    793. D(O  18,H  65,O  16,Zr  1)     29.1009         0.010000   
    794. D(Al 60,H  65,O  16,C  40)    -31.4403         0.010000   
    795. D(Al 60,H  65,O  16,Zr  1)    144.9462         0.010000   
    796. D(Al 61,H  67,C  44,O  35)   -116.0016         0.010000   
    797. D(Al 61,H  67,C  44,O  20)    115.4374         0.010000   
    798. D(O  16,H  67,C  42,O  18)     -5.8048         0.010000   
    799. D(Al 61,H  67,C  42,O  18)    111.6921         0.010000   
    800. D(O  16,H  67,C  40,O  34)   -129.4377         0.010000   
    801. D(Al 61,H  67,C  40,O  34)    126.0100         0.010000   
    802. D(O  16,H  67,O  35,Zr  5)    -26.0592         0.010000   
    803. D(Al 61,H  67,O  35,C  44)     76.6534         0.010000   
    804. D(Al 61,H  67,O  35,Zr  5)   -153.1003         0.010000   
    805. D(O  16,H  67,O  34,Zr  5)   -123.3390         0.010000   
    806. D(Al 61,H  67,O  34,C  40)    -66.0163         0.010000   
    807. D(Al 61,H  67,O  34,Zr  5)    140.6108         0.010000   
    808. D(O  16,H  67,O  22,Zr  2)     78.7495         0.010000   
    809. D(Al 61,H  67,O  22,C  42)     73.8067         0.010000   
    810. D(Al 61,H  67,O  22,Zr  2)   -152.0144         0.010000   
    811. D(O  16,H  67,O  20,Zr  2)    -40.1825         0.010000   
    812. D(Al 61,H  67,O  20,C  44)    -78.6602         0.010000   
    813. D(Al 61,H  67,O  20,Zr  2)    146.9931         0.010000   
    814. D(O  16,H  67,O  18,Zr  1)     36.2566         0.010000   
    815. D(Al 61,H  67,O  18,C  42)    -78.9531         0.010000   
    816. D(Al 61,H  67,C  40,O  16)   -104.5523         0.010000   
    817. D(Al 61,H  67,O  18,Zr  1)    144.1252         0.010000   
    818. D(O   8,H  67,O  16,Zr  1)     42.8499         0.010000   
    819. D(Al 61,H  67,O  16,C  40)     89.3183         0.010000   
    820. D(Al 61,H  67,C  42,O  22)   -117.4518         0.010000   
    821. D(Al 61,H  67,O  16,Zr  1)   -140.9879         0.010000   
    822. D(O  16,H  67,O   8,Zr  1)    -39.7076         0.010000   
    823. D(Al 61,H  67,O   8,Zr  2)    177.2712         0.010000   
    824. D(O  16,H  67,C  44,O  20)   -101.6229         0.010000   
    825. D(Al 61,H  67,O   8,Zr  1)    -74.2914         0.010000   
    826. D(O   8,H  67,Al 61,Al 60)     63.6151         0.012305   
    827. D(O  16,H  67,Al 61,H  62)     -7.8061         0.012305   
    828. D(O  16,H  67,Al 61,Al 60)     30.9839         0.012305   
    829. D(O  16,H  67,H  59,C  44)    -44.5689         0.010000   
    830. D(Al 61,H  67,H  59,C  44)   -178.5504         0.010000   
    831. D(O  16,H  67,H  56,C  40)    -45.1575         0.010000   
    832. D(Al 61,H  67,H  56,H  62)    -20.4731         0.010000   
    833. D(Al 61,H  67,H  56,C  40)   -174.5750         0.010000   
    -----------------------------------------------------------------

Number of atoms                         .... 68
Number of degrees of freedom            .... 833


         *************************************************************
         *                GEOMETRY OPTIMIZATION CYCLE   1            *
         *************************************************************
---------------------------------
CARTESIAN COORDINATES (ANGSTROEM)
---------------------------------
  Zr    -0.353375    2.154714    1.423997
  Zr     0.409422   -2.155817   -1.403550
  Zr     1.716842   -1.206183    1.621000
  Zr    -1.642143    1.188840   -1.589304
  Zr     1.771098    0.962983   -1.673141
  Zr    -1.696639   -0.981975    1.711968
  O     -1.656973    0.783161    0.519244
  O      1.710720   -0.794368   -0.478280
  O     -0.036775   -1.851787    0.666868
  O      0.110703    1.813807   -0.621156
  O     -0.004880   -0.124285   -1.926372
  O      0.077938    0.115550    1.957174
  O     -1.239641    2.135536    3.181426
  O     -1.801114    3.425528    0.975435
  O      1.329875    2.123803    2.614580
  O      0.830637    3.676696    0.742257
  O     -0.800609   -3.659306   -0.768358
  O     -1.264705   -2.091128   -2.637233
  O      1.852771   -3.433597   -0.973752
  O      1.304399   -2.133895   -3.161411
  O      1.093201   -2.369740    3.095061
  O      2.182378    0.015758    3.182494
  O      2.731521   -2.805181    1.087642
  O      3.503741   -0.293307    1.093148
  O     -3.363674    0.141321   -1.119490
  O     -2.763509    2.702150   -1.017672
  O     -2.040982    0.042865   -3.229124
  O     -1.012666    2.474410   -2.953659
  O      1.314180    2.380783   -2.962303
  O      2.432931    2.596537   -0.589804
  O      2.284707   -0.027045   -3.306561
  O      3.671208    0.489054   -1.112439
  O     -3.597972   -0.542351    1.112102
  O     -2.250994    0.042681    3.312084
  O     -2.349289   -2.648193    0.673789
  O     -1.233652   -2.341519    3.055891
  C     -1.977708    1.233101    3.752060
  C     -2.658624    3.497245    0.003149
  C      2.052790    1.299259    3.309644
  C      1.945189    3.595642    0.083147
  C     -1.900207   -3.603056   -0.083298
  C     -1.935808   -1.243607   -3.358163
  C      2.672210   -3.549508    0.026144
  C      2.022194   -1.221496   -3.742019
  C     -0.082311   -2.709435    3.529301
  C      4.135620    0.157284    0.051920
  C     -4.029806   -0.254103   -0.076457
  C      0.165409    2.827469   -3.369511
  H     -2.489660   -1.674268   -4.188089
  H      3.388525   -4.368971   -0.029642
  H      2.632359    1.748524    4.111277
  H     -3.374220    4.317914    0.051196
  H      2.451432   -1.487495   -4.707744
  H      0.192836    3.589460   -4.148171
  H      2.560895    4.491206    0.099840
  H      5.209560    0.268131    0.172408
  H     -2.533098   -4.484113   -0.146263
  H     -5.101591   -0.361886   -0.220624
  H     -2.416647    1.504866    4.711839
  H     -0.104337   -3.391821    4.378846
  Al     0.542776   -6.831990   -0.624957
  Al     0.420163   -5.836444    1.790198
  H     -0.564598   -6.343105    0.534345
  H      0.352122   -7.171172    2.677319
  H      1.526744   -6.296144    0.620222
  H      0.612687   -5.568528   -1.612277
  H      0.587054   -8.403762   -0.311647
  H      0.334275   -4.283443    1.403832

----------------------------
CARTESIAN COORDINATES (A.U.)
----------------------------
  NO LB      ZA    FRAG     MASS         X           Y           Z
   0 Zr   12.0000*   0    91.220   -0.667782    4.071819    2.690964
   1 Zr   12.0000*   0    91.220    0.773695   -4.073904   -2.652324
   2 Zr   12.0000*   0    91.220    3.244362   -2.279356    3.063247
   3 Zr   12.0000*   0    91.220   -3.103201    2.246582   -3.003349
   4 Zr   12.0000*   0    91.220    3.346891    1.819775   -3.161778
   5 Zr   12.0000*   0    91.220   -3.206183   -1.855663    3.235151
   6 O     8.0000    0    15.999   -3.131226    1.479960    0.981230
   7 O     8.0000    0    15.999    3.232793   -1.501138   -0.903818
   8 O     8.0000    0    15.999   -0.069495   -3.499370    1.260199
   9 O     8.0000    0    15.999    0.209198    3.427598   -1.173815
  10 O     8.0000    0    15.999   -0.009222   -0.234864   -3.640316
  11 O     8.0000    0    15.999    0.147281    0.218358    3.698523
  12 O     8.0000    0    15.999   -2.342583    4.035578    6.012023
  13 O     8.0000    0    15.999   -3.403612    6.473310    1.843306
  14 O     8.0000    0    15.999    2.513099    4.013406    4.940840
  15 O     8.0000    0    15.999    1.569676    6.947948    1.402663
  16 O     8.0000    0    15.999   -1.512932   -6.915086   -1.451985
  17 O     8.0000    0    15.999   -2.389946   -3.951660   -4.983648
  18 O     8.0000    0    15.999    3.501231   -6.488558   -1.840124
  19 O     8.0000    0    15.999    2.464957   -4.032478   -5.974200
  20 O     8.0000    0    15.999    2.065851   -4.478159    5.848817
  21 O     8.0000    0    15.999    4.124096    0.029778    6.014043
  22 O     8.0000    0    15.999    5.161826   -5.301024    2.055346
  23 O     8.0000    0    15.999    6.621112   -0.554270    2.065751
  24 O     8.0000    0    15.999   -6.356423    0.267058   -2.115530
  25 O     8.0000    0    15.999   -5.222275    5.106323   -1.923121
  26 O     8.0000    0    15.999   -3.856898    0.081002   -6.102160
  27 O     8.0000    0    15.999   -1.913661    4.675958   -5.581607
  28 O     8.0000    0    15.999    2.483441    4.499027   -5.597941
  29 O     8.0000    0    15.999    4.597573    4.906744   -1.114569
  30 O     8.0000    0    15.999    4.317471   -0.051108   -6.248494
[...]
197:   2890.33   0.025110  126.89  0.002711  ( 0.036657  0.028643  0.023385)
198:   2896.35   0.020590  104.06  0.002218  ( 0.027460 -0.038238 -0.001514)
199:   2902.43   0.020369  102.94  0.002190  ( 0.007914 -0.037048  0.027475)
200:   2904.13   0.016982   85.82  0.001825  ( 0.009583  0.007686 -0.040914)
201:   2904.50   0.012633   63.84  0.001357  (-0.000985 -0.022207  0.029380)
202:   2904.97   0.045308  228.97  0.004867  ( 0.040941 -0.031790 -0.046695)
203:   2906.12   0.016198   81.86  0.001739  (-0.010802  0.033398 -0.022522)

* The epsilon (eps) is given for a Dirac delta lineshape.
** The dipole moment derivative (T) already includes vibrational overlap.

The first frequency considered to be a vibration is 8
The total number of vibrations considered is 196


--------------------------
THERMOCHEMISTRY AT 298.15K
--------------------------

Temperature         ...   298.15 K
Pressure            ...     1.00 atm
Total Mass          ...  1243.53 AMU
Quasi RRHO          ...     True
Cut-Off Frequency   ...     1.00 cm^-1

Throughout the following assumptions are being made:
  (1) The electronic state is orbitally nondegenerate
  (2) There are no thermally accessible electronically excited states
  (3) Hindered rotations indicated by low frequency modes are not
      treated as such but are treated as vibrations and this may
      cause some error
  (4) All equations used are the standard statistical mechanics
      equations for an ideal gas
  (5) All vibrations are strictly harmonic

freq.      11.65  E(vib)   ...       0.58 
freq.      35.29  E(vib)   ...       0.54 
freq.      40.75  E(vib)   ...       0.54 
freq.      43.36  E(vib)   ...       0.53 
freq.      56.02  E(vib)   ...       0.52 
freq.      57.70  E(vib)   ...       0.51 
freq.      59.32  E(vib)   ...       0.51 
freq.      65.31  E(vib)   ...       0.50 
freq.      68.79  E(vib)   ...       0.50 
freq.      78.87  E(vib)   ...       0.49 
freq.      81.42  E(vib)   ...       0.48 
freq.      84.12  E(vib)   ...       0.48 
freq.      96.46  E(vib)   ...       0.47 
freq.      98.75  E(vib)   ...       0.46 
freq.      99.07  E(vib)   ...       0.46 
freq.     100.30  E(vib)   ...       0.46 
freq.     105.45  E(vib)   ...       0.45 
freq.     106.17  E(vib)   ...       0.45 
freq.     111.24  E(vib)   ...       0.45 
freq.     112.66  E(vib)   ...       0.45 
freq.     116.00  E(vib)   ...       0.44 
freq.     123.43  E(vib)   ...       0.43 
freq.     130.85  E(vib)   ...       0.42 
freq.     139.05  E(vib)   ...       0.42 
freq.     150.29  E(vib)   ...       0.40 
freq.     151.65  E(vib)   ...       0.40 
freq.     151.88  E(vib)   ...       0.40 
freq.     152.62  E(vib)   ...       0.40 
freq.     157.97  E(vib)   ...       0.40 
freq.     158.63  E(vib)   ...       0.39 
freq.     160.92  E(vib)   ...       0.39 
freq.     161.57  E(vib)   ...       0.39 
freq.     164.23  E(vib)   ...       0.39 
freq.     166.74  E(vib)   ...       0.39 
freq.     170.30  E(vib)   ...       0.38 
freq.     173.00  E(vib)   ...       0.38 
freq.     174.90  E(vib)   ...       0.38 
freq.     187.67  E(vib)   ...       0.36 
freq.     188.21  E(vib)   ...       0.36 
freq.     189.34  E(vib)   ...       0.36 
freq.     191.96  E(vib)   ...       0.36 
freq.     193.87  E(vib)   ...       0.36 
freq.     195.20  E(vib)   ...       0.36 
freq.     206.01  E(vib)   ...       0.35 
freq.     209.45  E(vib)   ...       0.34 
freq.     211.82  E(vib)   ...       0.34 
freq.     212.60  E(vib)   ...       0.34 
freq.     218.91  E(vib)   ...       0.33 
freq.     227.46  E(vib)   ...       0.33 
freq.     228.43  E(vib)   ...       0.32 
freq.     232.09  E(vib)   ...       0.32 
freq.     234.49  E(vib)   ...       0.32 
freq.     244.36  E(vib)   ...       0.31 
freq.     261.49  E(vib)   ...       0.30 
freq.     263.79  E(vib)   ...       0.29 
freq.     263.92  E(vib)   ...       0.29 
freq.     264.98  E(vib)   ...       0.29 
freq.     266.00  E(vib)   ...       0.29 
freq.     268.80  E(vib)   ...       0.29 
freq.     269.68  E(vib)   ...       0.29 
freq.     273.56  E(vib)   ...       0.29 
freq.     274.10  E(vib)   ...       0.28 
freq.     276.80  E(vib)   ...       0.28 
freq.     277.44  E(vib)   ...       0.28 
freq.     277.96  E(vib)   ...       0.28 
freq.     283.85  E(vib)   ...       0.28 
freq.     284.84  E(vib)   ...       0.28 
freq.     290.14  E(vib)   ...       0.27 
freq.     290.45  E(vib)   ...       0.27 
freq.     293.86  E(vib)   ...       0.27 
freq.     297.13  E(vib)   ...       0.27 
freq.     305.21  E(vib)   ...       0.26 
freq.     306.11  E(vib)   ...       0.26 
freq.     310.46  E(vib)   ...       0.26 
freq.     311.19  E(vib)   ...       0.26 
freq.     311.88  E(vib)   ...       0.25 
freq.     316.08  E(vib)   ...       0.25 
freq.     318.40  E(vib)   ...       0.25 
freq.     318.98  E(vib)   ...       0.25 
freq.     325.63  E(vib)   ...       0.24 
freq.     326.68  E(vib)   ...       0.24 
freq.     327.34  E(vib)   ...       0.24 
freq.     340.97  E(vib)   ...       0.23 
freq.     342.18  E(vib)   ...       0.23 
freq.     352.44  E(vib)   ...       0.23 
freq.     352.72  E(vib)   ...       0.22 
freq.     358.81  E(vib)   ...       0.22 
freq.     366.32  E(vib)   ...       0.22 
freq.     371.28  E(vib)   ...       0.21 
freq.     390.17  E(vib)   ...       0.20 
freq.     394.75  E(vib)   ...       0.20 
freq.     402.96  E(vib)   ...       0.19 
freq.     404.33  E(vib)   ...       0.19 
freq.     405.53  E(vib)   ...       0.19 
freq.     405.89  E(vib)   ...       0.19 
freq.     417.64  E(vib)   ...       0.18 
freq.     419.21  E(vib)   ...       0.18 
freq.     421.39  E(vib)   ...       0.18 
freq.     422.10  E(vib)   ...       0.18 
freq.     460.29  E(vib)   ...       0.16 
freq.     463.25  E(vib)   ...       0.16 
freq.     477.51  E(vib)   ...       0.15 
freq.     479.11  E(vib)   ...       0.15 
freq.     481.24  E(vib)   ...       0.15 
freq.     525.76  E(vib)   ...       0.13 
freq.     539.86  E(vib)   ...       0.12 
freq.     600.11  E(vib)   ...       0.10 
freq.     626.16  E(vib)   ...       0.09 
freq.     664.98  E(vib)   ...       0.08 
freq.     681.78  E(vib)   ...       0.08 
freq.     683.22  E(vib)   ...       0.08 
freq.     687.63  E(vib)   ...       0.07 
freq.     690.18  E(vib)   ...       0.07 
freq.     712.01  E(vib)   ...       0.07 
freq.     714.06  E(vib)   ...       0.07 
freq.     735.53  E(vib)   ...       0.06 
freq.     735.66  E(vib)   ...       0.06 
freq.     735.96  E(vib)   ...       0.06 
freq.     736.17  E(vib)   ...       0.06 
freq.     736.42  E(vib)   ...       0.06 
freq.     738.02  E(vib)   ...       0.06 
freq.     738.86  E(vib)   ...       0.06 
freq.     739.05  E(vib)   ...       0.06 
freq.     739.54  E(vib)   ...       0.06 
freq.     739.81  E(vib)   ...       0.06 
freq.     741.31  E(vib)   ...       0.06 
freq.     741.69  E(vib)   ...       0.06 
freq.     793.10  E(vib)   ...       0.05 
freq.    1000.17  E(vib)   ...       0.02 
freq.    1000.18  E(vib)   ...       0.02 
freq.    1000.29  E(vib)   ...       0.02 
freq.    1000.33  E(vib)   ...       0.02 
freq.    1001.94  E(vib)   ...       0.02 
freq.    1002.06  E(vib)   ...       0.02 
freq.    1004.33  E(vib)   ...       0.02 
freq.    1004.91  E(vib)   ...       0.02 
freq.    1005.27  E(vib)   ...       0.02 
freq.    1005.65  E(vib)   ...       0.02 
freq.    1005.98  E(vib)   ...       0.02 
freq.    1006.30  E(vib)   ...       0.02 
freq.    1262.91  E(vib)   ...       0.01 
freq.    1345.81  E(vib)   ...       0.01 
freq.    1348.22  E(vib)   ...       0.01 
freq.    1348.74  E(vib)   ...       0.01 
freq.    1348.98  E(vib)   ...       0.01 
freq.    1349.74  E(vib)   ...       0.01 
freq.    1350.29  E(vib)   ...       0.01 
freq.    1351.25  E(vib)   ...       0.01 
freq.    1355.13  E(vib)   ...       0.01 
freq.    1355.58  E(vib)   ...       0.01 
freq.    1355.88  E(vib)   ...       0.01 
freq.    1356.79  E(vib)   ...       0.01 
freq.    1356.86  E(vib)   ...       0.01 
freq.    1357.56  E(vib)   ...       0.01 
freq.    1362.52  E(vib)   ...       0.01 
freq.    1362.71  E(vib)   ...       0.01 
freq.    1362.90  E(vib)   ...       0.01 
freq.    1363.05  E(vib)   ...       0.01 
freq.    1364.69  E(vib)   ...       0.01 
freq.    1365.10  E(vib)   ...       0.01 
freq.    1365.77  E(vib)   ...       0.01 
freq.    1367.22  E(vib)   ...       0.01 
freq.    1367.77  E(vib)   ...       0.01 
freq.    1371.23  E(vib)   ...       0.01 
freq.    1372.06  E(vib)   ...       0.01 
freq.    1379.78  E(vib)   ...       0.01 
freq.    1404.40  E(vib)   ...       0.00 
freq.    1475.13  E(vib)   ...       0.00 
freq.    1543.26  E(vib)   ...       0.00 
freq.    1552.61  E(vib)   ...       0.00 
freq.    1564.11  E(vib)   ...       0.00 
freq.    1565.11  E(vib)   ...       0.00 
freq.    1570.36  E(vib)   ...       0.00 
freq.    1576.97  E(vib)   ...       0.00 
freq.    1577.77  E(vib)   ...       0.00 
freq.    1631.21  E(vib)   ...       0.00 
freq.    1631.34  E(vib)   ...       0.00 
freq.    1636.58  E(vib)   ...       0.00 
freq.    1637.14  E(vib)   ...       0.00 
freq.    1637.55  E(vib)   ...       0.00 
freq.    1886.29  E(vib)   ...       0.00 
freq.    1892.37  E(vib)   ...       0.00 
freq.    1920.17  E(vib)   ...       0.00 
freq.    1949.07  E(vib)   ...       0.00 
freq.    2880.82  E(vib)   ...       0.00 
freq.    2887.51  E(vib)   ...       0.00 
freq.    2888.22  E(vib)   ...       0.00 
freq.    2888.69  E(vib)   ...       0.00 
freq.    2888.92  E(vib)   ...       0.00 
freq.    2890.33  E(vib)   ...       0.00 
freq.    2896.35  E(vib)   ...       0.00 
freq.    2902.43  E(vib)   ...       0.00 
freq.    2904.13  E(vib)   ...       0.00 
freq.    2904.50  E(vib)   ...       0.00 
freq.    2904.97  E(vib)   ...       0.00 
freq.    2906.12  E(vib)   ...       0.00 

------------
INNER ENERGY
------------

The inner energy is: U= E(el) + E(ZPE) + E(vib) + E(rot) + E(trans)
    E(el)   - is the total energy from the electronic structure calculation
              = E(kin-el) + E(nuc-el) + E(el-el) + E(nuc-nuc)
    E(ZPE)  - the the zero temperature vibrational energy from the frequency calculation
    E(vib)  - the the finite temperature correction to E(ZPE) due to population
              of excited vibrational states
    E(rot)  - is the rotational thermal energy
    E(trans)- is the translational thermal energy

Summary of contributions to the inner energy U:
Electronic energy                ...  -3488.52349529 Eh
Zero point energy                ...      0.34931770 Eh     219.20 kcal/mol
Thermal vibrational correction   ...      0.05799855 Eh      36.39 kcal/mol
Thermal rotational correction    ...      0.00141627 Eh       0.89 kcal/mol
Thermal translational correction ...      0.00141627 Eh       0.89 kcal/mol
-----------------------------------------------------------------------
Total thermal energy                  -3488.11334649 Eh


Summary of corrections to the electronic energy:
(perhaps to be used in another calculation)
Total thermal correction                  0.06083110 Eh      38.17 kcal/mol
Non-thermal (ZPE) correction              0.34931770 Eh     219.20 kcal/mol
-----------------------------------------------------------------------
Total correction                          0.41014880 Eh     257.37 kcal/mol


--------
ENTHALPY
--------

The enthalpy is H = U + kB*T
                kB is Boltzmann's constant
Total thermal energy              ...  -3488.11334649 Eh 
Thermal Enthalpy correction       ...      0.00094421 Eh       0.59 kcal/mol
-----------------------------------------------------------------------
Total Enthalpy                    ...  -3488.11240228 Eh


Note: Only C1 symmetry has been detected, increase convergence thresholds 
      if your molecule has a higher symmetry. Symmetry factor of 1.0 is   
      used for the rotational entropy correction. 
 

Note: Rotational entropy computed according to Herzberg 
Infrared and Raman Spectra, Chapter V,1, Van Nostrand Reinhold, 1945 
Point Group:  C1, Symmetry Number:   1  
Rotational constants in cm-1:     0.001844     0.001418     0.001366 

Vibrational entropy computed according to the QRRHO of S. Grimme
Chem.Eur.J. 2012 18 9955 using a reference frequency of 100.0 cm-1


-------
ENTROPY
-------

The entropy contributions are T*S = T*(S(el)+S(vib)+S(rot)+S(trans))
     S(el)   - electronic entropy
     S(vib)  - vibrational entropy
     S(rot)  - rotational entropy
     S(trans)- translational entropy
The entropies will be listed as multiplied by the temperature to get
units of energy

Electronic entropy                ...      0.00000000 Eh      0.00 kcal/mol
Vibrational entropy               ...      0.10403716 Eh     65.28 kcal/mol
Rotational entropy                ...      0.01869311 Eh     11.73 kcal/mol
Translational entropy             ...      0.02244101 Eh     14.08 kcal/mol
-----------------------------------------------------------------------
Final entropy term                ...      0.14517128 Eh     91.10 kcal/mol

In case the symmetry of your molecule has not been determined correctly
or in case you have a reason to use a different symmetry number we print 
out the resulting rotational entropy values for sn=1,12:

 non-linear molecules -----------------------------------
|  sn= 1 | S(rot)=       0.01869311 Eh     11.73 kcal/mol|
|  sn= 2 | S(rot)=       0.01803866 Eh     11.32 kcal/mol|
|  sn= 3 | S(rot)=       0.01765582 Eh     11.08 kcal/mol|
|  sn= 4 | S(rot)=       0.01738420 Eh     10.91 kcal/mol|
|  sn= 5 | S(rot)=       0.01717351 Eh     10.78 kcal/mol|
|  sn= 6 | S(rot)=       0.01700137 Eh     10.67 kcal/mol|
|  sn= 7 | S(rot)=       0.01685582 Eh     10.58 kcal/mol|
|  sn= 8 | S(rot)=       0.01672974 Eh     10.50 kcal/mol|
|  sn= 9 | S(rot)=       0.01661854 Eh     10.43 kcal/mol|
|  sn=10 | S(rot)=       0.01651906 Eh     10.37 kcal/mol|
|  sn=11 | S(rot)=       0.01642907 Eh     10.31 kcal/mol|
|  sn=12 | S(rot)=       0.01634691 Eh     10.26 kcal/mol|
 linear molecules ---------------------------------------
|  Dinfh | S(rot)=       0.01155329 Eh      7.25 kcal/mol|
|  Cinfv | S(rot)=       0.01220774 Eh      7.66 kcal/mol|
 --------------------------------------------------------


-------------------
GIBBS FREE ENERGY
-------------------

The Gibbs free energy is G = H - T*S

Total enthalpy                    ...  -3488.11240228 Eh 
Total entropy correction          ...     -0.14517128 Eh    -91.10 kcal/mol
-----------------------------------------------------------------------
Final Gibbs free energy         ...  -3488.25757356 Eh

For completeness - the Gibbs free energy minus the electronic energy
G-E(el)                           ...      0.26592173 Eh    166.87 kcal/mol


Maximum memory used throughout the entire PROP-calculation: 137.8 MB

--------------------------------
SUGGESTED CITATIONS FOR THIS RUN
--------------------------------

Below you find a list of papers that are relevant to this ORCA run
We neither can nor want to force you to cite these papers, but we appreciate if you do
You receive ORCA, which is the product of decades of hard work by many enthusiastic individuals, for free
The only thing we kindly ask in return is that you cite our papers,
We deeply appreciate it, if you show your appreciation for ORCA by not just citing the generic ORCA reference.

Please note that relegating all ORCA citations to the supporting information does *not* help us.
SI sections are not indexed - citations you put there will not count into any citation statistics
But we need these citations in order to attract the funding resources that allow us to do what we are doing

Therefore, if you are a happy ORCA user, please consider citing a few of the papers listed below in the main body of your paper

In addition to the list printed below, the program has created the file run.bibtex that contains the list in bibtex format
You can import this file easily into all common literature databanks and citation aid programs


List of essential papers. We consider these as the minimum necessary citations

  1. Neese, F.
     Software update: the ORCA program system, version 6.0
     WIRES Comput. Molec. Sci. 2025 15(1), e70019
     doi.org/10.1002/wcms.7019

List of papers to cite with high priority. The work reported in these papers was absolutely
necessary for this run to complete.
Our perspective: the developers of density functionals and basis sets usually get cited in chemistry papers
Good! But without the algorithms to do something with them, the functionals or basis sets would not do anything.
Hence, in our opinion, the algorithm design and method developments papers are equally worthy of getting cited

  1. Neese, F.
     An improvement of the resolution of the identity approximation for the formation of the Coulomb matrix
     J. Comp. Chem. 2003 24(14), 1740-1747
     doi.org/10.1002/jcc.10318
  2. Grimme, S.; Antony, J.; Ehrlich, S.; Krieg, H.
     A consistent and accurate ab initio parametrization of density functional dispersion correction (DFT-D) for the 94 elements H-Pu
     J. Chem. Phys. 2010 132 , 154104
     doi.org/10.1063/1.3382344
  3. Grimme, S.; Ehrlich, S.; Goerigk, L.
     Effect of the damping function in dispersion corrected density functional theory
     J. Comput. Chem. 2011 32(7), 1456-1465
     doi.org/10.1002/jcc.21759
  4. Bykov, D.; Petrenko, T.; Izsak, R.; Kossmann, S.; Becker, U.; Valeev, E.; Neese, F.
     Efficient implementation of the analytic second derivatives of Hartree-Fock and hybrid DFT energies: a detailed analysis of different approximations
     Molec. Phys. 2015 113 , 1961-1977
     doi.org/10.1080/00268976.2015.1025114
  5. Helmich-Paris, B.
     A trust-region augmented Hessian implementation for restricted and unrestricted Hartree–Fock and Kohn–Sham methods
     J. Chem. Phys. 2021 154 , 164104
     doi.org/10.1063/5.0040798
  6. Neese, F.
     The SHARK Integral Generation and Digestion System
     J. Comp. Chem. 2022 44(3), 381
     doi.org/10.1002/jcc.26942

List of suggested additional citations. These are papers that are important in the 'surrounding' of 
of this run, or papers that preceded the highly important papers. If you like your results we are grateful for a citation.

  1. Neese, F.
     The ORCA program system
     WIRES Comput. Molec. Sci. 2012 2(1), 73-78
     doi.org/10.1002/wcms.81
  2. Neese, F.
     Software update: the ORCA program system, version 4.0
     WIRES Comput. Molec. Sci. 2018 8(1), 1-6
     doi.org/10.1002/wcms.1327
  3. Neese, F.; Wennmohs, F.; Becker, U.; Riplinger, C.
     The ORCA quantum chemistry program package
     J. Chem. Phys. 2020 152(22), 224108
     doi.org/10.1063/5.0004608
  4. Neese, F.
     Software update: The ORCA program system—Version 5.0
     WIRES Comput. Molec. Sci. 2022 12(1), e1606
     doi.org/10.1002/wcms.1606

List of optional additional citations

  1. Neese, F.
     Approximate second-order SCF convergence for spin unrestricted wavefunctions
     Chem. Phys. Lett. 2000 325(1-3), 93-98
     doi.org/10.1016/s0009-2614(00)00662-x

Timings for individual modules:

Sum of individual times          ...     7639.523 sec (= 127.325 min)
Startup calculation              ...      323.217 sec (=   5.387 min)   4.2 %
SCF iterations                   ...     1795.075 sec (=  29.918 min)  23.5 %
Property integrals               ...     1940.008 sec (=  32.333 min)  25.4 %
SCF Response                     ...     1131.906 sec (=  18.865 min)  14.8 %
Property calculations            ...     1671.865 sec (=  27.864 min)  21.9 %
SCF Gradient evaluation          ...      761.408 sec (=  12.690 min)  10.0 %
Geometry relaxation              ...       16.044 sec (=   0.267 min)   0.2 %
                             ****ORCA TERMINATED NORMALLY****
TOTAL RUN TIME: 0 days 2 hours 7 minutes 39 seconds 913 msec
