
                                 *****************
                                 * O   R   C   A *
                                 *****************

                                            #,                                       
                                            ###                                      
                                            ####                                     
                                            #####                                    
                                            ######                                   
                                           ########,                                 
                                     ,,################,,,,,                         
                               ,,#################################,,                 
                          ,,##########################################,,             
                       ,#########################################, ''#####,          
                    ,#############################################,,   '####,        
                  ,##################################################,,,,####,       
                ,###########''''           ''''###############################       
              ,#####''   ,,,,##########,,,,          '''####'''          '####       
            ,##' ,,,,###########################,,,                        '##       
           ' ,,###''''                  '''############,,,                           
         ,,##''                                '''############,,,,        ,,,,,,###''
      ,#''                                            '''#######################'''  
     '                                                          ''''####''''         
             ,#######,   #######,   ,#######,      ##                                
            ,#'     '#,  ##    ##  ,#'     '#,    #''#        ,####,    ,#,          
            ##       ##  ##   ,#'  ##            #'  '#       #'       ,# #          
            ##       ##  #######   ##           ,######,      #####,      #          
            '#,     ,#'  ##    ##  '#,     ,#' ,#      #,     #,   #      #          
             '#######'   ##     ##  '#######'  #'      '#     '####' #    #          



                #########################################################
                #                        -***-                          #
                #          Department of theory and spectroscopy        #
                #                                                       #
                #                      Frank Neese                      #
                #                                                       #
                #     Directorship, Architecture, Infrastructure        #
                #                    SHARK, DRIVERS                     #
                #        Core code/Algorithms in most modules           #
                #                                                       #
                #        Max Planck Institute fuer Kohlenforschung      #
                #                Kaiser Wilhelm Platz 1                 #
                #                 D-45470 Muelheim/Ruhr                 #
                #                      Germany                          #
                #                                                       #
                #                  All rights reserved                  #
                #                        -***-                          #
                #########################################################


                         Program Version 6.1.0  -  RELEASE   -
                                (GIT: $679e74b$)
                          ($2025-06-10 18:02:51 +0200$)


 With contributions from (in alphabetic order):
[Max-Planck-Institut fuer Kohlenforschung]                               
  Daniel Aravena         : Magnetic Suceptibility                        
  Michael Atanasov       : Ab Initio Ligand Field Theory (pilot matlab implementation)
  Alexander A. Auer      : GIAO ZORA, VPT2 properties, NMR spectrum      
  Ute Becker             : All parallelization in ORCA, NUMFREQ, NUMCALC 
  Giovanni Bistoni       : ED, misc. LED, open-shell LED, HFLD           
  Dmytro Bykov           : pre 5.0 version of the SCF Hessian            
  Marcos Casanova-Páez   : Triplet and SCS-CIS(D). UHF-(DLPNO)-IP/EA/STEOM-CCSD. UHF-CVS-IP/STEOM-CCSD   
  Vijay G. Chilkuri      : MRCI spin determinant printing, contributions to CSF-ICE 
  Pauline Colinet        : FMM embedding                                 
  Dipayan Datta          : RHF DLPNO-CCSD density                        
  Achintya Kumar Dutta   : EOM-CC, STEOM-CC                              
  Nicolas Foglia         : Exact transition moments, OPA infrastructure, MCD improvements    
  Dmitry Ganyushin       : Spin-Orbit,Spin-Spin,Magnetic field MRCI      
  Miquel Garcia-Rates    : C-PCM and meta-GGA Hessian, CCSD/C-PCM, Gaussian charge scheme 
  Tiago L. C. Gouveia    : GS-ROHF, GS-ROCIS                             
  Yang Guo               : DLPNO-NEVPT2, F12-NEVPT2, CIM, IAO-localization        
  Andreas Hansen         : Spin unrestricted coupled pair/coupled cluster methods 
  Ingolf Harden          : AUTO-CI MPn and infrastructure                
  Benjamin Helmich-Paris : MC-RPA, TRAH-(SCF,CASSCF), AVAS, COSX integrals, SCF dyn. polar., MC-PDFT, srDFT 
  Lee Huntington         : MR-EOM, pCC                                   
  Robert Izsak           : Overlap fitted RIJCOSX, COSX-SCS-MP3, EOM     
  Riya Kayal             : Wick's Theorem for AUTO-CI, AUTO-CI UHF-CCSDT 
  Emily Kempfer          : AUTO-CI RHF CISDT and CCSDT, approximate NEVPT4
  Christian Kollmar      : KDIIS, OOCD, Brueckner-CCSD(T), CCSD density, CASPT2, CASPT2-K, improved NEVPT2 
  Axel Koslowski         : Symmetry handling                             
  Simone Kossmann        : meta-GGA functionals, TD-DFT gradient, OOMP2, (MP2 Hessian; deprecated post 5.0) 
  Lucas Lang             : DCDCAS, Hyperfine gauge corrections, ICE-SOC+SSC
  Marvin Lechner         : AUTO-CI (C++ implementation), FIC-MRCC        
  Spencer Leger          : CASSCF response                               
  Dagmar Lenk            : GEPOL surface, SMD, ORCA-2-JSON               
  Dimitrios Liakos       : Extrapolation schemes; Compound Job, Property file
  Dimitrios Manganas     : Further ROCIS development; embedding schemes. LFT, Crystal Embedding 
  Dimitrios Pantazis     : SARC Basis sets                               
  Anastasios Papadopoulos: AUTO-CI, single reference methods and gradients 
  Taras Petrenko         : pre 6.0 DFT Hessian and TD-DFT gradient,  ECA, NRVS 
  Petra Pikulova         : Analytic Raman intensities                    
  Peter Pinski           : DLPNO-MP2, DLPNO-MP2 Gradient                 
  Shashank Vittal Rao    : ES-AILFT, MagRelax                            
  Christoph Reimann      : Effective Core Potentials                     
  Marius Retegan         : Local ZFS, SOC                                
  Christoph Riplinger    : Optimizer, TS searches, QM/MM, DLPNO-CCSD(T), (RO)-DLPNO pert. Triples 
  Michael Roemelt        : Original ROCIS implementation, recursive CI coupling coefficients
  Masaaki Saitow         : Open-shell DLPNO-CCSD energy and density      
  Barbara Sandhoefer     : DKH picture change effects                    
  Yorick L. A. Schmerwitz: GMF and freeze-and-release deltaSCF, NEB S-IDPP initial path                    
  Kantharuban Sivalingam : CASSCF convergence/infrastructure, NEVPT2, NEVPT3, NEVPT4(SD), FIC-MRCI and CEPA variants
  Bernardo de Souza      : ESD, SOC TD-DFT                               
  Georgi L. Stoychev     : AutoAux, RI-MP2 NMR, DLPNO-MP2 response, X2C  
  Van Anh Tran           : RI-MP2 g-tensors                              
  Willem Van den Heuvel  : Paramagnetic NMR                              
  Zikuan Wang            : NOTCH, Electric field optimization            
  Frank Wennmohs         : Technical directorship and infrastructure     
  Hang Xu                : AUTO-CI-Response properties                   
                                                                         
[FACCTs GmbH]                                                            
  Markus Bursch, Nicolas Foglia, Miquel Garcia-Rates, Ingolf Harden, Hagen Neugebauer, Anastasios Papadopoulos, 
  Christoph Riplinger, Bernardo de Souza, Georgi L. Stoychev                                                    
                                                                 
  APM, various basis sets, CI-OPT, improved COSX, DLPNO-Multilevel,           
  DOCKER, DRACO, updates on ESD, Fragmentator, GOAT, IRC, LR-CPCM, L-BFGS, MBIS, meta-GGA TD-DFT gradient, ML-optimized integration grids, 
  MM, NACMEs, nearIR, NEB, NEB-TS, NL-DFT gradient (VV10), 2- and 3-layer-ONIOM, interface openCOSMO-RS, QMMM,   
  Crystal-QMMM, RESP, rigid body optimization, SF, symmetry and pop. for TD-DFT, various functionals, SOLVATOR                                   
                                                                         
[Other institutions]                                                     
  V. Asgeirsson          : NEB                                           
  Christoph Bannwarth    : sTDA-DFT, sTD-DFT, PBEh-3c, B97-3c, D3        
  Giovanni Bistoni       : ETS/NOCV, ADLD/ADEX, COVALED                  
  Martin Brehm           : Molecular dynamics                            
  Ronald Cardenas        : ETS/NOCV                                      
  Martina Colucci        : COVALED                                       
  Sebastian Ehlert       : rSCAN, r2SCAN, r2SCAN-3c, D4, dhf basis sets  
  Marvin Friede          : D4 for Fr, Ra, Ac-Lr                          
  Lars Goerigk           : TD-DFT with DH, B97 family of functionals     
  Stefan Grimme          : VdW corrections, initial TS optimization, DFT functionals, gCP, sTDA/sTD-DF 
  Waldemar Hujo          : DFT-NL                                        
  H. Jonsson             : NEB                                           
  Holger Kruse           : gCP                                           
  Marcel Mueller         : wB97X-3c, vDZP basis set                      
  Hagen Neugebauer       : wr2SCAN, Native XTB                           
  Gianluca Regni         : ADLD/ADEX                                     
  Tobias Risthaus        : pre 6.0 range-separated hybrid DFT and stability analysis
  Lukas Wittmann         : regularized MP2, r2SCAN double-hybrids, wr2SCAN        
                                                                         
We gratefully acknowledge several colleagues who have allowed us to      
interface, adapt or use parts of their codes:                            
  Ed Valeev, F. Pavosevic, A. Kumar             : LibInt (2-el integral package), F12 methods 
  Garnet Chan, S. Sharma, J. Yang, R. Olivares  : DMRG                   
  Ulf Ekstrom                                   : XCFun DFT Library      
  Mihaly Kallay                                 : mrcc  (arbitrary order and MRCC methods)
  Frank Weinhold                                : gennbo (NPA and NBO analysis)           
  Simon Mueller                                 : openCOSMO-RS                            
  Christopher J. Cramer and Donald G. Truhlar   : smd solvation model                     
  S Lehtola, MJT Oliveira, MAL Marques          : LibXC Library                           
  Liviu Ungur et al                             : ANISO software                          


 Your calculation uses the libint2 library for the computation of 2-el integrals
 For citations please refer to: http://libint.valeyev.net

 Your ORCA version has been built with support for libXC version: 7.0.0
 For citations please refer to: https://libxc.gitlab.io

 This ORCA versions uses:
   CBLAS   interface :  Fast vector & matrix operations
   LAPACKE interface :  Fast linear algebra routines
   SCALAPACK package :  Parallel linear algebra routines
   Shared memory     :  Shared parallel matrices
   BLAS/LAPACK       :  OpenBLAS 0.3.29  USE64BITINT DYNAMIC_ARCH NO_AFFINITY Bulldozer SINGLE_THREADED
        Core in use  :  Bulldozer
   Copyright (c) 2011-2014, The OpenBLAS Project


  ***********************************
  * Starting time: Tue Aug 12 23:05:35 2025
  * Host name:     chromium04
  * Process ID:    208967
  * Working dir.:  /local/scratch/mehlhorn/61820
  ***********************************



***************************************
The coordinates will be read from file: start.xyz
***************************************


Your calculation utilizes the geometrical counterpoise correction gCP
Please cite in your paper:
H.Kruse, S. Grimme J.Chem.Phys., 136, (2012), 154101 
   

Your calculation utilizes the atom-pairwise dispersion correction
with the Becke-Johnson damping scheme (D3BJ)


Warning: RI is on but no J-basis has been assigned. Assigning Def2/J (nothing to worry about!)
================================================================================

cite the ECPs for Zr [Def2-ECP] as follows:
Ce-Yb(ecp-28): M. Dolg, H. Stoll, H.Preuss, J. Chem. Phys., 1989, 90, 1730-1734.
Y-Cd(ecp-28), Hf-Hg(ecp-46): D. Andrae,U. Haeussermann, M. Dolg, H. Stoll, H. Preuss, Theor. Chim. Acta, 1990, 77, 123-141.
In-Sb(ecp-28), Tl-Bi(ecp-46): B. Metz, H. Stoll, M. Dolg, J. Chem. Phys., 2000, 113, 2563-2569.
Te-Xe(ecp-28), Po-Rn(ecp-46): K. A. Peterson, D. Figgen, E. Goll, H. Stoll, M. Dolg, J. Chem. Phys., 2003, 119, 11113-11123.
Rb(ecp-28), Cs(ecp-46): T. Leininger, A. Nicklass, W. Kuechle, H. Stoll, M. Dolg, A. Bergner, Chem. Phys. Lett., 1996, 255, 274-280.
Sr(ecp-28), Ba(ecp-46): M. Kaupp, P. V. Schleyer, H. Stoll and H. Preuss, J. Chem. Phys., 1991, 94, 1360-1366.
La(ecp-46): M. Dolg, H. Stoll, A. Savin, H. Preuss, Theor. Chim. Acta, 1989, 75, 173-194.
Lu(ecp-28): X. Cao, M. Dolg, J. Chem. Phys., 2001, 115, 7348-7355.

ECP parameters for Zr [Def2-ECP] have been obtained from:
TURBOMOLE (7.0.2)

----- Orbital basis set information -----
Your calculation utilizes the basis: def2-SV(P)
   F. Weigend and R. Ahlrichs, Phys. Chem. Chem. Phys. 7, 3297 (2005).

----- AuxJ basis set information -----
Your calculation utilizes the auxiliary basis: def2/J
   H-Rn: F. Weigend, Phys. Chem. Chem. Phys. 8, 1057 (2006).
   Fr-Lr: K. Eichkorn, F. Weigend, O. Treutler, R. Ahlrichs; Theor. Chem. Acc. 97, 119 (1997).

================================================================================
                                        WARNINGS
                       Please study these warnings very carefully!
================================================================================


WARNING: Gradients are needed
  ===> : At least TightSCF should be used for SCF convergence

WARNING: Geometry Optimization
  ===> : Switching off AutoStart
         For restart on a previous wavefunction, please use MOREAD

================================================================================
                                       INPUT FILE
================================================================================
NAME = run.inp
|  1> # Geometry optimization for (AlH3)n cluster
|  2> 
|  3> %pal nprocs 24  end
|  4> 
|  5> %geom MaxIter 500 end
|  6> 
|  7> 
|  8> ! PBE def2-SV(P)
|  9> ! RKS	# closed shell for AlH3
| 10> ! D3    #  dispersion correction
| 11> ! gCP(DFT/SV(P))
| 12> ! Freq 	# Frequency analysis to check the stabiltity of the structures
| 13> 
| 14> ! NoPop # population analysis not necessary	
| 15> 
| 16> ! DEFGRID2
| 17> ! NormalSCF
| 18> ! SloppyOpt
| 19> 
| 20> ! SmallPrint
| 21> 
| 22> 
| 23> * xyzFile 0 1 start.xyz # only maingroup elements H and Al so there should be no net spin
| 24> 
| 25>                          ****END OF INPUT****
================================================================================

                       *****************************
                       * Geometry Optimization Run *
                       *****************************

Geometry optimization settings:
Update method            Update   .... BFGS
Choice of coordinates    CoordSys .... (2022) Redundant Internals
Initial Hessian          InHess   .... Almloef's Model
Max. no of cycles        MaxIter  .... 500

Convergence Tolerances:
Energy Change            TolE     ....  8.0000e-05 Eh
Max. Gradient            TolMAXG  ....  5.0000e-03 Eh/bohr
RMS Gradient             TolRMSG  ....  1.0000e-03 Eh/bohr
Max. Displacement        TolMAXD  ....  3.0000e-02 bohr
RMS Displacement         TolRMSD  ....  2.0000e-02 bohr
Strict Convergence                .... False

------------------------------------------------------------------------------
                        ORCA OPTIMIZATION COORDINATE SETUP
------------------------------------------------------------------------------

The optimization will be done in redundant internal coordinates (2022)
Making redundant internal coordinates   ...  (2022 redundants) done
Evaluating the initial hessian          ...  (Almloef) done
Evaluating the coordinates              ...  done
Calculating the B-matrix                .... done
Calculating the G-matrix                .... done
The number of degrees of freedom        ....  807

    -----------------------------------------------------------------
                    Redundant Internal Coordinates


    -----------------------------------------------------------------
         Definition                    Initial Value    Approx d2E/dq
    -----------------------------------------------------------------
      1. B(Zr  2,Zr  1)                  3.4171         0.037313   
      2. B(Zr  3,Zr  0)                  3.3521         0.047377   
      3. B(Zr  4,Zr  3)                  3.4281         0.035833   
      4. B(Zr  4,Zr  1)                  3.3562         0.046668   
      5. B(Zr  5,Zr  0)                  3.4187         0.037099   
      6. B(Zr  5,Zr  2)                  3.4202         0.036897   
      7. B(O   6,Zr  5)                  2.1172         0.391598   
      8. B(O   6,Zr  3)                  2.0832         0.443645   
      9. B(O   6,Zr  0)                  2.1357         0.365843   
     10. B(O   7,Zr  2)                  2.1138         0.396478   
     11. B(O   7,Zr  4)                  2.0848         0.441119   
     12. B(O   7,Zr  1)                  2.1292         0.374635   
     13. B(O   8,Zr  5)                  2.1184         0.389887   
     14. B(O   8,Zr  2)                  2.0938         0.426692   
     15. B(O   8,Zr  1)                  2.1516         0.345108   
     16. B(O   9,Zr  3)                  2.1123         0.398698   
     17. B(O   9,Zr  0)                  2.1922         0.297245   
     18. B(O   9,Zr  4)                  2.1610         0.333308   
     19. B(O  10,Zr  3)                  2.1607         0.333777   
     20. B(O  10,Zr  4)                  2.1098         0.402347   
     21. B(O  10,Zr  1)                  2.1946         0.294646   
     22. B(O  11,Zr  2)                  2.1104         0.401513   
     23. B(O  11,Zr  5)                  2.0958         0.423520   
     24. B(O  11,Zr  0)                  2.1477         0.350053   
     25. B(O  12,Zr  0)                  1.9856         0.634899   
     26. B(O  13,Zr  0)                  1.9722         0.666948   
     27. B(O  14,Zr  0)                  2.0675         0.469939   
     28. B(O  15,Zr  0)                  2.0448         0.510946   
     29. B(O  16,Zr  1)                  2.0663         0.471994   
     30. B(O  17,Zr  1)                  2.0446         0.511237   
     31. B(O  18,Zr  1)                  1.9834         0.640073   
     32. B(O  19,Zr  1)                  1.9751         0.659965   
     33. B(O  20,Zr  2)                  1.9891         0.626776   
     34. B(O  21,Zr  2)                  2.0415         0.517109   
     35. B(O  22,Zr  2)                  1.9854         0.635363   
     36. B(O  23,Zr  2)                  2.0487         0.503600   
     37. B(O  24,Zr  3)                  2.0696         0.466413   
     38. B(O  25,Zr  3)                  1.9817         0.644244   
     39. B(O  26,Zr  3)                  1.9916         0.621199   
     40. B(O  27,Zr  3)                  1.9893         0.626388   
     41. B(O  28,Zr  4)                  1.9899         0.625048   
     42. B(O  29,Zr  4)                  1.9908         0.622967   
     43. B(O  30,Zr  4)                  1.9809         0.645977   
     44. B(O  31,Zr  4)                  2.0686         0.468075   
     45. B(O  32,Zr  5)                  2.0509         0.499543   
     46. B(O  33,Zr  5)                  1.9899         0.624949   
     47. B(O  34,Zr  5)                  2.0370         0.525727   
     48. B(O  35,Zr  5)                  1.9903         0.624168   
     49. B(C  36,O  12)                  1.3019         0.773433   
     50. B(C  36,O  33)                  1.3007         0.776737   
     51. B(C  37,O  25)                  1.2988         0.782218   
     52. B(C  37,O  13)                  1.2989         0.781998   
     53. B(C  38,O  21)                  1.3018         0.773747   
     54. B(C  38,O  14)                  1.2997         0.779864   
     55. B(C  39,O  29)                  1.2943         0.795454   
     56. B(C  39,O  15)                  1.2954         0.792186   
     57. B(C  40,O  34)                  1.3019         0.773325   
     58. B(C  40,O  16)                  1.2997         0.779633   
     59. B(C  41,O  26)                  1.2944         0.795195   
     60. B(C  41,O  17)                  1.2954         0.792222   
     61. B(C  42,O  22)                  1.3002         0.778244   
     62. B(C  42,O  18)                  1.3011         0.775714   
     63. B(C  43,O  19)                  1.2988         0.782346   
     64. B(C  43,O  30)                  1.2987         0.782699   
     65. B(C  44,O  35)                  1.3013         0.775178   
     66. B(C  44,O  20)                  1.3013         0.775223   
     67. B(C  45,O  31)                  1.2965         0.789053   
     68. B(C  45,O  23)                  1.2970         0.787629   
     69. B(C  46,O  32)                  1.2969         0.787822   
     70. B(C  46,O  24)                  1.2966         0.788742   
     71. B(C  47,O  28)                  1.3019         0.773567   
     72. B(C  47,O  27)                  1.3019         0.773551   
     73. B(H  48,C  41)                  1.0855         0.366044   
     74. B(H  49,C  42)                  1.0916         0.358051   
     75. B(H  50,C  38)                  1.0879         0.362910   
     76. B(H  51,C  37)                  1.0902         0.359858   
     77. B(H  52,C  43)                  1.0901         0.359926   
     78. B(H  53,C  47)                  1.0918         0.357701   
     79. B(H  54,C  39)                  1.0855         0.366111   
     80. B(H  55,C  45)                  1.0849         0.366906   
     81. B(H  56,C  40)                  1.0880         0.362742   
     82. B(H  57,C  46)                  1.0848         0.367052   
     83. B(H  58,C  36)                  1.0918         0.357718   
     84. B(H  59,C  44)                  1.0913         0.358412   
     85. B(Al 60,O  20)                  3.3982         0.010000   
     86. B(Al 60,O  22)                  3.2501         0.010000   
     87. B(Al 61,Al 60)                  3.3126         0.026278   
     88. B(Al 61,O  22)                  3.4908         0.010000   
     89. B(Al 61,H  55)                  3.4875         0.010000   
     90. B(Al 61,O  23)                  3.3121         0.010000   
     91. B(H  62,H  55)                  3.0505         0.010000   
     92. B(H  62,O  23)                  2.8161         0.010000   
     93. B(H  62,Al 61)                  1.6698         0.299908   
     94. B(H  62,C  45)                  3.3985         0.010000   
     95. B(H  63,Al 61)                  1.5954         0.394196   
     96. B(H  64,O  22)                  2.8760         0.010000   
     97. B(H  64,Al 61)                  1.6687         0.301103   
     98. B(H  64,Al 60)                  1.6689         0.300871   
     99. B(H  64,C  42)                  3.4892         0.010000   
    100. B(H  64,H  49)                  3.2733         0.010000   
    101. B(H  65,Al 60)                  1.5954         0.394163   
    102. B(H  66,O  20)                  2.8364         0.010000   
    103. B(H  66,Al 60)                  1.6694         0.300352   
    104. B(H  66,H  59)                  3.3454         0.010000   
    105. B(H  67,O  22)                  3.1874         0.010000   
    106. B(H  67,C  45)                  3.0965         0.010000   
    107. B(H  67,C  42)                  2.9942         0.010000   
    108. B(H  67,O  23)                  2.9449         0.010000   
    109. B(H  67,H  49)                  2.8052         0.010000   
    110. B(H  67,H  55)                  2.7620         0.010000   
    111. B(H  67,Al 61)                  1.5962         0.393003   
    112. B(Al 68,H  62)                  1.6698         0.299852   
    113. B(Al 68,Al 61)                  3.3182         0.025735   
    114. B(Al 68,O  23)                  3.3000         0.010000   
    115. B(Al 68,O  21)                  3.2392         0.010000   
    116. B(H  69,H  50)                  2.9904         0.010000   
    117. B(H  69,O  21)                  2.8491         0.010000   
    118. B(H  69,Al 68)                  1.6697         0.300060   
    119. B(H  69,C  38)                  3.3703         0.010000   
    120. B(H  70,Al 68)                  1.5954         0.394103   
    121. B(H  71,C  44)                  3.0900         0.010000   
    122. B(H  71,O  20)                  3.0042         0.010000   
    123. B(H  71,H  59)                  2.8947         0.010000   
    124. B(H  71,O  22)                  2.7580         0.010000   
    125. B(H  71,Al 60)                  1.5965         0.392577   
    126. B(H  71,C  42)                  3.5000         0.010000   
    127. B(H  71,H  49)                  3.4237         0.010000   
    128. B(Al 72,H  69)                  1.6694         0.300379   
    129. B(Al 72,Al 68)                  3.3155         0.025999   
    130. B(Al 72,H  66)                  1.6694         0.300348   
    131. B(Al 72,Al 60)                  3.3189         0.025669   
    132. B(Al 72,O  21)                  3.4555         0.010000   
    133. B(Al 72,H  50)                  3.4028         0.010000   
    134. B(Al 72,O  20)                  3.2632         0.010000   
    135. B(H  73,Al 72)                  1.5954         0.394103   
    136. B(H  74,O  21)                  3.1251         0.010000   
    137. B(H  74,C  38)                  3.0010         0.010000   
    138. B(H  74,O  20)                  2.8031         0.010000   
    139. B(H  74,H  50)                  2.7195         0.010000   
    140. B(H  74,Al 72)                  1.5963         0.392838   
    141. B(H  74,C  44)                  3.4056         0.010000   
    142. B(H  74,H  59)                  3.3709         0.010000   
    143. B(H  75,H  55)                  3.1825         0.010000   
    144. B(H  75,O  23)                  2.8658         0.010000   
    145. B(H  75,O  21)                  2.6954         0.010000   
    146. B(H  75,Al 68)                  1.5974         0.391267   
    147. B(H  75,C  38)                  3.2990         0.010000   
    148. B(H  75,H  50)                  3.2460         0.010000   
    149. B(H  75,C  45)                  3.1941         0.010000   
    150. A(O   9,Zr  0,O  14)          136.1651         0.450766   
    151. A(O  12,Zr  0,O  13)           82.7897         0.553988   
    152. A(O   9,Zr  0,O  13)           79.4847         0.480600   
    153. A(Zr  5,Zr  0,O  13)          131.4836         0.362731   
    154. A(O   6,Zr  0,O  12)           84.4473         0.494895   
    155. A(Zr  5,Zr  0,O   9)           96.1801         0.316973   
    156. A(O  13,Zr  0,O  15)           82.8796         0.531681   
    157. A(O   6,Zr  0,O  13)          104.1503         0.499444   
    158. A(O  11,Zr  0,O  14)           68.8340         0.464407   
    159. A(Zr  3,Zr  0,O  15)          107.6077         0.361377   
    160. A(Zr  5,Zr  0,O  12)           69.8009         0.359696   
    161. A(O  12,Zr  0,O  15)          141.8152         0.526775   
    162. A(Zr  5,Zr  0,O   6)           36.3162         0.327943   
    163. A(Zr  5,Zr  0,O  14)           96.6198         0.341877   
    164. A(O   6,Zr  0,O  11)           64.9396         0.443723   
    165. A(O   6,Zr  0,O   9)           65.6690         0.430834   
    166. A(O   6,Zr  0,O  14)          132.2534         0.468175   
    167. A(Zr  3,Zr  0,O  13)           74.8899         0.378308   
    168. A(O  13,Zr  0,O  14)          119.9112         0.523378   
    169. A(O  11,Zr  0,O  12)           89.4128         0.490862   
    170. A(O   9,Zr  0,O  15)           70.8110         0.457682   
    171. A(Zr  3,Zr  0,O  12)          102.4548         0.375102   
    172. A(O   9,Zr  0,O  11)          100.5196         0.427437   
    173. A(Zr  3,Zr  0,Zr  5)           73.1431         0.257423   
    174. A(O  14,Zr  0,O  15)           73.2452         0.497956   
    175. A(Zr  3,Zr  0,O  11)           97.1733         0.339032   
    176. A(Zr  3,Zr  0,O  14)          164.8407         0.356268   
    177. A(O  11,Zr  0,O  13)          167.2895         0.495366   
    178. A(Zr  5,Zr  0,O  15)          141.5956         0.346711   
    179. A(Zr  5,Zr  0,O  11)           35.8182         0.325569   
    180. A(O  12,Zr  0,O  14)           83.7768         0.518563   
    181. A(O   9,Zr  0,O  12)          139.8116         0.476260   
    182. A(Zr  3,Zr  0,O   9)           38.0048         0.329947   
    183. A(O   6,Zr  0,O  15)          133.4510         0.475423   
    184. A(Zr  3,Zr  0,O   6)           36.8462         0.341541   
    185. A(O  11,Zr  0,O  15)          109.2455         0.471584   
    186. A(Zr  2,Zr  1,O  18)           70.1772         0.360546   
    187. A(O  10,Zr  1,O  18)          140.3087         0.476201   
    188. A(Zr  2,Zr  1,O   7)           36.2031         0.329543   
    189. A(O   8,Zr  1,O  19)          166.4712         0.493096   
    190. A(O   7,Zr  1,O  10)           65.6272         0.431993   
    191. A(O   7,Zr  1,O  19)          103.2450         0.500674   
    192. A(O  10,Zr  1,O  16)          135.4991         0.450405   
    193. A(Zr  4,Zr  1,O   7)           36.7513         0.342038   
    194. A(Zr  4,Zr  1,O   8)           97.1118         0.337379   
    195. A(Zr  2,Zr  1,O  19)          130.6627         0.362434   
    196. A(O  17,Zr  1,O  18)          141.0210         0.527636   
    197. A(Zr  4,Zr  1,O  19)           74.5116         0.376637   
    198. A(O   7,Zr  1,O  17)          133.8527         0.477556   
    199. A(O  16,Zr  1,O  17)           73.3529         0.498413   
    200. A(Zr  4,Zr  1,O  10)           37.8677         0.328649   
    201. A(Zr  2,Zr  1,Zr  4)           72.9130         0.257067   
    202. A(Zr  4,Zr  1,O  17)          107.1864         0.360484   
    203. A(Zr  2,Zr  1,O  10)           95.7878         0.316816   
    204. A(O   8,Zr  1,O  16)           68.7578         0.463570   
    205. A(O   8,Zr  1,O  10)          100.4088         0.425679   
    206. A(O  17,Zr  1,O  19)           82.5130         0.530685   
    207. A(O   8,Zr  1,O  18)           89.2747         0.490306   
    208. A(O   8,Zr  1,O  17)          110.4074         0.470403   
    209. A(Zr  2,Zr  1,O   8)           35.8284         0.325115   
    210. A(Zr  2,Zr  1,O  17)          142.5197         0.347079   
    211. A(O   7,Zr  1,O   8)           65.1411         0.444488   
    212. A(O  10,Zr  1,O  19)           79.6506         0.478893   
    213. A(O  16,Zr  1,O  18)           83.9293         0.519778   
    214. A(O  10,Zr  1,O  17)           70.7303         0.456997   
    215. A(O   7,Zr  1,O  18)           84.6764         0.497832   
    216. A(Zr  4,Zr  1,O  16)          164.3967         0.355620   
    217. A(O   7,Zr  1,O  16)          132.5028         0.470595   
    218. A(O  18,Zr  1,O  19)           82.4811         0.553734   
    219. A(O  16,Zr  1,O  19)          120.6098         0.522772   
    220. A(Zr  2,Zr  1,O  16)           96.9870         0.342455   
    221. A(Zr  4,Zr  1,O  18)          103.0672         0.374651   
    222. A(Zr  5,Zr  2,O   7)           83.8828         0.332032   
    223. A(O   7,Zr  2,O  22)           99.3680         0.502419   
    224. A(O  11,Zr  2,O  20)           78.0988         0.502326   
    225. A(O  20,Zr  2,O  22)           82.2089         0.547571   
    226. A(Zr  5,Zr  2,O   8)           35.9519         0.336105   
    227. A(Zr  1,Zr  2,O  21)          145.5467         0.347746   
    228. A(Zr  1,Zr  2,O  22)           74.1491         0.360093   
    229. A(Zr  5,Zr  2,O  11)           35.4565         0.332727   
    230. A(O  21,Zr  2,O  23)           79.5679         0.505538   
    231. A(O   7,Zr  2,O   8)           66.4196         0.466793   
    232. A(O   8,Zr  2,O  21)          140.8917         0.490204   
    233. A(Zr  5,Zr  2,O  21)          106.2329         0.347092   
    234. A(O   7,Zr  2,O  21)          110.5852         0.483590   
    235. A(Zr  5,Zr  2,O  22)          108.8125         0.359407   
    236. A(O   8,Zr  2,O  11)           68.7035         0.467874   
    237. A(O  20,Zr  2,O  23)          132.9017         0.524072   
    238. A(O   8,Zr  2,O  23)          129.3728         0.487807   
    239. A(Zr  5,Zr  2,O  23)          154.7026         0.345550   
    240. A(Zr  1,Zr  2,O  23)           92.5937         0.346201   
    241. A(O  21,Zr  2,O  22)          135.7009         0.528037   
    242. A(O  11,Zr  2,O  23)          135.0328         0.482355   
    243. A(O   8,Zr  2,O  22)           80.6505         0.509348   
    244. A(Zr  1,Zr  2,Zr  5)           68.4712         0.248364   
    245. A(O   7,Zr  2,O  11)           86.7187         0.461628   
    246. A(Zr  1,Zr  2,O   7)           36.5098         0.332648   
    247. A(O  22,Zr  2,O  23)           80.2101         0.525414   
    248. A(Zr  1,Zr  2,O  11)           91.5560         0.333345   
    249. A(O   7,Zr  2,O  23)           71.1834         0.481233   
    250. A(Zr  1,Zr  2,O   8)           36.9781         0.336732   
    251. A(O   8,Zr  2,O  20)           89.6847         0.508055   
    252. A(O   7,Zr  2,O  20)          155.2228         0.501147   
    253. A(Zr  5,Zr  2,O  20)           72.3655         0.358575   
    254. A(Zr  1,Zr  2,O  20)          123.6422         0.359259   
    255. A(O  11,Zr  2,O  21)           72.2063         0.484719   
    256. A(O  20,Zr  2,O  21)           83.4402         0.526687   
    257. A(O  11,Zr  2,O  22)          143.3290         0.503601   
    258. A(O   6,Zr  3,O  10)           83.4047         0.455575   
    259. A(O   9,Zr  3,O  10)           69.4982         0.446818   
    260. A(Zr  4,Zr  3,O  10)           36.1023         0.321201   
    261. A(O  25,Zr  3,O  26)          135.2694         0.548085   
    262. A(O  24,Zr  3,O  26)           76.8341         0.515719   
    263. A(Zr  4,Zr  3,O  27)           71.7469         0.356758   
    264. A(O  10,Zr  3,O  26)           74.4697         0.484596   
    265. A(O   6,Zr  3,O  27)          156.5943         0.511708   
    266. A(Zr  4,Zr  3,O  24)          155.4781         0.339469   
    267. A(O  26,Zr  3,O  27)           85.5982         0.545173   
    268. A(Zr  4,Zr  3,O  25)          107.1070         0.358466   
    269. A(Zr  0,Zr  3,O  25)           75.1446         0.376049   
    270. A(Zr  4,Zr  3,O   9)           37.1472         0.330732   
    271. A(O  10,Zr  3,O  25)          142.3436         0.487871   
    272. A(Zr  0,Zr  3,O  10)           93.4273         0.336352   
    273. A(Zr  0,Zr  3,Zr  4)           72.5232         0.256104   
    274. A(Zr  4,Zr  3,O  26)          109.2597         0.356254   
    275. A(O   6,Zr  3,O   9)           68.0305         0.470622   
    276. A(Zr  0,Zr  3,O  26)          140.8734         0.373692   
    277. A(O  24,Zr  3,O  25)           80.8404         0.519252   
    278. A(O   9,Zr  3,O  25)           79.8687         0.504244   
    279. A(O   6,Zr  3,O  25)          105.3270         0.514406   
    280. A(O   9,Zr  3,O  27)           92.0079         0.501611   
    281. A(O  10,Zr  3,O  24)          135.3595         0.459751   
    282. A(O   9,Zr  3,O  24)          127.1849         0.474969   
    283. A(Zr  0,Zr  3,O   9)           39.7194         0.346505   
    284. A(O   9,Zr  3,O  26)          143.5655         0.500834   
    285. A(O   6,Zr  3,O  24)           70.6340         0.484415   
    286. A(O  25,Zr  3,O  27)           81.8652         0.548950   
    287. A(Zr  0,Zr  3,O  24)           87.8007         0.355812   
    288. A(O  24,Zr  3,O  27)          132.7708         0.516523   
    289. A(O  10,Zr  3,O  27)           77.9721         0.485342   
    290. A(Zr  0,Zr  3,O  27)          128.9098         0.374229   
    291. A(Zr  4,Zr  3,O   6)           84.8514         0.336648   
    292. A(O   6,Zr  3,O  26)          103.0340         0.510913   
    293. A(Zr  0,Zr  3,O   6)           37.9358         0.352807   
    294. A(O   9,Zr  4,O  10)           69.5360         0.447443   
    295. A(O   7,Zr  4,O  10)           67.9375         0.470916   
    296. A(Zr  3,Zr  4,O  10)           37.1161         0.331231   
    297. A(O   9,Zr  4,O  29)           74.6435         0.484725   
    298. A(O   7,Zr  4,O  31)           70.6418         0.484222   
    299. A(O   9,Zr  4,O  31)          135.3376         0.459932   
    300. A(O  30,Zr  4,O  31)           80.8740         0.519860   
    301. A(O  29,Zr  4,O  31)           76.5174         0.516338   
    302. A(Zr  1,Zr  4,Zr  3)           72.4491         0.255535   
    303. A(O   9,Zr  4,O  30)          142.4143         0.487987   
    304. A(Zr  3,Zr  4,O  29)          109.5175         0.356426   
    305. A(Zr  1,Zr  4,O  30)           75.3943         0.375245   
    306. A(O   7,Zr  4,O  29)          103.2555         0.510639   
    307. A(Zr  1,Zr  4,O  29)          140.8241         0.372905   
    308. A(O   7,Zr  4,O  28)          156.6217         0.510957   
    309. A(Zr  3,Zr  4,O  28)           71.6780         0.356628   
    310. A(O  28,Zr  4,O  29)           85.6389         0.545246   
    311. A(Zr  3,Zr  4,O  31)          155.5813         0.339671   
    312. A(Zr  3,Zr  4,O  30)          107.1461         0.358630   
    313. A(O   7,Zr  4,O  30)          105.1877         0.514115   
    314. A(O  28,Zr  4,O  31)          132.7344         0.516661   
    315. A(O  10,Zr  4,O  29)          143.7619         0.501950   
    316. A(Zr  1,Zr  4,O   9)           93.3983         0.335431   
    317. A(O  10,Zr  4,O  30)           80.0167         0.505354   
    318. A(Zr  1,Zr  4,O   7)           37.6695         0.351569   
    319. A(O  28,Zr  4,O  30)           81.8521         0.549007   
    320. A(O  29,Zr  4,O  30)          134.9482         0.548659   
    321. A(O  10,Zr  4,O  31)          127.3061         0.476078   
    322. A(Zr  3,Zr  4,O   9)           36.1740         0.321127   
    323. A(Zr  3,Zr  4,O   7)           84.9516         0.336328   
    324. A(Zr  1,Zr  4,O  28)          128.9352         0.373119   
    325. A(O   7,Zr  4,O   9)           83.6828         0.454985   
    326. A(O   9,Zr  4,O  28)           77.8443         0.485024   
    327. A(O  10,Zr  4,O  28)           92.0106         0.502262   
    328. A(Zr  1,Zr  4,O  31)           87.9666         0.355118   
    329. A(Zr  1,Zr  4,O  10)           39.6811         0.346158   
    330. A(O  11,Zr  5,O  35)           90.1087         0.506954   
    331. A(O  34,Zr  5,O  35)           83.7701         0.527913   
    332. A(O  33,Zr  5,O  35)           82.3855         0.545428   
    333. A(O  32,Zr  5,O  35)          133.1439         0.522867   
    334. A(O   8,Zr  5,O  35)           77.8352         0.499199   
    335. A(O   6,Zr  5,O  35)          155.0117         0.499606   
    336. A(Zr  2,Zr  5,O  35)           72.5533         0.358321   
    337. A(O  33,Zr  5,O  34)          136.6100         0.528037   
    338. A(O  32,Zr  5,O  34)           79.8972         0.506335   
    339. A(O  11,Zr  5,O  34)          140.9338         0.491028   
    340. A(Zr  0,Zr  5,O  35)          124.0983         0.358654   
    341. A(O  32,Zr  5,O  33)           80.2297         0.522989   
    342. A(O   6,Zr  5,O  34)          109.3316         0.483961   
    343. A(Zr  2,Zr  5,O  34)          106.6897         0.348059   
    344. A(Zr  0,Zr  5,O  34)          144.6734         0.348379   
    345. A(O  11,Zr  5,O  33)           79.9952         0.507072   
    346. A(O   8,Zr  5,O  33)          142.4232         0.499315   
    347. A(O   6,Zr  5,O  33)          100.0983         0.499722   
    348. A(O   8,Zr  5,O  32)          135.6827         0.479033   
    349. A(Zr  2,Zr  5,O   6)           83.1442         0.331351   
    350. A(Zr  0,Zr  5,O   6)           36.6855         0.331651   
    351. A(Zr  0,Zr  5,Zr  2)           68.1295         0.248158   
    352. A(Zr  0,Zr  5,O  32)           91.9123         0.345397   
    353. A(Zr  2,Zr  5,O  32)          154.3002         0.345081   
    354. A(O   8,Zr  5,O  34)           72.4780         0.483569   
    355. A(O  11,Zr  5,O  32)          128.5186         0.486406   
    356. A(O   6,Zr  5,O  32)           71.3290         0.479420   
    357. A(Zr  2,Zr  5,O  33)          107.8909         0.358397   
    358. A(Zr  0,Zr  5,O  33)           73.9542         0.358730   
    359. A(O   8,Zr  5,O  11)           68.5161         0.464728   
    360. A(O   6,Zr  5,O  11)           66.1603         0.465100   
    361. A(Zr  2,Zr  5,O  11)           35.7398         0.335688   
    362. A(Zr  0,Zr  5,O  11)           36.8481         0.335993   
    363. A(O   6,Zr  5,O   8)           85.8207         0.458122   
    364. A(Zr  2,Zr  5,O   8)           35.4717         0.331111   
    365. A(Zr  0,Zr  5,O   8)           91.2424         0.331411   
    366. A(Zr  3,O   6,Zr  5)          147.6936         0.469073   
    367. A(Zr  0,O   6,Zr  5)          106.9983         0.452842   
    368. A(Zr  0,O   6,Zr  3)          105.2181         0.463265   
    369. A(Zr  1,O   7,Zr  4)          105.5792         0.464796   
    370. A(Zr  2,O   7,Zr  4)          146.9443         0.469648   
    371. A(Zr  1,O   7,Zr  2)          107.2871         0.455830   
    372. A(Zr  1,O   8,Zr  2)          107.1935         0.455112   
    373. A(Zr  2,O   8,Zr  5)          108.5763         0.465363   
    374. A(Zr  1,O   8,Zr  5)          128.5418         0.447713   
    375. A(Zr  3,O   9,Zr  4)          106.6788         0.446705   
    376. A(Zr  0,O   9,Zr  4)          134.2419         0.423703   
    377. A(Zr  0,O   9,Zr  3)          102.2758         0.437552   
    378. A(Zr  3,O  10,Zr  4)          106.7816         0.447557   
    379. A(Zr  1,O  10,Zr  4)          102.4511         0.437578   
    380. A(Zr  1,O  10,Zr  3)          134.0383         0.423145   
    381. A(Zr  2,O  11,Zr  5)          108.8037         0.467235   
    382. A(Zr  0,O  11,Zr  5)          107.3336         0.455673   
    383. A(Zr  0,O  11,Zr  2)          128.2136         0.451272   
    384. A(Zr  0,O  12,C  36)          129.4886         0.504335   
    385. A(Zr  0,O  13,C  37)          131.6291         0.510039   
    386. A(Zr  0,O  14,C  38)          125.7935         0.477721   
    387. A(Zr  0,O  15,C  39)          142.3397         0.486560   
    388. A(Zr  1,O  16,C  40)          126.5864         0.478079   
    389. A(Zr  1,O  17,C  41)          141.8274         0.486616   
    390. A(Zr  1,O  18,C  42)          130.1982         0.505376   
    391. A(Zr  1,O  19,C  43)          132.0587         0.509079   
    392. A(C  44,O  20,Al 60)          104.1444         0.204796   
    393. A(Zr  2,O  20,Al 60)          103.8794         0.216762   
    394. A(Zr  2,O  20,Al 72)          108.4771         0.231942   
    395. A(Al 60,O  20,Al 72)           59.7254         0.128948   
    396. A(C  44,O  20,Al 72)          122.7437         0.218554   
    397. A(Zr  2,O  20,C  44)          128.6774         0.503343   
    398. A(Zr  2,O  21,C  38)          136.9591         0.485521   
    399. A(Al 68,O  21,Al 72)           59.2659         0.127858   
    400. A(C  38,O  21,Al 72)           93.5533         0.199362   
    401. A(Zr  2,O  21,Al 72)          100.6656         0.205630   
    402. A(C  38,O  21,Al 68)          114.5524         0.221112   
    403. A(Zr  2,O  21,Al 68)          107.5949         0.228615   
    404. A(Zr  2,O  22,C  42)          126.3476         0.504987   
    405. A(Al 60,O  22,Al 61)           58.7367         0.126392   
    406. A(Zr  2,O  22,Al 61)          105.1800         0.207658   
    407. A(C  42,O  22,Al 60)          123.4987         0.220087   
    408. A(Zr  2,O  22,Al 60)          109.1909         0.233952   
    409. A(C  42,O  22,Al 61)           94.4102         0.196308   
    410. A(Al 61,O  23,Al 68)           60.2436         0.130619   
    411. A(Zr  2,O  23,Al 61)          109.7685         0.219610   
    412. A(C  45,O  23,Al 68)          108.5225         0.215105   
    413. A(Zr  2,O  23,Al 68)          105.3124         0.220938   
    414. A(C  45,O  23,Al 61)          104.3532         0.213835   
    415. A(Zr  2,O  23,C  45)          140.5406         0.484742   
    416. A(Zr  3,O  24,C  46)          136.3359         0.478055   
    417. A(Zr  3,O  25,C  37)          130.8134         0.506777   
    418. A(Zr  3,O  26,C  41)          137.8437         0.504893   
    419. A(Zr  3,O  27,C  47)          127.4508         0.503082   
    420. A(Zr  4,O  28,C  47)          127.5176         0.502884   
    421. A(Zr  4,O  29,C  39)          137.5350         0.505191   
    422. A(Zr  4,O  30,C  43)          130.4943         0.507090   
    423. A(Zr  4,O  31,C  45)          135.5056         0.478403   
    424. A(Zr  5,O  32,C  46)          140.2396         0.484040   
    425. A(Zr  5,O  33,C  36)          125.6714         0.503252   
    426. A(Zr  5,O  34,C  40)          136.2189         0.486958   
    427. A(Zr  5,O  35,C  44)          128.0121         0.502947   
    428. A(O  12,C  36,O  33)          126.8837         0.464505   
    429. A(O  33,C  36,H  58)          116.5057         0.364022   
    430. A(O  12,C  36,H  58)          116.6053         0.363757   
    431. A(O  13,C  37,O  25)          127.5138         0.466041   
    432. A(O  25,C  37,H  51)          116.2585         0.364832   
    433. A(O  13,C  37,H  51)          116.2275         0.364815   
    434. A(O  14,C  38,O  21)          129.6666         0.464881   
    435. A(O  21,C  38,H  50)          115.2469         0.364680   
    436. A(O  14,C  38,H  50)          115.0773         0.365172   
    437. A(O  15,C  39,O  29)          129.0087         0.468586   
    438. A(O  29,C  39,H  54)          115.4876         0.366964   
    439. A(O  15,C  39,H  54)          115.5005         0.366705   
    440. A(O  16,C  40,O  34)          129.6225         0.464809   
    441. A(O  34,C  40,H  56)          115.2557         0.364617   
    442. A(O  16,C  40,H  56)          115.1179         0.365124   
    443. A(O  17,C  41,O  26)          129.0771         0.468563   
    444. A(O  26,C  41,H  48)          115.4511         0.366932   
    445. A(O  17,C  41,H  48)          115.4693         0.366696   
    446. A(O  18,C  42,O  22)          126.8854         0.464920   
    447. A(O  22,C  42,H  49)          116.5190         0.364201   
    448. A(O  18,C  42,H  49)          116.5921         0.363998   
    449. A(O  30,C  43,H  52)          116.2640         0.364883   
    450. A(O  19,C  43,H  52)          116.2356         0.364854   
    451. A(O  19,C  43,O  30)          127.5000         0.466132   
    452. A(O  35,C  44,H  59)          116.2407         0.364018   
    453. A(O  20,C  44,H  59)          116.1830         0.364021   
    454. A(O  20,C  44,O  35)          127.5763         0.464530   
    455. A(O  31,C  45,H  55)          114.9601         0.366592   
    456. A(O  23,C  45,H  55)          115.0483         0.366479   
    457. A(O  23,C  45,O  31)          129.9865         0.467399   
    458. A(O  32,C  46,H  57)          114.9389         0.366519   
    459. A(O  24,C  46,H  57)          114.9607         0.366592   
    460. A(O  24,C  46,O  32)          130.0930         0.467386   
    461. A(O  28,C  47,H  53)          116.4193         0.363765   
    462. A(O  27,C  47,H  53)          116.4204         0.363764   
    463. A(O  27,C  47,O  28)          127.1603         0.464170   
    464. A(O  20,Al 60,H  71)           62.1348         0.191244   
    465. A(O  20,Al 60,O  22)           46.2204         0.129385   
    466. A(O  20,Al 60,Al 72)           58.1155         0.156271   
    467. A(O  20,Al 60,H  66)           56.3354         0.185231   
    468. A(O  20,Al 60,H  65)          152.0221         0.191337   
    469. A(O  20,Al 60,H  64)           96.7450         0.185269   
    470. A(O  20,Al 60,Al 61)           94.8340         0.156629   
    471. A(O  22,Al 60,Al 72)           92.7239         0.165087   
    472. A(O  22,Al 60,H  71)           57.9593         0.204643   
    473. A(O  22,Al 60,H  66)           94.2001         0.197842   
    474. A(O  22,Al 60,H  65)          155.9201         0.204749   
    475. A(O  22,Al 60,H  64)           62.0936         0.197885   
    476. A(O  22,Al 60,Al 61)           64.2627         0.165492   
    477. A(H  71,Al 60,Al 72)          116.2302         0.281632   
    478. A(H  66,Al 60,Al 72)            6.2492         0.270303   
    479. A(H  65,Al 60,Al 72)          111.1403         0.281808   
    480. A(H  64,Al 60,Al 72)           95.5461         0.270374   
    481. A(Al 61,Al 60,Al 72)           88.7932         0.216416   
    482. A(H  66,Al 60,H  71)          112.0021         0.364559   
    483. A(H  65,Al 60,H  71)          110.7938         0.382044   
    484. A(H  64,Al 60,H  71)          111.7385         0.364667   
    485. A(Al 61,Al 60,H  71)          116.8079         0.282657   
    486. A(H  65,Al 60,H  66)          109.8720         0.364811   
    487. A(H  64,Al 60,H  66)          101.6084         0.348455   
    488. A(Al 61,Al 60,H  66)           94.9056         0.271269   
    489. A(H  64,Al 60,H  65)          110.4947         0.364918   
    490. A(Al 61,Al 60,H  65)          111.4239         0.282834   
    491. A(Al 61,Al 60,H  64)            7.0269         0.271340   
    492. A(O  22,Al 61,O  23)           44.8281         0.124512   
    493. A(O  22,Al 61,Al 68)           90.6466         0.151321   
    494. A(O  22,Al 61,H  64)           54.8982         0.178149   
    495. A(O  22,Al 61,H  63)          156.1276         0.183754   
    496. A(O  22,Al 61,H  62)           92.7434         0.178069   
    497. A(O  22,Al 61,Al 60)           57.0007         0.151617   
    498. A(O  23,Al 61,H  67)           62.7247         0.198856   
    499. A(O  23,Al 61,H  64)           92.8151         0.192429   
    500. A(O  23,Al 61,H  63)          156.6474         0.198931   
    501. A(O  23,Al 61,H  62)           58.2053         0.192336   
    502. A(O  23,Al 61,Al 60)           91.5280         0.161647   
    503. A(O  22,Al 61,H  67)           65.7651         0.183689   
    504. A(O  23,Al 61,Al 68)           59.6964         0.161304   
    505. A(H  67,Al 61,Al 68)          115.8915         0.281791   
    506. A(H  64,Al 61,Al 68)           97.7624         0.270511   
    507. A(H  63,Al 61,Al 68)          111.0241         0.281923   
    508. A(H  62,Al 61,Al 68)            6.4883         0.270348   
    509. A(Al 60,Al 61,Al 68)           91.1453         0.216490   
    510. A(H  64,Al 61,H  67)          110.9290         0.364783   
    511. A(H  63,Al 61,H  67)          110.4360         0.382121   
    512. A(H  62,Al 61,H  67)          111.2785         0.364534   
    513. A(Al 60,Al 61,H  67)          116.3489         0.282705   
    514. A(H  63,Al 61,H  64)          110.1378         0.364972   
    515. A(H  62,Al 61,H  64)          103.9802         0.348414   
    516. A(Al 60,Al 61,H  64)            7.0278         0.271372   
    517. A(H  62,Al 61,H  63)          109.9095         0.364724   
    518. A(Al 60,Al 61,H  63)          110.7169         0.282838   
    519. A(Al 60,Al 61,H  62)           97.4378         0.271208   
    520. A(Al 61,H  62,Al 68)          167.0235         0.348169   
    521. A(Al 60,H  64,Al 61)          165.9453         0.348602   
    522. A(Al 60,H  66,Al 72)          167.5016         0.348353   
    523. A(O  21,Al 68,O  23)           47.1765         0.133223   
    524. A(O  23,Al 68,H  75)           60.2693         0.199862   
    525. A(O  23,Al 68,Al 72)           93.4353         0.162208   
    526. A(O  23,Al 68,H  70)          154.0829         0.200044   
    527. A(O  23,Al 68,H  69)           95.5104         0.193399   
    528. A(O  23,Al 68,H  62)           58.5660         0.193382   
    529. A(O  23,Al 68,Al 61)           60.0600         0.162039   
    530. A(O  21,Al 68,H  75)           56.0531         0.205612   
    531. A(O  21,Al 68,Al 72)           63.6185         0.166005   
    532. A(O  21,Al 68,H  70)          151.3233         0.205803   
    533. A(O  21,Al 68,H  69)           61.4930         0.198813   
    534. A(O  21,Al 68,H  62)           98.1353         0.198796   
    535. A(O  21,Al 68,Al 61)           96.3626         0.165827   
    536. A(Al 72,Al 68,H  75)          116.0360         0.282043   
    537. A(H  70,Al 68,H  75)          110.9032         0.381812   
    538. A(H  69,Al 68,H  75)          111.5143         0.364290   
    539. A(H  62,Al 68,H  75)          111.6582         0.364247   
    540. A(Al 61,Al 68,H  75)          115.8394         0.281598   
    541. A(H  70,Al 68,Al 72)          111.6147         0.282359   
    542. A(H  69,Al 68,Al 72)            6.8087         0.270788   
    543. A(H  62,Al 68,Al 72)           95.1355         0.270760   
    544. A(Al 61,Al 68,Al 72)           88.7558         0.216182   
    545. A(H  69,Al 68,H  70)          110.1440         0.364740   
    546. A(H  62,Al 68,H  70)          110.5356         0.364697   
    547. A(Al 61,Al 68,H  70)          112.0659         0.281913   
    548. A(H  62,Al 68,H  69)          101.7589         0.348199   
    549. A(Al 61,Al 68,H  69)           95.4126         0.270369   
    550. A(Al 61,Al 68,H  62)            6.4881         0.270340   
    551. A(Al 68,H  69,Al 72)          166.3814         0.348302   
    552. A(O  20,Al 72,O  21)           46.9584         0.127090   
    553. A(O  21,Al 72,H  74)           64.6567         0.186502   
    554. A(O  21,Al 72,H  73)          152.7351         0.186573   
    555. A(O  21,Al 72,H  69)           55.0460         0.180756   
    556. A(O  21,Al 72,Al 68)           57.1155         0.153327   
    557. A(O  21,Al 72,H  66)           95.9079         0.180754   
    558. A(O  21,Al 72,Al 60)           94.0744         0.153142   
    559. A(O  20,Al 72,H  74)           59.1699         0.203409   
    560. A(O  20,Al 72,H  73)          156.0937         0.203492   
    561. A(O  20,Al 72,H  69)           94.4491         0.196666   
    562. A(O  20,Al 72,Al 68)           93.0417         0.164481   
    563. A(O  20,Al 72,H  66)           60.3491         0.196664   
    564. A(O  20,Al 72,Al 60)           62.1591         0.164263   
    565. A(H  73,Al 72,H  74)          110.6689         0.382078   
    566. A(H  69,Al 72,H  74)          112.5230         0.364606   
    567. A(Al 68,Al 72,H  74)          117.3904         0.282218   
    568. A(H  66,Al 72,H  74)          110.1410         0.364600   
    569. A(Al 60,Al 72,H  74)          114.7497         0.281661   
    570. A(H  69,Al 72,H  73)          109.3899         0.364807   
    571. A(Al 68,Al 72,H  73)          110.4158         0.282359   
    572. A(H  66,Al 72,H  73)          110.3145         0.364800   
    573. A(Al 60,Al 72,H  73)          111.1867         0.281801   
    574. A(Al 68,Al 72,H  69)            6.8099         0.270832   
    575. A(H  66,Al 72,H  69)          103.5928         0.348359   
    576. A(Al 60,Al 72,H  69)           97.6361         0.270307   
    577. A(H  66,Al 72,Al 68)           97.0998         0.270828   
    578. A(Al 60,Al 72,Al 68)           91.0817         0.216108   
    579. A(Al 60,Al 72,H  66)            6.2492         0.270303   
    580. D(Zr  5,Zr  2,Zr  1,Zr  4)    107.6582         0.010000   
    581. D(Zr  5,Zr  2,Zr  1,O   7)    109.9008         0.010000   
    582. D(O   7,Zr  2,Zr  1,Zr  4)     -2.2425         0.010000   
    583. D(Zr  4,Zr  3,Zr  0,O   6)   -104.5303         0.010000   
    584. D(Zr  4,Zr  3,Zr  0,Zr  5)   -103.0185         0.010000   
    585. D(O   6,Zr  3,Zr  0,Zr  5)      1.5118         0.010000   
    586. D(O   7,Zr  4,Zr  3,Zr  0)     63.0955         0.010000   
    587. D(Zr  3,Zr  4,Zr  1,Zr  2)   -102.7755         0.010000   
    588. D(Zr  3,Zr  4,Zr  1,O   7)   -104.9892         0.010000   
    589. D(Zr  1,Zr  4,Zr  3,O   6)     62.7453         0.010000   
    590. D(Zr  1,Zr  4,Zr  3,Zr  0)     99.4381         0.010000   
    591. D(O   7,Zr  4,Zr  1,Zr  2)      2.2137         0.010000   
    592. D(O   6,Zr  5,Zr  0,Zr  3)     -1.5308         0.010000   
    593. D(Zr  2,Zr  5,Zr  0,O   6)    108.8745         0.010000   
    594. D(Zr  2,Zr  5,Zr  0,Zr  3)    107.3437         0.010000   
    595. D(Zr  0,Zr  5,Zr  2,Zr  1)   -103.8792         0.010000   
    596. D(Zr  0,Zr  5,Zr  2,O   7)    -69.6410         0.010000   
    597. D(O   6,Zr  5,Zr  2,Zr  1)    -69.1729         0.010000   
    598. D(Zr  0,O   6,Zr  5,O   8)    -97.7282         0.010000   
    599. D(Zr  3,O   6,Zr  5,Zr  0)    175.5853         0.010000   
    600. D(Zr  0,O   6,Zr  5,Zr  2)    -62.1841         0.010000   
    601. D(Zr  0,O   6,Zr  3,Zr  4)     67.9827         0.010000   
    602. D(Zr  3,O   6,Zr  0,O   9)    -33.0008         0.010000   
    603. D(Zr  5,O   6,Zr  3,Zr  0)   -175.6248         0.010000   
    604. D(Zr  3,O   6,Zr  0,Zr  5)   -177.5565         0.010000   
    605. D(Zr  5,O   6,Zr  0,Zr  3)    177.5565         0.010000   
    606. D(Zr  0,O   6,Zr  3,O   9)     33.7373         0.010000   
    607. D(Zr  4,O   7,Zr  1,Zr  2)   -176.4161         0.010000   
    608. D(Zr  2,O   7,Zr  1,O   8)     28.3710         0.010000   
    609. D(Zr  2,O   7,Zr  1,Zr  4)    176.4161         0.010000   
    610. D(Zr  1,O   7,Zr  2,Zr  5)    -61.6052         0.010000   
    611. D(Zr  2,O   7,Zr  4,Zr  1)   -173.7178         0.010000   
    612. D(Zr  1,O   7,Zr  4,O   9)    103.9446         0.010000   
    613. D(Zr  4,O   7,Zr  2,Zr  1)    173.6621         0.010000   
    614. D(Zr  1,O   7,Zr  4,Zr  3)     67.6073         0.010000   
    615. D(Zr  1,O   7,Zr  2,O   8)    -28.9085         0.010000   
    616. D(Zr  1,O   8,Zr  2,Zr  5)    142.3796         0.010000   
    617. D(Zr  2,O   8,Zr  5,Zr  0)     47.7388         0.010000   
    618. D(Zr  1,O   8,Zr  5,Zr  2)   -131.7922         0.010000   
    619. D(Zr  5,O   8,Zr  2,Zr  1)   -142.3796         0.010000   
    620. D(Zr  1,O   8,Zr  5,Zr  0)    -84.0534         0.010000   
    621. D(Zr  5,O   8,Zr  1,Zr  2)    132.2872         0.010000   
    622. D(Zr  2,O   8,Zr  1,O   7)    -28.6510         0.010000   
    623. D(Zr  2,O   8,Zr  1,Zr  4)    -47.2613         0.010000   
    624. D(Zr  1,O   8,Zr  2,O   7)     28.5646         0.010000   
    625. D(Zr  3,O   9,Zr  4,Zr  1)    -53.6291         0.010000   
    626. D(Zr  4,O   9,Zr  3,Zr  0)    144.1513         0.010000   
    627. D(Zr  0,O   9,Zr  4,Zr  3)    126.9850         0.010000   
    628. D(Zr  4,O   9,Zr  0,Zr  3)   -128.4554         0.010000   
    629. D(Zr  0,O   9,Zr  3,Zr  4)   -144.1513         0.010000   
    630. D(Zr  0,O   9,Zr  4,Zr  1)     73.3558         0.010000   
    631. D(Zr  0,O   9,Zr  3,O   6)    -32.2971         0.010000   
    632. D(Zr  3,O   9,Zr  0,O   6)     32.0356         0.010000   
    633. D(Zr  3,O   9,Zr  0,Zr  5)     52.2452         0.010000   
    634. D(Zr  1,O  10,Zr  4,O   7)    -31.8847         0.010000   
    635. D(Zr  1,O  10,Zr  4,Zr  3)   -144.1090         0.010000   
    636. D(Zr  4,O  10,Zr  3,Zr  0)    -53.6500         0.010000   
    637. D(Zr  1,O  10,Zr  3,Zr  4)    127.2197         0.010000   
    638. D(Zr  1,O  10,Zr  3,Zr  0)     73.5697         0.010000   
    639. D(Zr  3,O  10,Zr  1,Zr  2)    -76.3648         0.010000   
    640. D(Zr  4,O  10,Zr  1,Zr  2)     52.3039         0.010000   
    641. D(Zr  3,O  10,Zr  4,Zr  1)    144.1090         0.010000   
    642. D(Zr  3,O  10,Zr  1,Zr  4)   -128.6687         0.010000   
    643. D(Zr  2,O  11,Zr  5,Zr  0)   -142.2635         0.010000   
    644. D(Zr  0,O  11,Zr  5,Zr  2)    142.2635         0.010000   
    645. D(Zr  5,O  11,Zr  2,Zr  1)     47.8564         0.010000   
    646. D(Zr  0,O  11,Zr  2,Zr  5)   -131.9630         0.010000   
    647. D(Zr  0,O  11,Zr  2,Zr  1)    -84.1065         0.010000   
    648. D(Zr  5,O  11,Zr  0,Zr  3)    -47.6381         0.010000   
    649. D(Zr  0,O  11,Zr  5,O   6)     29.2710         0.010000   
    650. D(Zr  2,O  11,Zr  0,Zr  5)    132.4914         0.010000   
    651. D(Zr  2,O  11,Zr  0,Zr  3)     84.8533         0.010000   
    652. D(C  36,O  12,Zr  0,Zr  5)     34.7084         0.010000   
    653. D(C  36,O  12,Zr  0,Zr  3)    101.2745         0.010000   
    654. D(C  37,O  13,Zr  0,Zr  5)    -49.9984         0.010000   
    655. D(C  37,O  13,Zr  0,Zr  3)      0.2327         0.010000   
    656. D(C  38,O  14,Zr  0,Zr  5)     76.3524         0.010000   
    657. D(C  38,O  14,Zr  0,Zr  3)     29.8237         0.010000   
    658. D(C  39,O  15,Zr  0,Zr  5)     54.6145         0.010000   
    659. D(C  39,O  15,Zr  0,Zr  3)    -30.2566         0.010000   
    660. D(C  40,O  16,Zr  1,Zr  4)     26.0289         0.010000   
    661. D(C  40,O  16,Zr  1,Zr  2)     74.5985         0.010000   
    662. D(C  41,O  17,Zr  1,Zr  4)    -32.2044         0.010000   
    663. D(C  41,O  17,Zr  1,Zr  2)     51.9367         0.010000   
    664. D(C  42,O  18,Zr  1,Zr  4)     98.4774         0.010000   
    665. D(C  42,O  18,Zr  1,Zr  2)     32.3247         0.010000   
    666. D(C  43,O  19,Zr  1,Zr  4)     -0.7023         0.010000   
    667. D(C  43,O  19,Zr  1,Zr  2)    -50.9124         0.010000   
    668. D(Al 72,O  20,Zr  2,Zr  1)    162.4346         0.010000   
    669. D(C  44,O  20,Zr  2,Zr  5)     26.4127         0.010000   
    670. D(C  44,O  20,Zr  2,Zr  1)    -21.2053         0.010000   
    671. D(Al 68,O  21,Zr  2,Zr  1)   -117.8191         0.010000   
    672. D(C  38,O  21,Zr  2,Zr  5)     -1.3036         0.010000   
    673. D(C  38,O  21,Zr  2,Zr  1)     74.1462         0.010000   
    674. D(Al 60,O  22,Zr  2,Zr  1)   -166.5123         0.010000   
    675. D(C  42,O  22,Zr  2,Zr  5)     84.4891         0.010000   
    676. D(C  42,O  22,Zr  2,Zr  1)     24.4712         0.010000   
    677. D(Al 68,O  23,Zr  2,Zr  1)   -176.5589         0.010000   
    678. D(C  45,O  23,Zr  2,Zr  5)     -5.0656         0.010000   
    679. D(C  45,O  23,Zr  2,Zr  1)     35.1328         0.010000   
    680. D(C  46,O  24,Zr  3,Zr  4)    -29.7501         0.010000   
    681. D(C  46,O  24,Zr  3,Zr  0)    -65.8194         0.010000   
    682. D(C  37,O  25,Zr  3,Zr  4)    -66.8170         0.010000   
    683. D(C  37,O  25,Zr  3,Zr  0)     -0.8161         0.010000   
    684. D(C  41,O  26,Zr  3,Zr  4)     29.9509         0.010000   
    685. D(C  41,O  26,Zr  3,Zr  0)    -55.7713         0.010000   
    686. D(C  47,O  27,Zr  3,Zr  4)    -30.9385         0.010000   
    687. D(C  47,O  27,Zr  3,Zr  0)     16.7925         0.010000   
    688. D(C  47,O  28,Zr  4,Zr  3)    -30.9739         0.010000   
    689. D(C  47,O  28,Zr  4,Zr  1)     16.5013         0.010000   
    690. D(C  39,O  29,Zr  4,Zr  3)     31.9420         0.010000   
    691. D(C  39,O  29,Zr  4,Zr  1)    -53.9591         0.010000   
    692. D(C  43,O  30,Zr  4,Zr  3)    -68.0931         0.010000   
    693. D(C  43,O  30,Zr  4,Zr  1)     -2.0791         0.010000   
    694. D(C  45,O  31,Zr  4,Zr  3)    -31.3619         0.010000   
    695. D(C  45,O  31,Zr  4,Zr  1)    -67.4510         0.010000   
    696. D(C  46,O  32,Zr  5,Zr  2)     -0.4776         0.010000   
    697. D(C  46,O  32,Zr  5,Zr  0)     37.3273         0.010000   
    698. D(C  36,O  33,Zr  5,Zr  2)     86.0409         0.010000   
    699. D(C  36,O  33,Zr  5,Zr  0)     26.0509         0.010000   
    700. D(C  40,O  34,Zr  5,Zr  2)      1.3958         0.010000   
    701. D(C  40,O  34,Zr  5,Zr  0)     76.9468         0.010000   
    702. D(C  44,O  35,Zr  5,Zr  2)     27.5559         0.010000   
    703. D(C  44,O  35,Zr  5,Zr  0)    -19.2629         0.010000   
    704. D(O  12,C  36,O  33,Zr  5)    -13.8143         0.046180   
    705. D(H  58,C  36,O  12,Zr  0)    149.9520         0.045744   
    706. D(O  33,C  36,O  12,Zr  0)    -30.9218         0.045744   
    707. D(H  58,C  36,O  33,Zr  5)    165.3126         0.046180   
    708. D(H  51,C  37,O  25,Zr  3)   -178.8135         0.046910   
    709. D(O  13,C  37,O  25,Zr  3)      1.3575         0.046910   
    710. D(H  51,C  37,O  13,Zr  0)    179.2323         0.046880   
    711. D(O  25,C  37,O  13,Zr  0)     -0.9387         0.046880   
    712. D(H  50,C  38,O  21,Zr  2)    149.7017         0.077847   
    713. D(O  14,C  38,O  21,Al 68)    161.0800         0.077847   
    714. D(O  14,C  38,O  21,Zr  2)    -31.4685         0.077847   
    715. D(H  50,C  38,O  14,Zr  0)    160.9618         0.060450   
    716. D(O  21,C  38,O  14,Zr  0)    -17.8696         0.060450   
    717. D(H  54,C  39,O  29,Zr  4)   -177.4317         0.048701   
    718. D(O  15,C  39,O  29,Zr  4)      3.2570         0.048701   
    719. D(H  54,C  39,O  15,Zr  0)    175.9113         0.048255   
    720. D(O  29,C  39,O  15,Zr  0)     -4.7774         0.048255   
    721. D(H  56,C  40,O  34,Zr  5)    145.3482         0.045729   
    722. D(O  16,C  40,O  34,Zr  5)    -35.4224         0.045729   
    723. D(H  56,C  40,O  16,Zr  1)    164.4490         0.046565   
    724. D(O  34,C  40,O  16,Zr  1)    -14.7812         0.046565   
    725. D(H  48,C  41,O  26,Zr  3)   -174.7049         0.048666   
    726. D(O  17,C  41,O  26,Zr  3)      5.9047         0.048666   
    727. D(H  48,C  41,O  17,Zr  1)    175.8353         0.048260   
    728. D(O  26,C  41,O  17,Zr  1)     -4.7744         0.048260   
    729. D(H  49,C  42,O  22,Zr  2)    166.0783         0.078873   
    730. D(O  18,C  42,O  22,Al 60)    179.2454         0.078873   
    731. D(O  18,C  42,O  22,Zr  2)    -13.2160         0.078873   
    732. D(H  49,C  42,O  18,Zr  1)    152.0517         0.059730   
    733. D(O  22,C  42,O  18,Zr  1)    -28.6545         0.059730   
    734. D(H  52,C  43,O  30,Zr  4)   -177.7104         0.046974   
    735. D(O  19,C  43,O  30,Zr  4)      2.5264         0.046974   
    736. D(H  52,C  43,O  19,Zr  1)    179.7201         0.046927   
    737. D(O  30,C  43,O  19,Zr  1)     -0.5167         0.046927   
    738. D(H  59,C  44,O  35,Zr  5)    158.8336         0.055376   
    739. D(O  20,C  44,O  35,Zr  5)    -21.1739         0.055376   
    740. D(H  59,C  44,O  20,Zr  2)    161.6182         0.074763   
    741. D(O  35,C  44,O  20,Al 72)    157.5205         0.074763   
    742. D(O  35,C  44,O  20,Zr  2)    -18.3743         0.074763   
    743. D(H  55,C  45,O  31,Zr  4)   -163.7357         0.062063   
    744. D(O  23,C  45,O  31,Zr  4)     17.1326         0.062063   
    745. D(H  55,C  45,O  23,Zr  2)   -173.7803         0.081040   
    746. D(O  31,C  45,O  23,Al 68)   -142.3474         0.081040   
    747. D(O  31,C  45,O  23,Zr  2)      5.3507         0.081040   
    748. D(H  57,C  46,O  32,Zr  5)   -174.9885         0.047663   
    749. D(O  24,C  46,O  32,Zr  5)      3.9593         0.047663   
    750. D(H  57,C  46,O  24,Zr  3)   -165.2811         0.047788   
    751. D(O  32,C  46,O  24,Zr  3)     15.7714         0.047788   
    752. D(H  53,C  47,O  28,Zr  4)   -157.3419         0.045761   
    753. D(O  27,C  47,O  28,Zr  4)     22.7276         0.045761   
    754. D(H  53,C  47,O  27,Zr  3)   -157.2588         0.045759   
    755. D(O  28,C  47,O  27,Zr  3)     22.6717         0.045759   
    756. D(H  64,Al 60,O  22,Zr  2)   -103.9821         0.010000   
    757. D(Al 61,Al 60,O  22,C  42)     72.9051         0.010000   
    758. D(Al 61,Al 60,O  22,Zr  2)    -96.4907         0.010000   
    759. D(H  64,Al 60,O  20,Zr  2)     11.1668         0.010000   
    760. D(Al 61,Al 60,O  20,C  44)    154.5264         0.010000   
    761. D(Al 61,Al 60,O  20,Zr  2)     17.9639         0.010000   
    762. D(H  62,Al 61,Al 60,H  65)   -117.4544         0.010000   
    763. D(H  62,Al 61,Al 60,H  64)    158.7973         0.010000   
    764. D(H  62,Al 61,O  23,Zr  2)   -104.1361         0.010000   
    765. D(Al 60,Al 61,O  23,C  45)   -166.1851         0.010000   
    766. D(Al 60,Al 61,O  23,Zr  2)     -6.3299         0.010000   
    767. D(H  62,Al 61,O  22,Zr  2)      6.4281         0.010000   
    768. D(Al 60,Al 61,O  22,C  42)   -126.9250         0.010000   
    769. D(H  63,Al 61,Al 60,H  64)    -86.5863         0.010000   
    770. D(Al 60,Al 61,O  22,Zr  2)    103.5170         0.010000   
    771. D(Al 68,H  62,Al 61,H  63)   -101.0730         0.010000   
    772. D(Al 68,H  62,Al 61,Al 60)     14.1861         0.010000   
    773. D(Al 60,H  64,Al 61,H  63)     96.0257         0.010000   
    774. D(Al 60,H  64,Al 61,H  62)    -21.6892         0.010000   
    775. D(Al 61,H  64,Al 60,H  66)     17.6439         0.010000   
    776. D(Al 61,H  64,Al 60,H  65)    -98.9234         0.010000   
    777. D(Al 72,H  66,Al 60,H  64)    -14.1785         0.010000   
    778. D(Al 72,H  66,Al 60,Al 61)    -12.0457         0.010000   
    779. D(H  70,Al 68,H  62,Al 61)    104.8562         0.010000   
    780. D(H  69,Al 68,H  62,Al 61)    -12.1192         0.010000   
    781. D(H  69,Al 68,Al 61,Al 60)      2.1521         0.010000   
    782. D(H  62,Al 68,Al 61,H  63)     81.3154         0.010000   
    783. D(H  62,Al 68,Al 61,Al 60)   -165.9329         0.010000   
    784. D(H  62,Al 68,O  23,Zr  2)    111.6673         0.010000   
    785. D(Al 61,Al 68,O  23,C  45)    -96.2931         0.010000   
    786. D(Al 61,Al 68,O  23,Zr  2)    104.3236         0.010000   
    787. D(H  62,Al 68,O  21,Zr  2)     -0.4190         0.010000   
    788. D(Al 61,Al 68,O  21,C  38)    164.3395         0.010000   
    789. D(Al 61,Al 68,O  21,Zr  2)     -6.7109         0.010000   
    790. D(Al 72,H  69,Al 68,H  62)     13.5323         0.010000   
    791. D(Al 72,H  69,Al 68,Al 61)     12.1668         0.010000   
    792. D(H  66,Al 72,H  69,Al 68)    -17.7566         0.010000   
    793. D(Al 60,Al 72,H  69,Al 68)    -15.8330         0.010000   
    794. D(H  66,Al 72,Al 68,Al 61)     -5.2662         0.010000   
    795. D(Al 60,Al 72,Al 68,H  62)     -2.3944         0.010000   
    796. D(Al 60,Al 72,Al 68,Al 61)     -3.5772         0.010000   
    797. D(H  69,Al 72,H  66,Al 60)     17.7960         0.010000   
    798. D(Al 68,Al 72,H  66,Al 60)     15.7076         0.010000   
    799. D(Al 68,Al 72,Al 60,Al 61)      3.5833         0.010000   
    800. D(H  66,Al 72,Al 60,H  64)    166.0507         0.010000   
    801. D(H  66,Al 72,Al 60,Al 61)    167.9964         0.010000   
    802. D(H  66,Al 72,O  21,Zr  2)      9.5846         0.010000   
    803. D(Al 60,Al 72,O  21,C  38)    154.7684         0.010000   
    804. D(Al 60,Al 72,O  21,Zr  2)     15.5818         0.010000   
    805. D(H  66,Al 72,O  20,Zr  2)   -102.4357         0.010000   
    806. D(Al 60,Al 72,O  20,C  44)     87.7660         0.010000   
    807. D(Al 60,Al 72,O  20,Zr  2)    -95.6122         0.010000   
    -----------------------------------------------------------------

Number of atoms                         .... 76
Number of degrees of freedom            .... 807


         *************************************************************
         *                GEOMETRY OPTIMIZATION CYCLE   1            *
         *************************************************************
---------------------------------
CARTESIAN COORDINATES (ANGSTROEM)
---------------------------------
  Zr    -0.384740    1.932096    1.533064
  Zr     0.526566   -2.041172   -1.498036
  Zr     1.868174   -1.165965    1.520369
  Zr    -1.728543    1.274050   -1.466570
  Zr     1.678376    1.096389   -1.803349
  Zr    -1.547573   -1.280577    1.650935
  O     -1.399322    0.426843    0.407889
  O      1.544368   -0.488453   -0.455558
  O      0.164229   -1.986788    0.622113
  O      0.084908    1.934676   -0.608253
  O     -0.097640   -0.013397   -2.059107
  O      0.130860   -0.088932    2.045145
  O     -1.956244    1.815663    2.741186
  O     -1.249767    3.614973    0.976884
  O      0.692791    1.860399    3.296151
  O      1.327124    3.006176    1.221759
  O     -0.434347   -3.755076   -0.858539
  O     -1.240996   -2.138096   -2.521138
  O      2.174417   -3.093286   -1.163950
  O      1.278077   -1.930274   -3.321200
  O      1.359340   -2.021963    3.242295
  O      2.433768    0.381304    2.726090
  O      2.555396   -2.987103    1.129044
  O      3.674612   -0.684068    0.682677
  O     -3.542251    1.005968   -0.506484
  O     -2.181154    3.170478   -1.112077
  O     -2.568344   -0.213419   -2.490547
  O     -1.238652    2.017634   -3.245456
  O      1.010559    2.565995   -2.966938
  O      2.529203    2.539540   -0.727856
  O      2.048676    0.255352   -3.558227
  O      3.573071    0.359554   -1.420771
  O     -3.438132   -0.688578    1.120347
  O     -2.123365   -0.424439    3.352502
  O     -2.122398   -2.882091    0.531080
  O     -0.855862   -2.672662    2.893846
  C     -2.323025    0.848354    3.531595
  C     -1.919738    3.929009   -0.090677
  C      1.844026    1.280058    3.460338
  C      2.288941    3.179035    0.371435
  C     -1.523794   -3.814723   -0.152244
  C     -2.269997   -1.421605   -2.846390
  C      2.682045   -3.526717   -0.047113
  C      1.840318   -0.957589   -3.972828
  C      0.277801   -2.684767    3.532615
  C      4.171160   -0.168126   -0.398683
  C     -4.035626    0.165451    0.348624
  C     -0.141564    2.639572   -3.568634
  H     -2.987160   -1.905314   -3.502215
  H      3.287185   -4.433342   -0.104778
  H      2.405163    1.607473    4.332930
  H     -2.304880    4.947910   -0.135450
  H      2.172390   -1.184805   -4.985985
  H     -0.193734    3.295952   -4.439561
  H      2.997742    3.962523    0.620522
  H      5.253794   -0.192920   -0.464288
  H     -2.013633   -4.786151   -0.139964
  H     -5.115865    0.191012    0.444594
  H     -2.867398    1.133959    4.433886
  H      0.327831   -3.325423    4.414628
  Al     3.871330   -4.234837    3.826200
  Al     5.992122   -2.812879    1.715924
  H      5.891168   -1.260049    2.321500
  H      7.466795   -3.383689    1.927423
  H      4.903599   -3.677239    2.639276
  H      4.591522   -5.346189    4.715868
  H      3.624649   -2.854670    4.732368
  H      5.592746   -2.859318    0.171192
  Al     5.624532    0.121982    3.219977
  H      4.587076   -0.436226    4.403118
  H      6.985071    0.632562    3.878511
  H      2.510107   -4.796832    3.209737
  Al     3.663861   -1.349086    5.452465
  H      4.395698   -1.430917    6.867788
  H      2.181671   -0.779552    5.616657
  H      4.948224    1.273594    2.343565

----------------------------
CARTESIAN COORDINATES (A.U.)
----------------------------
  NO LB      ZA    FRAG     MASS         X           Y           Z
   0 Zr   12.0000*   0    91.220   -0.727053    3.651133    2.897072
   1 Zr   12.0000*   0    91.220    0.995065   -3.857255   -2.830878
   2 Zr   12.0000*   0    91.220    3.530338   -2.203355    2.873082
   3 Zr   12.0000*   0    91.220   -3.266472    2.407606   -2.771415
   4 Zr   12.0000*   0    91.220    3.171671    2.071875   -3.407835
   5 Zr   12.0000*   0    91.220   -2.924489   -2.419939    3.119816
   6 O     8.0000    0    15.999   -2.644335    0.806617    0.770799
   7 O     8.0000    0    15.999    2.918432   -0.923043   -0.860880
   8 O     8.0000    0    15.999    0.310347   -3.754485    1.175622
   9 O     8.0000    0    15.999    0.160454    3.656007   -1.149431
  10 O     8.0000    0    15.999   -0.184512   -0.025316   -3.891149
  11 O     8.0000    0    15.999    0.247290   -0.168057    3.864765
  12 O     8.0000    0    15.999   -3.696766    3.431106    5.180091
  13 O     8.0000    0    15.999   -2.361718    6.831310    1.846043
  14 O     8.0000    0    15.999    1.309185    3.515645    6.228823
  15 O     8.0000    0    15.999    2.507900    5.680850    2.308789
  16 O     8.0000    0    15.999   -0.820796   -7.096065   -1.622404
  17 O     8.0000    0    15.999   -2.345142   -4.040415   -4.764260
  18 O     8.0000    0    15.999    4.109053   -5.845463   -2.199547
  19 O     8.0000    0    15.999    2.415216   -3.647689   -6.276159
  20 O     8.0000    0    15.999    2.568780   -3.820957    6.127050
  21 O     8.0000    0    15.999    4.599155    0.720560    5.151564
  22 O     8.0000    0    15.999    4.828999   -5.644806    2.133583
  23 O     8.0000    0    15.999    6.944011   -1.292700    1.290072
  24 O     8.0000    0    15.999   -6.693884    1.901004   -0.957116
  25 O     8.0000    0    15.999   -4.121784    5.991336   -2.101522
  26 O     8.0000    0    15.999   -4.853466   -0.403303   -4.706452
  27 O     8.0000    0    15.999   -2.340714    3.812776   -6.133022
  28 O     8.0000    0    15.999    1.909680    4.849028   -5.606701
  29 O     8.0000    0    15.999    4.779502    4.799035   -1.375449
  30 O     8.0000    0    15.999    3.871436    0.482545   -6.724075
  31 O     8.0000    0    15.999    6.752126    0.679458   -2.684867
  32 O     8.0000    0    15.999   -6.497127   -1.301224    2.117149
  33 O     8.0000    0    15.999   -4.012578   -0.802074    6.335310
  34 O     8.0000    0    15.999   -4.010752   -5.446364    1.003596
  35 O     8.0000    0    15.999   -1.617345   -5.050599    5.468576
  36 C     6.0000    0    12.011   -4.389881    1.603157    6.673747
  37 C     6.0000    0    12.011   -3.627780    7.424750   -0.171354
  38 C     6.0000    0    12.011    3.484705    2.418959    6.539091
  39 C     6.0000    0    12.011    4.325472    6.007506    0.701911
  40 C     6.0000    0    12.011   -2.879553   -7.208782   -0.287699
  41 C     6.0000    0    12.011   -4.289672   -2.686445   -5.378898
  42 C     6.0000    0    12.011    5.068330   -6.664530   -0.089031
  43 C     6.0000    0    12.011    3.477696   -1.809580   -7.507557
  44 C     6.0000    0    12.011    0.524967   -5.073475    6.675675
  45 C     6.0000    0    12.011    7.882350   -0.317711   -0.753401
  46 C     6.0000    0    12.011   -7.626228    0.312656    0.658803
  47 C     6.0000    0    12.011   -0.267517    4.988068   -6.743740
  48 H     1.0000    0     1.008   -5.644914   -3.600521   -6.618228
  49 H     1.0000    0     1.008    6.211880   -8.377802   -0.198002
  50 H     1.0000    0     1.008    4.545100    3.037684    8.188051
[...]

Throughout the following assumptions are being made:
  (1) The electronic state is orbitally nondegenerate
  (2) There are no thermally accessible electronically excited states
  (3) Hindered rotations indicated by low frequency modes are not
      treated as such but are treated as vibrations and this may
      cause some error
  (4) All equations used are the standard statistical mechanics
      equations for an ideal gas
  (5) All vibrations are strictly harmonic

freq.       9.66  E(vib)   ...       0.58 
freq.      14.39  E(vib)   ...       0.57 
freq.      21.08  E(vib)   ...       0.56 
freq.      27.40  E(vib)   ...       0.55 
freq.      34.28  E(vib)   ...       0.54 
freq.      35.91  E(vib)   ...       0.54 
freq.      41.31  E(vib)   ...       0.54 
freq.      44.65  E(vib)   ...       0.53 
freq.      45.83  E(vib)   ...       0.53 
freq.      57.00  E(vib)   ...       0.51 
freq.      61.28  E(vib)   ...       0.51 
freq.      65.45  E(vib)   ...       0.50 
freq.      71.19  E(vib)   ...       0.50 
freq.      78.47  E(vib)   ...       0.49 
freq.      81.20  E(vib)   ...       0.48 
freq.      89.76  E(vib)   ...       0.47 
freq.      95.91  E(vib)   ...       0.47 
freq.      97.51  E(vib)   ...       0.46 
freq.      98.41  E(vib)   ...       0.46 
freq.     102.11  E(vib)   ...       0.46 
freq.     103.64  E(vib)   ...       0.46 
freq.     105.70  E(vib)   ...       0.45 
freq.     108.26  E(vib)   ...       0.45 
freq.     109.14  E(vib)   ...       0.45 
freq.     116.42  E(vib)   ...       0.44 
freq.     117.37  E(vib)   ...       0.44 
freq.     122.03  E(vib)   ...       0.44 
freq.     126.54  E(vib)   ...       0.43 
freq.     130.35  E(vib)   ...       0.43 
freq.     144.78  E(vib)   ...       0.41 
freq.     148.42  E(vib)   ...       0.41 
freq.     148.98  E(vib)   ...       0.40 
freq.     150.26  E(vib)   ...       0.40 
freq.     151.41  E(vib)   ...       0.40 
freq.     152.72  E(vib)   ...       0.40 
freq.     153.37  E(vib)   ...       0.40 
freq.     157.91  E(vib)   ...       0.40 
freq.     160.63  E(vib)   ...       0.39 
freq.     162.56  E(vib)   ...       0.39 
freq.     165.28  E(vib)   ...       0.39 
freq.     166.19  E(vib)   ...       0.39 
freq.     168.88  E(vib)   ...       0.38 
freq.     170.55  E(vib)   ...       0.38 
freq.     172.97  E(vib)   ...       0.38 
freq.     185.05  E(vib)   ...       0.37 
freq.     187.79  E(vib)   ...       0.36 
freq.     189.17  E(vib)   ...       0.36 
freq.     194.17  E(vib)   ...       0.36 
freq.     195.08  E(vib)   ...       0.36 
freq.     198.37  E(vib)   ...       0.35 
freq.     203.55  E(vib)   ...       0.35 
freq.     209.26  E(vib)   ...       0.34 
freq.     210.95  E(vib)   ...       0.34 
freq.     211.60  E(vib)   ...       0.34 
freq.     227.67  E(vib)   ...       0.33 
freq.     229.90  E(vib)   ...       0.32 
freq.     232.80  E(vib)   ...       0.32 
freq.     234.82  E(vib)   ...       0.32 
freq.     242.52  E(vib)   ...       0.31 
freq.     258.28  E(vib)   ...       0.30 
freq.     259.67  E(vib)   ...       0.30 
freq.     262.02  E(vib)   ...       0.29 
freq.     262.86  E(vib)   ...       0.29 
freq.     263.90  E(vib)   ...       0.29 
freq.     265.45  E(vib)   ...       0.29 
freq.     267.35  E(vib)   ...       0.29 
freq.     269.87  E(vib)   ...       0.29 
freq.     271.09  E(vib)   ...       0.29 
freq.     271.88  E(vib)   ...       0.29 
freq.     272.25  E(vib)   ...       0.29 
freq.     275.06  E(vib)   ...       0.28 
freq.     275.99  E(vib)   ...       0.28 
freq.     278.48  E(vib)   ...       0.28 
freq.     278.57  E(vib)   ...       0.28 
freq.     279.30  E(vib)   ...       0.28 
freq.     282.69  E(vib)   ...       0.28 
freq.     286.91  E(vib)   ...       0.27 
freq.     289.41  E(vib)   ...       0.27 
freq.     291.80  E(vib)   ...       0.27 
freq.     293.90  E(vib)   ...       0.27 
freq.     294.20  E(vib)   ...       0.27 
freq.     300.02  E(vib)   ...       0.26 
freq.     301.68  E(vib)   ...       0.26 
freq.     306.86  E(vib)   ...       0.26 
freq.     308.22  E(vib)   ...       0.26 
freq.     309.31  E(vib)   ...       0.26 
freq.     312.95  E(vib)   ...       0.25 
freq.     314.23  E(vib)   ...       0.25 
freq.     317.12  E(vib)   ...       0.25 
freq.     321.86  E(vib)   ...       0.25 
freq.     324.93  E(vib)   ...       0.24 
freq.     328.09  E(vib)   ...       0.24 
freq.     339.07  E(vib)   ...       0.23 
freq.     340.12  E(vib)   ...       0.23 
freq.     350.40  E(vib)   ...       0.23 
freq.     352.10  E(vib)   ...       0.23 
freq.     361.24  E(vib)   ...       0.22 
freq.     370.26  E(vib)   ...       0.21 
freq.     384.75  E(vib)   ...       0.20 
freq.     394.88  E(vib)   ...       0.20 
freq.     400.38  E(vib)   ...       0.19 
freq.     401.66  E(vib)   ...       0.19 
freq.     402.82  E(vib)   ...       0.19 
freq.     412.73  E(vib)   ...       0.19 
freq.     414.96  E(vib)   ...       0.19 
freq.     418.42  E(vib)   ...       0.18 
freq.     419.65  E(vib)   ...       0.18 
freq.     420.56  E(vib)   ...       0.18 
freq.     429.39  E(vib)   ...       0.18 
freq.     431.48  E(vib)   ...       0.18 
freq.     438.25  E(vib)   ...       0.17 
freq.     473.53  E(vib)   ...       0.15 
freq.     475.30  E(vib)   ...       0.15 
freq.     475.60  E(vib)   ...       0.15 
freq.     480.30  E(vib)   ...       0.15 
freq.     482.89  E(vib)   ...       0.15 
freq.     499.05  E(vib)   ...       0.14 
freq.     521.37  E(vib)   ...       0.13 
freq.     537.25  E(vib)   ...       0.12 
freq.     622.71  E(vib)   ...       0.09 
freq.     671.60  E(vib)   ...       0.08 
freq.     675.17  E(vib)   ...       0.08 
freq.     680.46  E(vib)   ...       0.08 
freq.     682.62  E(vib)   ...       0.08 
freq.     684.89  E(vib)   ...       0.07 
freq.     686.17  E(vib)   ...       0.07 
freq.     690.27  E(vib)   ...       0.07 
freq.     693.51  E(vib)   ...       0.07 
freq.     700.64  E(vib)   ...       0.07 
freq.     701.76  E(vib)   ...       0.07 
freq.     707.68  E(vib)   ...       0.07 
freq.     722.74  E(vib)   ...       0.07 
freq.     727.32  E(vib)   ...       0.06 
freq.     730.41  E(vib)   ...       0.06 
freq.     732.85  E(vib)   ...       0.06 
freq.     734.49  E(vib)   ...       0.06 
freq.     734.95  E(vib)   ...       0.06 
freq.     736.17  E(vib)   ...       0.06 
freq.     737.68  E(vib)   ...       0.06 
freq.     738.34  E(vib)   ...       0.06 
freq.     738.45  E(vib)   ...       0.06 
freq.     738.65  E(vib)   ...       0.06 
freq.     739.26  E(vib)   ...       0.06 
freq.     740.51  E(vib)   ...       0.06 
freq.     741.45  E(vib)   ...       0.06 
freq.     742.65  E(vib)   ...       0.06 
freq.     748.81  E(vib)   ...       0.06 
freq.     775.49  E(vib)   ...       0.05 
freq.     993.99  E(vib)   ...       0.02 
freq.     994.96  E(vib)   ...       0.02 
freq.     999.28  E(vib)   ...       0.02 
freq.     999.96  E(vib)   ...       0.02 
freq.    1000.73  E(vib)   ...       0.02 
freq.    1001.52  E(vib)   ...       0.02 
freq.    1001.81  E(vib)   ...       0.02 
freq.    1002.78  E(vib)   ...       0.02 
freq.    1006.00  E(vib)   ...       0.02 
freq.    1006.54  E(vib)   ...       0.02 
freq.    1006.84  E(vib)   ...       0.02 
freq.    1007.45  E(vib)   ...       0.02 
freq.    1344.01  E(vib)   ...       0.01 
freq.    1346.54  E(vib)   ...       0.01 
freq.    1354.18  E(vib)   ...       0.01 
freq.    1354.37  E(vib)   ...       0.01 
freq.    1354.76  E(vib)   ...       0.01 
freq.    1354.96  E(vib)   ...       0.01 
freq.    1355.85  E(vib)   ...       0.01 
freq.    1356.69  E(vib)   ...       0.01 
freq.    1357.05  E(vib)   ...       0.01 
freq.    1357.59  E(vib)   ...       0.01 
freq.    1358.43  E(vib)   ...       0.01 
freq.    1358.85  E(vib)   ...       0.01 
freq.    1362.35  E(vib)   ...       0.01 
freq.    1362.66  E(vib)   ...       0.01 
freq.    1363.97  E(vib)   ...       0.01 
freq.    1365.17  E(vib)   ...       0.01 
freq.    1365.51  E(vib)   ...       0.01 
freq.    1366.25  E(vib)   ...       0.01 
freq.    1366.95  E(vib)   ...       0.01 
freq.    1367.55  E(vib)   ...       0.01 
freq.    1368.43  E(vib)   ...       0.01 
freq.    1371.83  E(vib)   ...       0.01 
freq.    1372.75  E(vib)   ...       0.01 
freq.    1380.65  E(vib)   ...       0.01 
freq.    1539.99  E(vib)   ...       0.00 
freq.    1548.68  E(vib)   ...       0.00 
freq.    1563.75  E(vib)   ...       0.00 
freq.    1565.09  E(vib)   ...       0.00 
freq.    1569.73  E(vib)   ...       0.00 
freq.    1576.93  E(vib)   ...       0.00 
freq.    1578.48  E(vib)   ...       0.00 
freq.    1631.09  E(vib)   ...       0.00 
freq.    1632.91  E(vib)   ...       0.00 
freq.    1637.13  E(vib)   ...       0.00 
freq.    1639.00  E(vib)   ...       0.00 
freq.    1639.38  E(vib)   ...       0.00 
freq.    1828.91  E(vib)   ...       0.00 
freq.    1862.95  E(vib)   ...       0.00 
freq.    1865.53  E(vib)   ...       0.00 
freq.    1868.17  E(vib)   ...       0.00 
freq.    1883.42  E(vib)   ...       0.00 
freq.    1899.25  E(vib)   ...       0.00 
freq.    1899.72  E(vib)   ...       0.00 
freq.    1904.45  E(vib)   ...       0.00 
freq.    1909.63  E(vib)   ...       0.00 
freq.    1958.74  E(vib)   ...       0.00 
freq.    1959.61  E(vib)   ...       0.00 
freq.    1989.46  E(vib)   ...       0.00 
freq.    2885.10  E(vib)   ...       0.00 
freq.    2886.90  E(vib)   ...       0.00 
freq.    2890.72  E(vib)   ...       0.00 
freq.    2892.93  E(vib)   ...       0.00 
freq.    2894.47  E(vib)   ...       0.00 
freq.    2894.87  E(vib)   ...       0.00 
freq.    2905.20  E(vib)   ...       0.00 
freq.    2905.95  E(vib)   ...       0.00 
freq.    2906.60  E(vib)   ...       0.00 
freq.    2907.11  E(vib)   ...       0.00 
freq.    2907.49  E(vib)   ...       0.00 
freq.    2909.05  E(vib)   ...       0.00 

------------
INNER ENERGY
------------

The inner energy is: U= E(el) + E(ZPE) + E(vib) + E(rot) + E(trans)
    E(el)   - is the total energy from the electronic structure calculation
              = E(kin-el) + E(nuc-el) + E(el-el) + E(nuc-nuc)
    E(ZPE)  - the the zero temperature vibrational energy from the frequency calculation
    E(vib)  - the the finite temperature correction to E(ZPE) due to population
              of excited vibrational states
    E(rot)  - is the rotational thermal energy
    E(trans)- is the translational thermal energy

Summary of contributions to the inner energy U:
Electronic energy                ...  -3976.49787022 Eh
Zero point energy                ...      0.38922451 Eh     244.24 kcal/mol
Thermal vibrational correction   ...      0.06640010 Eh      41.67 kcal/mol
Thermal rotational correction    ...      0.00141627 Eh       0.89 kcal/mol
Thermal translational correction ...      0.00141627 Eh       0.89 kcal/mol
-----------------------------------------------------------------------
Total thermal energy                  -3976.03941307 Eh


Summary of corrections to the electronic energy:
(perhaps to be used in another calculation)
Total thermal correction                  0.06923264 Eh      43.44 kcal/mol
Non-thermal (ZPE) correction              0.38922451 Eh     244.24 kcal/mol
-----------------------------------------------------------------------
Total correction                          0.45845715 Eh     287.69 kcal/mol


--------
ENTHALPY
--------

The enthalpy is H = U + kB*T
                kB is Boltzmann's constant
Total thermal energy              ...  -3976.03941307 Eh 
Thermal Enthalpy correction       ...      0.00094421 Eh       0.59 kcal/mol
-----------------------------------------------------------------------
Total Enthalpy                    ...  -3976.03846886 Eh


Note: Only C1 symmetry has been detected, increase convergence thresholds 
      if your molecule has a higher symmetry. Symmetry factor of 1.0 is   
      used for the rotational entropy correction. 
 

Note: Rotational entropy computed according to Herzberg 
Infrared and Raman Spectra, Chapter V,1, Van Nostrand Reinhold, 1945 
Point Group:  C1, Symmetry Number:   1  
Rotational constants in cm-1:     0.001705     0.001167     0.001138 

Vibrational entropy computed according to the QRRHO of S. Grimme
Chem.Eur.J. 2012 18 9955 using a reference frequency of 100.0 cm-1


-------
ENTROPY
-------

The entropy contributions are T*S = T*(S(el)+S(vib)+S(rot)+S(trans))
     S(el)   - electronic entropy
     S(vib)  - vibrational entropy
     S(rot)  - rotational entropy
     S(trans)- translational entropy
The entropies will be listed as multiplied by the temperature to get
units of energy

Electronic entropy                ...      0.00000000 Eh      0.00 kcal/mol
Vibrational entropy               ...      0.12061370 Eh     75.69 kcal/mol
Rotational entropy                ...      0.01890807 Eh     11.86 kcal/mol
Translational entropy             ...      0.02250776 Eh     14.12 kcal/mol
-----------------------------------------------------------------------
Final entropy term                ...      0.16202952 Eh    101.67 kcal/mol

In case the symmetry of your molecule has not been determined correctly
or in case you have a reason to use a different symmetry number we print 
out the resulting rotational entropy values for sn=1,12:

 non-linear molecules -----------------------------------
|  sn= 1 | S(rot)=       0.01890807 Eh     11.86 kcal/mol|
|  sn= 2 | S(rot)=       0.01825361 Eh     11.45 kcal/mol|
|  sn= 3 | S(rot)=       0.01787078 Eh     11.21 kcal/mol|
|  sn= 4 | S(rot)=       0.01759915 Eh     11.04 kcal/mol|
|  sn= 5 | S(rot)=       0.01738846 Eh     10.91 kcal/mol|
|  sn= 6 | S(rot)=       0.01721632 Eh     10.80 kcal/mol|
|  sn= 7 | S(rot)=       0.01707077 Eh     10.71 kcal/mol|
|  sn= 8 | S(rot)=       0.01694470 Eh     10.63 kcal/mol|
|  sn= 9 | S(rot)=       0.01683349 Eh     10.56 kcal/mol|
|  sn=10 | S(rot)=       0.01673401 Eh     10.50 kcal/mol|
|  sn=11 | S(rot)=       0.01664402 Eh     10.44 kcal/mol|
|  sn=12 | S(rot)=       0.01656186 Eh     10.39 kcal/mol|
 linear molecules ---------------------------------------
|  Dinfh | S(rot)=       0.01172595 Eh      7.36 kcal/mol|
|  Cinfv | S(rot)=       0.01238041 Eh      7.77 kcal/mol|
 --------------------------------------------------------


-------------------
GIBBS FREE ENERGY
-------------------

The Gibbs free energy is G = H - T*S

Total enthalpy                    ...  -3976.03846886 Eh 
Total entropy correction          ...     -0.16202952 Eh   -101.67 kcal/mol
-----------------------------------------------------------------------
Final Gibbs free energy         ...  -3976.20049839 Eh

For completeness - the Gibbs free energy minus the electronic energy
G-E(el)                           ...      0.29737184 Eh    186.60 kcal/mol


Maximum memory used throughout the entire PROP-calculation: 151.9 MB

--------------------------------
SUGGESTED CITATIONS FOR THIS RUN
--------------------------------

Below you find a list of papers that are relevant to this ORCA run
We neither can nor want to force you to cite these papers, but we appreciate if you do
You receive ORCA, which is the product of decades of hard work by many enthusiastic individuals, for free
The only thing we kindly ask in return is that you cite our papers,
We deeply appreciate it, if you show your appreciation for ORCA by not just citing the generic ORCA reference.

Please note that relegating all ORCA citations to the supporting information does *not* help us.
SI sections are not indexed - citations you put there will not count into any citation statistics
But we need these citations in order to attract the funding resources that allow us to do what we are doing

Therefore, if you are a happy ORCA user, please consider citing a few of the papers listed below in the main body of your paper

In addition to the list printed below, the program has created the file run.bibtex that contains the list in bibtex format
You can import this file easily into all common literature databanks and citation aid programs


List of essential papers. We consider these as the minimum necessary citations

  1. Neese, F.
     Software update: the ORCA program system, version 6.0
     WIRES Comput. Molec. Sci. 2025 15(1), e70019
     doi.org/10.1002/wcms.7019

List of papers to cite with high priority. The work reported in these papers was absolutely
necessary for this run to complete.
Our perspective: the developers of density functionals and basis sets usually get cited in chemistry papers
Good! But without the algorithms to do something with them, the functionals or basis sets would not do anything.
Hence, in our opinion, the algorithm design and method developments papers are equally worthy of getting cited

  1. Neese, F.
     An improvement of the resolution of the identity approximation for the formation of the Coulomb matrix
     J. Comp. Chem. 2003 24(14), 1740-1747
     doi.org/10.1002/jcc.10318
  2. Grimme, S.; Antony, J.; Ehrlich, S.; Krieg, H.
     A consistent and accurate ab initio parametrization of density functional dispersion correction (DFT-D) for the 94 elements H-Pu
     J. Chem. Phys. 2010 132 , 154104
     doi.org/10.1063/1.3382344
  3. Grimme, S.; Ehrlich, S.; Goerigk, L.
     Effect of the damping function in dispersion corrected density functional theory
     J. Comput. Chem. 2011 32(7), 1456-1465
     doi.org/10.1002/jcc.21759
  4. Bykov, D.; Petrenko, T.; Izsak, R.; Kossmann, S.; Becker, U.; Valeev, E.; Neese, F.
     Efficient implementation of the analytic second derivatives of Hartree-Fock and hybrid DFT energies: a detailed analysis of different approximations
     Molec. Phys. 2015 113 , 1961-1977
     doi.org/10.1080/00268976.2015.1025114
  5. Helmich-Paris, B.
     A trust-region augmented Hessian implementation for restricted and unrestricted Hartree–Fock and Kohn–Sham methods
     J. Chem. Phys. 2021 154 , 164104
     doi.org/10.1063/5.0040798
  6. Neese, F.
     The SHARK Integral Generation and Digestion System
     J. Comp. Chem. 2022 44(3), 381
     doi.org/10.1002/jcc.26942

List of suggested additional citations. These are papers that are important in the 'surrounding' of 
of this run, or papers that preceded the highly important papers. If you like your results we are grateful for a citation.

  1. Neese, F.
     The ORCA program system
     WIRES Comput. Molec. Sci. 2012 2(1), 73-78
     doi.org/10.1002/wcms.81
  2. Neese, F.
     Software update: the ORCA program system, version 4.0
     WIRES Comput. Molec. Sci. 2018 8(1), 1-6
     doi.org/10.1002/wcms.1327
  3. Neese, F.; Wennmohs, F.; Becker, U.; Riplinger, C.
     The ORCA quantum chemistry program package
     J. Chem. Phys. 2020 152(22), 224108
     doi.org/10.1063/5.0004608
  4. Neese, F.
     Software update: The ORCA program system—Version 5.0
     WIRES Comput. Molec. Sci. 2022 12(1), e1606
     doi.org/10.1002/wcms.1606

List of optional additional citations

  1. Neese, F.
     Approximate second-order SCF convergence for spin unrestricted wavefunctions
     Chem. Phys. Lett. 2000 325(1-3), 93-98
     doi.org/10.1016/s0009-2614(00)00662-x

Timings for individual modules:

Sum of individual times          ...     9223.200 sec (= 153.720 min)
Startup calculation              ...      338.715 sec (=   5.645 min)   3.7 %
SCF iterations                   ...     2177.142 sec (=  36.286 min)  23.6 %
Property integrals               ...     2371.257 sec (=  39.521 min)  25.7 %
SCF Response                     ...     1488.722 sec (=  24.812 min)  16.1 %
Property calculations            ...     2001.538 sec (=  33.359 min)  21.7 %
SCF Gradient evaluation          ...      831.996 sec (=  13.867 min)   9.0 %
Geometry relaxation              ...       13.831 sec (=   0.231 min)   0.1 %
                             ****ORCA TERMINATED NORMALLY****
TOTAL RUN TIME: 0 days 2 hours 34 minutes 3 seconds 736 msec
