
                                 *****************
                                 * O   R   C   A *
                                 *****************

                                            #,                                       
                                            ###                                      
                                            ####                                     
                                            #####                                    
                                            ######                                   
                                           ########,                                 
                                     ,,################,,,,,                         
                               ,,#################################,,                 
                          ,,##########################################,,             
                       ,#########################################, ''#####,          
                    ,#############################################,,   '####,        
                  ,##################################################,,,,####,       
                ,###########''''           ''''###############################       
              ,#####''   ,,,,##########,,,,          '''####'''          '####       
            ,##' ,,,,###########################,,,                        '##       
           ' ,,###''''                  '''############,,,                           
         ,,##''                                '''############,,,,        ,,,,,,###''
      ,#''                                            '''#######################'''  
     '                                                          ''''####''''         
             ,#######,   #######,   ,#######,      ##                                
            ,#'     '#,  ##    ##  ,#'     '#,    #''#        ,####,    ,#,          
            ##       ##  ##   ,#'  ##            #'  '#       #'       ,# #          
            ##       ##  #######   ##           ,######,      #####,      #          
            '#,     ,#'  ##    ##  '#,     ,#' ,#      #,     #,   #      #          
             '#######'   ##     ##  '#######'  #'      '#     '####' #    #          



                #########################################################
                #                        -***-                          #
                #          Department of theory and spectroscopy        #
                #                                                       #
                #                      Frank Neese                      #
                #                                                       #
                #     Directorship, Architecture, Infrastructure        #
                #                    SHARK, DRIVERS                     #
                #        Core code/Algorithms in most modules           #
                #                                                       #
                #        Max Planck Institute fuer Kohlenforschung      #
                #                Kaiser Wilhelm Platz 1                 #
                #                 D-45470 Muelheim/Ruhr                 #
                #                      Germany                          #
                #                                                       #
                #                  All rights reserved                  #
                #                        -***-                          #
                #########################################################


                         Program Version 6.1.0  -  RELEASE   -
                                (GIT: $679e74b$)
                          ($2025-06-10 18:02:51 +0200$)


 With contributions from (in alphabetic order):
[Max-Planck-Institut fuer Kohlenforschung]                               
  Daniel Aravena         : Magnetic Suceptibility                        
  Michael Atanasov       : Ab Initio Ligand Field Theory (pilot matlab implementation)
  Alexander A. Auer      : GIAO ZORA, VPT2 properties, NMR spectrum      
  Ute Becker             : All parallelization in ORCA, NUMFREQ, NUMCALC 
  Giovanni Bistoni       : ED, misc. LED, open-shell LED, HFLD           
  Dmytro Bykov           : pre 5.0 version of the SCF Hessian            
  Marcos Casanova-Páez   : Triplet and SCS-CIS(D). UHF-(DLPNO)-IP/EA/STEOM-CCSD. UHF-CVS-IP/STEOM-CCSD   
  Vijay G. Chilkuri      : MRCI spin determinant printing, contributions to CSF-ICE 
  Pauline Colinet        : FMM embedding                                 
  Dipayan Datta          : RHF DLPNO-CCSD density                        
  Achintya Kumar Dutta   : EOM-CC, STEOM-CC                              
  Nicolas Foglia         : Exact transition moments, OPA infrastructure, MCD improvements    
  Dmitry Ganyushin       : Spin-Orbit,Spin-Spin,Magnetic field MRCI      
  Miquel Garcia-Rates    : C-PCM and meta-GGA Hessian, CCSD/C-PCM, Gaussian charge scheme 
  Tiago L. C. Gouveia    : GS-ROHF, GS-ROCIS                             
  Yang Guo               : DLPNO-NEVPT2, F12-NEVPT2, CIM, IAO-localization        
  Andreas Hansen         : Spin unrestricted coupled pair/coupled cluster methods 
  Ingolf Harden          : AUTO-CI MPn and infrastructure                
  Benjamin Helmich-Paris : MC-RPA, TRAH-(SCF,CASSCF), AVAS, COSX integrals, SCF dyn. polar., MC-PDFT, srDFT 
  Lee Huntington         : MR-EOM, pCC                                   
  Robert Izsak           : Overlap fitted RIJCOSX, COSX-SCS-MP3, EOM     
  Riya Kayal             : Wick's Theorem for AUTO-CI, AUTO-CI UHF-CCSDT 
  Emily Kempfer          : AUTO-CI RHF CISDT and CCSDT, approximate NEVPT4
  Christian Kollmar      : KDIIS, OOCD, Brueckner-CCSD(T), CCSD density, CASPT2, CASPT2-K, improved NEVPT2 
  Axel Koslowski         : Symmetry handling                             
  Simone Kossmann        : meta-GGA functionals, TD-DFT gradient, OOMP2, (MP2 Hessian; deprecated post 5.0) 
  Lucas Lang             : DCDCAS, Hyperfine gauge corrections, ICE-SOC+SSC
  Marvin Lechner         : AUTO-CI (C++ implementation), FIC-MRCC        
  Spencer Leger          : CASSCF response                               
  Dagmar Lenk            : GEPOL surface, SMD, ORCA-2-JSON               
  Dimitrios Liakos       : Extrapolation schemes; Compound Job, Property file
  Dimitrios Manganas     : Further ROCIS development; embedding schemes. LFT, Crystal Embedding 
  Dimitrios Pantazis     : SARC Basis sets                               
  Anastasios Papadopoulos: AUTO-CI, single reference methods and gradients 
  Taras Petrenko         : pre 6.0 DFT Hessian and TD-DFT gradient,  ECA, NRVS 
  Petra Pikulova         : Analytic Raman intensities                    
  Peter Pinski           : DLPNO-MP2, DLPNO-MP2 Gradient                 
  Shashank Vittal Rao    : ES-AILFT, MagRelax                            
  Christoph Reimann      : Effective Core Potentials                     
  Marius Retegan         : Local ZFS, SOC                                
  Christoph Riplinger    : Optimizer, TS searches, QM/MM, DLPNO-CCSD(T), (RO)-DLPNO pert. Triples 
  Michael Roemelt        : Original ROCIS implementation, recursive CI coupling coefficients
  Masaaki Saitow         : Open-shell DLPNO-CCSD energy and density      
  Barbara Sandhoefer     : DKH picture change effects                    
  Yorick L. A. Schmerwitz: GMF and freeze-and-release deltaSCF, NEB S-IDPP initial path                    
  Kantharuban Sivalingam : CASSCF convergence/infrastructure, NEVPT2, NEVPT3, NEVPT4(SD), FIC-MRCI and CEPA variants
  Bernardo de Souza      : ESD, SOC TD-DFT                               
  Georgi L. Stoychev     : AutoAux, RI-MP2 NMR, DLPNO-MP2 response, X2C  
  Van Anh Tran           : RI-MP2 g-tensors                              
  Willem Van den Heuvel  : Paramagnetic NMR                              
  Zikuan Wang            : NOTCH, Electric field optimization            
  Frank Wennmohs         : Technical directorship and infrastructure     
  Hang Xu                : AUTO-CI-Response properties                   
                                                                         
[FACCTs GmbH]                                                            
  Markus Bursch, Nicolas Foglia, Miquel Garcia-Rates, Ingolf Harden, Hagen Neugebauer, Anastasios Papadopoulos, 
  Christoph Riplinger, Bernardo de Souza, Georgi L. Stoychev                                                    
                                                                 
  APM, various basis sets, CI-OPT, improved COSX, DLPNO-Multilevel,           
  DOCKER, DRACO, updates on ESD, Fragmentator, GOAT, IRC, LR-CPCM, L-BFGS, MBIS, meta-GGA TD-DFT gradient, ML-optimized integration grids, 
  MM, NACMEs, nearIR, NEB, NEB-TS, NL-DFT gradient (VV10), 2- and 3-layer-ONIOM, interface openCOSMO-RS, QMMM,   
  Crystal-QMMM, RESP, rigid body optimization, SF, symmetry and pop. for TD-DFT, various functionals, SOLVATOR                                   
                                                                         
[Other institutions]                                                     
  V. Asgeirsson          : NEB                                           
  Christoph Bannwarth    : sTDA-DFT, sTD-DFT, PBEh-3c, B97-3c, D3        
  Giovanni Bistoni       : ETS/NOCV, ADLD/ADEX, COVALED                  
  Martin Brehm           : Molecular dynamics                            
  Ronald Cardenas        : ETS/NOCV                                      
  Martina Colucci        : COVALED                                       
  Sebastian Ehlert       : rSCAN, r2SCAN, r2SCAN-3c, D4, dhf basis sets  
  Marvin Friede          : D4 for Fr, Ra, Ac-Lr                          
  Lars Goerigk           : TD-DFT with DH, B97 family of functionals     
  Stefan Grimme          : VdW corrections, initial TS optimization, DFT functionals, gCP, sTDA/sTD-DF 
  Waldemar Hujo          : DFT-NL                                        
  H. Jonsson             : NEB                                           
  Holger Kruse           : gCP                                           
  Marcel Mueller         : wB97X-3c, vDZP basis set                      
  Hagen Neugebauer       : wr2SCAN, Native XTB                           
  Gianluca Regni         : ADLD/ADEX                                     
  Tobias Risthaus        : pre 6.0 range-separated hybrid DFT and stability analysis
  Lukas Wittmann         : regularized MP2, r2SCAN double-hybrids, wr2SCAN        
                                                                         
We gratefully acknowledge several colleagues who have allowed us to      
interface, adapt or use parts of their codes:                            
  Ed Valeev, F. Pavosevic, A. Kumar             : LibInt (2-el integral package), F12 methods 
  Garnet Chan, S. Sharma, J. Yang, R. Olivares  : DMRG                   
  Ulf Ekstrom                                   : XCFun DFT Library      
  Mihaly Kallay                                 : mrcc  (arbitrary order and MRCC methods)
  Frank Weinhold                                : gennbo (NPA and NBO analysis)           
  Simon Mueller                                 : openCOSMO-RS                            
  Christopher J. Cramer and Donald G. Truhlar   : smd solvation model                     
  S Lehtola, MJT Oliveira, MAL Marques          : LibXC Library                           
  Liviu Ungur et al                             : ANISO software                          


 Your calculation uses the libint2 library for the computation of 2-el integrals
 For citations please refer to: http://libint.valeyev.net

 Your ORCA version has been built with support for libXC version: 7.0.0
 For citations please refer to: https://libxc.gitlab.io

 This ORCA versions uses:
   CBLAS   interface :  Fast vector & matrix operations
   LAPACKE interface :  Fast linear algebra routines
   SCALAPACK package :  Parallel linear algebra routines
   Shared memory     :  Shared parallel matrices
   BLAS/LAPACK       :  OpenBLAS 0.3.29  USE64BITINT DYNAMIC_ARCH NO_AFFINITY Prescott SINGLE_THREADED
        Core in use  :  Prescott
   Copyright (c) 2011-2014, The OpenBLAS Project


  ***********************************
  * Starting time: Tue Aug 12 23:06:11 2025
  * Host name:     cuda4
  * Process ID:    141084
  * Working dir.:  /local/scratch/mehlhorn/61831
  ***********************************



***************************************
The coordinates will be read from file: start.xyz
***************************************


Your calculation utilizes the geometrical counterpoise correction gCP
Please cite in your paper:
H.Kruse, S. Grimme J.Chem.Phys., 136, (2012), 154101 
   

Your calculation utilizes the atom-pairwise dispersion correction
with the Becke-Johnson damping scheme (D3BJ)


Warning: RI is on but no J-basis has been assigned. Assigning Def2/J (nothing to worry about!)
================================================================================

cite the ECPs for Zr [Def2-ECP] as follows:
Ce-Yb(ecp-28): M. Dolg, H. Stoll, H.Preuss, J. Chem. Phys., 1989, 90, 1730-1734.
Y-Cd(ecp-28), Hf-Hg(ecp-46): D. Andrae,U. Haeussermann, M. Dolg, H. Stoll, H. Preuss, Theor. Chim. Acta, 1990, 77, 123-141.
In-Sb(ecp-28), Tl-Bi(ecp-46): B. Metz, H. Stoll, M. Dolg, J. Chem. Phys., 2000, 113, 2563-2569.
Te-Xe(ecp-28), Po-Rn(ecp-46): K. A. Peterson, D. Figgen, E. Goll, H. Stoll, M. Dolg, J. Chem. Phys., 2003, 119, 11113-11123.
Rb(ecp-28), Cs(ecp-46): T. Leininger, A. Nicklass, W. Kuechle, H. Stoll, M. Dolg, A. Bergner, Chem. Phys. Lett., 1996, 255, 274-280.
Sr(ecp-28), Ba(ecp-46): M. Kaupp, P. V. Schleyer, H. Stoll and H. Preuss, J. Chem. Phys., 1991, 94, 1360-1366.
La(ecp-46): M. Dolg, H. Stoll, A. Savin, H. Preuss, Theor. Chim. Acta, 1989, 75, 173-194.
Lu(ecp-28): X. Cao, M. Dolg, J. Chem. Phys., 2001, 115, 7348-7355.

ECP parameters for Zr [Def2-ECP] have been obtained from:
TURBOMOLE (7.0.2)

----- Orbital basis set information -----
Your calculation utilizes the basis: def2-SV(P)
   F. Weigend and R. Ahlrichs, Phys. Chem. Chem. Phys. 7, 3297 (2005).

----- AuxJ basis set information -----
Your calculation utilizes the auxiliary basis: def2/J
   H-Rn: F. Weigend, Phys. Chem. Chem. Phys. 8, 1057 (2006).
   Fr-Lr: K. Eichkorn, F. Weigend, O. Treutler, R. Ahlrichs; Theor. Chem. Acc. 97, 119 (1997).

================================================================================
                                        WARNINGS
                       Please study these warnings very carefully!
================================================================================


WARNING: Gradients are needed
  ===> : At least TightSCF should be used for SCF convergence

WARNING: Geometry Optimization
  ===> : Switching off AutoStart
         For restart on a previous wavefunction, please use MOREAD

================================================================================
                                       INPUT FILE
================================================================================
NAME = run.inp
|  1> # Geometry optimization for (AlH3)n cluster
|  2> 
|  3> %pal nprocs 24  end
|  4> 
|  5> %geom MaxIter 500 end
|  6> 
|  7> 
|  8> ! PBE def2-SV(P)
|  9> ! RKS	# closed shell for AlH3
| 10> ! D3    #  dispersion correction
| 11> ! gCP(DFT/SV(P))
| 12> ! Freq 	# Frequency analysis to check the stabiltity of the structures
| 13> 
| 14> ! NoPop # population analysis not necessary	
| 15> 
| 16> ! DEFGRID2
| 17> ! NormalSCF
| 18> ! SloppyOpt
| 19> 
| 20> ! SmallPrint
| 21> 
| 22> 
| 23> * xyzFile 0 1 start.xyz # only maingroup elements H and Al so there should be no net spin
| 24> 
| 25>                          ****END OF INPUT****
================================================================================

                       *****************************
                       * Geometry Optimization Run *
                       *****************************

Geometry optimization settings:
Update method            Update   .... BFGS
Choice of coordinates    CoordSys .... (2022) Redundant Internals
Initial Hessian          InHess   .... Almloef's Model
Max. no of cycles        MaxIter  .... 500

Convergence Tolerances:
Energy Change            TolE     ....  8.0000e-05 Eh
Max. Gradient            TolMAXG  ....  5.0000e-03 Eh/bohr
RMS Gradient             TolRMSG  ....  1.0000e-03 Eh/bohr
Max. Displacement        TolMAXD  ....  3.0000e-02 bohr
RMS Displacement         TolRMSD  ....  2.0000e-02 bohr
Strict Convergence                .... False

------------------------------------------------------------------------------
                        ORCA OPTIMIZATION COORDINATE SETUP
------------------------------------------------------------------------------

The optimization will be done in redundant internal coordinates (2022)
Making redundant internal coordinates   ...  (2022 redundants) done
Evaluating the initial hessian          ...  (Almloef) done
Evaluating the coordinates              ...  done
Calculating the B-matrix                .... done
Calculating the G-matrix                .... done
The number of degrees of freedom        ....  792

    -----------------------------------------------------------------
                    Redundant Internal Coordinates


    -----------------------------------------------------------------
         Definition                    Initial Value    Approx d2E/dq
    -----------------------------------------------------------------
      1. B(Zr  2,Zr  1)                  3.4003         0.039692   
      2. B(Zr  3,Zr  0)                  3.4195         0.036988   
      3. B(Zr  4,Zr  1)                  3.4225         0.036585   
      4. B(Zr  4,Zr  3)                  3.4137         0.037787   
      5. B(Zr  5,Zr  2)                  3.4362         0.034789   
      6. B(Zr  5,Zr  0)                  3.3535         0.047137   
      7. B(O   6,Zr  5)                  2.0772         0.453514   
      8. B(O   6,Zr  0)                  2.1297         0.374006   
      9. B(O   6,Zr  3)                  2.0965         0.422575   
     10. B(O   7,Zr  4)                  2.1493         0.347948   
     11. B(O   7,Zr  1)                  2.1088         0.403873   
     12. B(O   7,Zr  2)                  2.1051         0.409394   
     13. B(O   8,Zr  1)                  2.1813         0.309430   
     14. B(O   8,Zr  2)                  2.1259         0.379214   
     15. B(O   8,Zr  5)                  2.1792         0.311790   
     16. B(O   9,Zr  3)                  2.1028         0.412797   
     17. B(O   9,Zr  4)                  2.1221         0.384596   
     18. B(O   9,Zr  0)                  2.1483         0.349275   
     19. B(O  10,Zr  1)                  2.1344         0.367563   
     20. B(O  10,Zr  3)                  2.1018         0.414276   
     21. B(O  10,Zr  4)                  2.0925         0.428769   
     22. B(O  11,Zr  2)                  2.1282         0.376117   
     23. B(O  11,Zr  0)                  2.1774         0.313865   
     24. B(O  11,Zr  5)                  2.0918         0.429929   
     25. B(O  12,Zr  0)                  1.9719         0.667786   
     26. B(O  13,Zr  0)                  1.9843         0.638034   
     27. B(O  14,Zr  0)                  2.0688         0.467706   
     28. B(O  15,Zr  0)                  2.0526         0.496503   
     29. B(O  16,Zr  1)                  2.0253         0.548866   
     30. B(O  17,Zr  1)                  2.0676         0.469875   
     31. B(O  18,Zr  1)                  1.9772         0.654935   
     32. B(O  19,Zr  1)                  1.9840         0.638728   
     33. B(O  20,Zr  2)                  1.9774         0.654336   
     34. B(O  21,Zr  2)                  2.0304         0.538522   
     35. B(O  22,Zr  2)                  1.9743         0.662000   
     36. B(O  23,Zr  2)                  2.0858         0.439463   
     37. B(O  24,Zr  3)                  2.0491         0.502844   
     38. B(O  25,Zr  3)                  1.9843         0.637969   
     39. B(O  26,Zr  3)                  2.0411         0.517865   
     40. B(O  27,Zr  3)                  1.9834         0.640154   
     41. B(O  28,Zr  4)                  1.9890         0.627156   
     42. B(O  29,Zr  4)                  2.0609         0.481547   
     43. B(O  30,Zr  4)                  1.9911         0.622341   
     44. B(O  31,Zr  4)                  2.0260         0.547416   
     45. B(O  32,Zr  5)                  2.0686         0.468104   
     46. B(O  33,Zr  5)                  1.9845         0.637562   
     47. B(O  34,Zr  5)                  1.9927         0.618702   
     48. B(O  35,Zr  5)                  1.9725         0.666374   
     49. B(C  36,O  33)                  1.2989         0.781952   
     50. B(C  36,O  12)                  1.2989         0.781932   
     51. B(C  37,O  25)                  1.3005         0.777552   
     52. B(C  37,O  13)                  1.3015         0.774465   
     53. B(C  38,O  21)                  1.2965         0.788994   
     54. B(C  38,O  14)                  1.2989         0.781928   
     55. B(C  39,O  29)                  1.3015         0.774494   
     56. B(C  39,O  15)                  1.2992         0.781101   
     57. B(C  40,O  34)                  1.2944         0.795085   
     58. B(C  40,O  16)                  1.2948         0.793953   
     59. B(C  41,O  26)                  1.3015         0.774576   
     60. B(C  41,O  17)                  1.2993         0.780736   
     61. B(C  42,O  22)                  1.3004         0.777716   
     62. B(C  42,O  18)                  1.3002         0.778267   
     63. B(C  43,O  19)                  1.3013         0.775273   
     64. B(C  43,O  30)                  1.3008         0.776670   
     65. B(C  44,O  20)                  1.2993         0.780952   
     66. B(C  44,O  35)                  1.2990         0.781830   
     67. B(C  45,O  23)                  1.2973         0.786771   
     68. B(C  45,O  31)                  1.2958         0.791007   
     69. B(C  46,O  24)                  1.2973         0.786553   
     70. B(C  46,O  32)                  1.2967         0.788323   
     71. B(C  47,O  27)                  1.3016         0.774366   
     72. B(C  47,O  28)                  1.3013         0.775208   
     73. B(H  48,C  41)                  1.0877         0.363160   
     74. B(H  49,C  42)                  1.0911         0.358591   
     75. B(H  50,C  38)                  1.0867         0.364533   
     76. B(H  51,C  37)                  1.0917         0.357876   
     77. B(H  52,C  43)                  1.0917         0.357809   
     78. B(H  53,C  47)                  1.0914         0.358202   
     79. B(H  54,C  39)                  1.0877         0.363182   
     80. B(H  55,C  45)                  1.0852         0.366465   
     81. B(H  56,C  40)                  1.0857         0.365810   
     82. B(H  57,C  46)                  1.0852         0.366566   
     83. B(H  58,C  36)                  1.0902         0.359900   
     84. B(H  59,C  44)                  1.0903         0.359743   
     85. B(Al 60,O  26)                  3.4725         0.010000   
     86. B(Al 60,H  48)                  3.4006         0.010000   
     87. B(Al 60,O  27)                  3.2596         0.010000   
     88. B(Al 61,Al 60)                  3.3153         0.026016   
     89. B(Al 61,O  24)                  3.2876         0.010000   
     90. B(Al 61,O  26)                  3.2450         0.010000   
     91. B(H  62,H  57)                  3.0478         0.010000   
     92. B(H  62,O  24)                  2.8079         0.010000   
     93. B(H  62,Al 61)                  1.6699         0.299766   
     94. B(H  62,C  46)                  3.3937         0.010000   
     95. B(H  63,Al 61)                  1.5954         0.394123   
     96. B(H  64,H  48)                  2.9941         0.010000   
     97. B(H  64,O  26)                  2.8573         0.010000   
     98. B(H  64,Al 61)                  1.6697         0.300040   
     99. B(H  64,Al 60)                  1.6696         0.300140   
    100. B(H  64,C  41)                  3.3768         0.010000   
    101. B(H  65,Al 60)                  1.5955         0.394067   
    102. B(H  66,O  27)                  2.8415         0.010000   
    103. B(H  66,Al 60)                  1.6691         0.300660   
    104. B(H  66,H  53)                  3.3273         0.010000   
    105. B(H  67,C  46)                  3.1665         0.010000   
    106. B(H  67,H  57)                  3.1544         0.010000   
    107. B(H  67,O  24)                  2.8430         0.010000   
    108. B(H  67,O  26)                  2.6955         0.010000   
    109. B(H  67,Al 61)                  1.5968         0.392072   
    110. B(H  67,C  41)                  3.3187         0.010000   
    111. B(H  67,H  48)                  3.2778         0.010000   
    112. B(Al 68,H  62)                  1.6699         0.299781   
    113. B(Al 68,Al 61)                  3.3192         0.025646   
    114. B(Al 68,H  57)                  3.4840         0.010000   
    115. B(Al 68,O  24)                  3.2991         0.010000   
    116. B(H  69,O  25)                  2.9021         0.010000   
    117. B(H  69,Al 68)                  1.6690         0.300773   
    118. B(H  69,H  51)                  3.3056         0.010000   
    119. B(H  70,Al 68)                  1.5955         0.394003   
    120. B(H  71,O  26)                  3.1472         0.010000   
    121. B(H  71,C  41)                  3.0099         0.010000   
    122. B(H  71,O  27)                  2.8021         0.010000   
    123. B(H  71,H  48)                  2.7081         0.010000   
    124. B(H  71,Al 60)                  1.5963         0.392809   
    125. B(H  71,C  47)                  3.3877         0.010000   
    126. B(H  71,H  53)                  3.3347         0.010000   
    127. B(Al 72,H  69)                  1.6693         0.300473   
    128. B(Al 72,Al 68)                  3.3148         0.026064   
    129. B(Al 72,H  66)                  1.6692         0.300552   
    130. B(Al 72,Al 60)                  3.3181         0.025743   
    131. B(Al 72,O  27)                  3.3993         0.010000   
    132. B(Al 72,O  25)                  3.2545         0.010000   
    133. B(H  73,Al 72)                  1.5954         0.394086   
    134. B(H  74,C  47)                  3.0735         0.010000   
    135. B(H  74,O  27)                  2.9891         0.010000   
    136. B(H  74,H  53)                  2.8968         0.010000   
    137. B(H  74,O  25)                  2.7300         0.010000   
    138. B(H  74,Al 72)                  1.5964         0.392669   
    139. B(H  74,C  37)                  3.4876         0.010000   
    140. B(H  74,H  51)                  3.4249         0.010000   
    141. B(H  75,C  46)                  3.0944         0.010000   
    142. B(H  75,C  37)                  2.9966         0.010000   
    143. B(H  75,O  24)                  2.9366         0.010000   
    144. B(H  75,H  51)                  2.8016         0.010000   
    145. B(H  75,H  57)                  2.7698         0.010000   
    146. B(H  75,Al 68)                  1.5963         0.392791   
    147. B(H  75,O  25)                  3.1864         0.010000   
    148. A(Zr  5,Zr  0,O   9)           96.8526         0.338620   
    149. A(Zr  5,Zr  0,O  11)           37.3349         0.332653   
    150. A(Zr  3,Zr  0,O  11)           94.7898         0.319641   
    151. A(O  12,Zr  0,O  14)           81.9452         0.523033   
    152. A(Zr  3,Zr  0,O   9)           35.9999         0.325290   
    153. A(O   6,Zr  0,O  11)           65.2389         0.436802   
    154. A(O  13,Zr  0,O  15)           84.3312         0.524428   
    155. A(Zr  3,Zr  0,Zr  5)           72.1951         0.257116   
    156. A(Zr  5,Zr  0,O  14)          106.4556         0.355673   
    157. A(O   9,Zr  0,O  14)          109.8197         0.463814   
    158. A(Zr  3,Zr  0,O  14)          141.4598         0.341433   
    159. A(O  14,Zr  0,O  15)           73.8293         0.494872   
    160. A(O   9,Zr  0,O  11)          100.2213         0.431458   
    161. A(Zr  3,Zr  0,O  12)          131.5369         0.362623   
    162. A(O   9,Zr  0,O  12)          167.5214         0.495277   
    163. A(O  11,Zr  0,O  12)           79.4332         0.485565   
    164. A(O   9,Zr  0,O  15)           69.4052         0.468917   
    165. A(O   6,Zr  0,O  15)          133.0502         0.474846   
    166. A(O   9,Zr  0,O  13)           89.3039         0.491107   
    167. A(Zr  5,Zr  0,O  15)          164.8545         0.359304   
    168. A(Zr  5,Zr  0,O  12)           75.2030         0.378059   
    169. A(O   6,Zr  0,O  13)           83.8150         0.497382   
    170. A(O  12,Zr  0,O  15)          119.4187         0.528943   
    171. A(Zr  5,Zr  0,O  13)          102.3618         0.375092   
    172. A(Zr  3,Zr  0,O  15)           97.9239         0.344870   
    173. A(Zr  3,Zr  0,O   6)           35.6631         0.328977   
    174. A(O  11,Zr  0,O  13)          139.1001         0.481495   
    175. A(O  13,Zr  0,O  14)          142.7688         0.518579   
    176. A(O   6,Zr  0,O  14)          132.9441         0.469663   
    177. A(O   6,Zr  0,O  12)          103.9571         0.501617   
    178. A(O   6,Zr  0,O   9)           65.1910         0.445319   
    179. A(Zr  3,Zr  0,O  13)           70.1881         0.359814   
    180. A(O  11,Zr  0,O  15)          136.2976         0.459835   
    181. A(Zr  5,Zr  0,O   6)           36.6042         0.342515   
    182. A(O  12,Zr  0,O  13)           83.1645         0.554639   
    183. A(O  11,Zr  0,O  14)           70.3586         0.454854   
    184. A(O   7,Zr  1,O  17)          131.9758         0.476746   
    185. A(O   8,Zr  1,O  16)           72.3144         0.467127   
    186. A(Zr  4,Zr  1,O   7)           36.9161         0.332582   
    187. A(O   7,Zr  1,O  18)           98.8266         0.507012   
    188. A(Zr  4,Zr  1,O  10)           35.5247         0.327443   
    189. A(O   8,Zr  1,O  17)          135.7761         0.454060   
    190. A(O   7,Zr  1,O  19)           82.3064         0.504648   
    191. A(Zr  4,Zr  1,O  19)           71.2441         0.359211   
    192. A(O  10,Zr  1,O  16)          109.5767         0.482153   
    193. A(Zr  4,Zr  1,O   8)           94.9088         0.318331   
    194. A(Zr  4,Zr  1,O  16)          142.7136         0.350095   
    195. A(Zr  2,Zr  1,O  16)          108.2648         0.354956   
    196. A(Zr  2,Zr  1,Zr  4)           72.2167         0.250300   
    197. A(Zr  4,Zr  1,O  18)          129.5259         0.360747   
    198. A(Zr  4,Zr  1,O  17)           95.1251         0.341072   
    199. A(O  17,Zr  1,O  18)          123.9082         0.521581   
    200. A(Zr  2,Zr  1,O   8)           37.2977         0.322601   
    201. A(Zr  2,Zr  1,O  10)           93.6847         0.331883   
    202. A(O   8,Zr  1,O  18)           79.1556         0.482555   
    203. A(O  17,Zr  1,O  19)           82.7465         0.519135   
    204. A(O  10,Zr  1,O  18)          164.5850         0.498193   
    205. A(O  10,Zr  1,O  19)           92.1683         0.495879   
    206. A(O   8,Zr  1,O  19)          140.9714         0.480329   
    207. A(O   7,Zr  1,O  10)           66.0433         0.455782   
    208. A(Zr  2,Zr  1,O  19)          104.3650         0.364242   
    209. A(Zr  2,Zr  1,O  18)           73.8651         0.365807   
    210. A(O  10,Zr  1,O  17)           69.2444         0.468566   
    211. A(O   7,Zr  1,O   8)           67.0755         0.441765   
    212. A(Zr  2,Zr  1,O  17)          161.9726         0.345765   
    213. A(O   8,Zr  1,O  10)           96.5679         0.434323   
    214. A(O  16,Zr  1,O  17)           73.8104         0.504624   
    215. A(O   7,Zr  1,O  16)          137.9897         0.490626   
    216. A(Zr  2,Zr  1,O   7)           36.1661         0.337117   
    217. A(O  16,Zr  1,O  18)           83.4262         0.537066   
    218. A(O  18,Zr  1,O  19)           82.4462         0.552709   
    219. A(O  16,Zr  1,O  19)          138.9905         0.534532   
    220. A(O   7,Zr  2,O   8)           68.1621         0.459519   
    221. A(O  20,Zr  2,O  22)           83.3282         0.556384   
    222. A(Zr  5,Zr  2,O   8)           37.5841         0.326412   
    223. A(Zr  1,Zr  2,O   8)           38.4429         0.333604   
    224. A(O  11,Zr  2,O  21)           71.4356         0.482507   
    225. A(Zr  1,Zr  2,Zr  5)           71.8639         0.248472   
    226. A(O  22,Zr  2,O  23)           81.0138         0.516115   
    227. A(O  11,Zr  2,O  23)          119.6326         0.464813   
    228. A(O  20,Zr  2,O  23)          135.8020         0.514991   
    229. A(O   7,Zr  2,O  20)          150.4769         0.508212   
    230. A(O  11,Zr  2,O  20)           87.4919         0.500244   
    231. A(Zr  1,Zr  2,O  11)           92.4578         0.333151   
    232. A(O   8,Zr  2,O  20)           83.1733         0.501008   
    233. A(Zr  1,Zr  2,O   7)           36.2396         0.337881   
    234. A(O   7,Zr  2,O  23)           70.1010         0.472093   
    235. A(O   8,Zr  2,O  23)          137.1094         0.465511   
    236. A(Zr  5,Zr  2,O  22)          121.6385         0.358321   
    237. A(O   8,Zr  2,O  22)           88.7326         0.502096   
    238. A(Zr  5,Zr  2,O  23)          149.0916         0.334469   
    239. A(O  20,Zr  2,O  21)           83.8118         0.535048   
    240. A(O  21,Zr  2,O  23)           74.4305         0.496617   
    241. A(O  11,Zr  2,O  22)          156.7146         0.501330   
    242. A(O  21,Zr  2,O  22)          128.3272         0.536225   
    243. A(O   7,Zr  2,O  11)           88.6068         0.458832   
    244. A(Zr  1,Zr  2,O  22)           72.3259         0.366480   
    245. A(O   7,Zr  2,O  21)          122.3628         0.490131   
    246. A(Zr  1,Zr  2,O  23)           99.2714         0.341906   
    247. A(O   7,Zr  2,O  22)           88.9341         0.509318   
    248. A(Zr  5,Zr  2,O   7)           88.2859         0.330563   
    249. A(O   8,Zr  2,O  11)           68.9029         0.452477   
    250. A(Zr  5,Zr  2,O  20)           72.0546         0.357612   
    251. A(Zr  1,Zr  2,O  21)          155.3895         0.353813   
    252. A(Zr  5,Zr  2,O  11)           35.1331         0.325972   
    253. A(O   8,Zr  2,O  21)          138.6229         0.483238   
    254. A(Zr  1,Zr  2,O  20)          114.7547         0.365750   
    255. A(Zr  5,Zr  2,O  21)          101.0760         0.346027   
    256. A(O   9,Zr  3,O  10)           68.1769         0.467719   
    257. A(Zr  4,Zr  3,O  10)           35.4323         0.335786   
    258. A(Zr  0,Zr  3,O  24)           93.1830         0.345606   
    259. A(O  25,Zr  3,O  27)           83.0652         0.550196   
    260. A(Zr  4,Zr  3,O  26)          105.5573         0.348573   
    261. A(O   6,Zr  3,O  27)          155.3760         0.509140   
    262. A(O  10,Zr  3,O  26)           72.4220         0.487663   
    263. A(Zr  4,Zr  3,O  25)          108.7286         0.361120   
    264. A(Zr  4,Zr  3,O   6)           84.1237         0.336896   
    265. A(Zr  0,Zr  3,O  25)           73.9264         0.359808   
    266. A(Zr  4,Zr  3,O  27)           72.1792         0.361331   
    267. A(O  24,Zr  3,O  25)           80.2731         0.525670   
    268. A(Zr  4,Zr  3,O   9)           36.2910         0.335586   
    269. A(O  24,Zr  3,O  26)           79.6262         0.505535   
    270. A(O   9,Zr  3,O  26)          140.5932         0.487341   
    271. A(Zr  0,Zr  3,Zr  4)           68.4815         0.248909   
    272. A(Zr  0,Zr  3,O  26)          145.1044         0.347321   
    273. A(O   9,Zr  3,O  25)           80.0434         0.506597   
    274. A(O  10,Zr  3,O  25)          143.8876         0.506935   
    275. A(O   6,Zr  3,O  25)           98.7563         0.508815   
    276. A(O   6,Zr  3,O  10)           84.3533         0.469731   
    277. A(O  10,Zr  3,O  24)          133.5097         0.485016   
    278. A(O   9,Zr  3,O  24)          129.8217         0.484696   
    279. A(Zr  0,Zr  3,O   9)           36.9056         0.334397   
    280. A(O  25,Zr  3,O  26)          136.5953         0.528589   
    281. A(O   6,Zr  3,O  24)           71.5440         0.486798   
    282. A(Zr  0,Zr  3,O   6)           36.3176         0.335701   
    283. A(O  24,Zr  3,O  27)          132.5195         0.526008   
    284. A(O  10,Zr  3,O  27)           80.2120         0.507259   
    285. A(O  26,Zr  3,O  27)           82.8812         0.528929   
    286. A(O   6,Zr  3,O  26)          110.5752         0.489457   
    287. A(Zr  0,Zr  3,O  10)           89.4348         0.334596   
    288. A(O   9,Zr  3,O  27)           89.8039         0.506920   
    289. A(Zr  0,Zr  3,O  27)          124.0216         0.360018   
    290. A(O   6,Zr  3,O   9)           66.5714         0.469423   
    291. A(Zr  4,Zr  3,O  24)          155.2280         0.346849   
    292. A(O   9,Zr  4,O  10)           67.9906         0.464613   
    293. A(O   7,Zr  4,O  10)           66.0545         0.456196   
    294. A(Zr  3,Zr  4,O  10)           35.6148         0.337714   
    295. A(O  30,Zr  4,O  31)           81.7344         0.531653   
    296. A(Zr  1,Zr  4,Zr  3)           69.1376         0.248514   
    297. A(O  28,Zr  4,O  30)           82.1352         0.545490   
    298. A(O   9,Zr  4,O  31)          135.3544         0.485967   
    299. A(Zr  3,Zr  4,O  31)          158.1634         0.351854   
    300. A(O  10,Zr  4,O  30)           80.9270         0.507843   
    301. A(O   9,Zr  4,O  30)          142.1057         0.497661   
    302. A(Zr  1,Zr  4,O  29)          145.1757         0.342475   
    303. A(O  10,Zr  4,O  28)           92.3160         0.508574   
    304. A(O   7,Zr  4,O  31)           71.5791         0.477070   
    305. A(O   9,Zr  4,O  28)           78.1616         0.498375   
    306. A(Zr  3,Zr  4,O  28)           72.7970         0.360070   
    307. A(Zr  3,Zr  4,O   9)           35.9100         0.331668   
    308. A(O   7,Zr  4,O  29)          111.5278         0.465971   
    309. A(O   9,Zr  4,O  29)           71.2939         0.474613   
    310. A(Zr  1,Zr  4,O  31)           95.6965         0.349939   
    311. A(O  10,Zr  4,O  31)          132.0173         0.495857   
    312. A(Zr  1,Zr  4,O   9)           92.6419         0.329901   
    313. A(O  28,Zr  4,O  31)          128.8365         0.532426   
    314. A(O  28,Zr  4,O  29)           83.2559         0.519744   
    315. A(Zr  1,Zr  4,O   7)           36.1078         0.324502   
    316. A(Zr  1,Zr  4,O  30)           72.5477         0.357626   
    317. A(Zr  3,Zr  4,O  30)          107.1097         0.359597   
    318. A(Zr  3,Zr  4,O  29)          105.8789         0.344336   
    319. A(O  10,Zr  4,O  29)          139.0745         0.484220   
    320. A(O  29,Zr  4,O  30)          137.8206         0.518993   
    321. A(O  29,Zr  4,O  31)           77.2461         0.506688   
    322. A(O   7,Zr  4,O  30)           95.4939         0.488503   
    323. A(Zr  1,Zr  4,O  28)          124.5375         0.358095   
    324. A(O   7,Zr  4,O  28)          158.2967         0.489200   
    325. A(Zr  3,Zr  4,O   7)           87.4948         0.326230   
    326. A(Zr  1,Zr  4,O  10)           36.3486         0.335902   
    327. A(O   7,Zr  4,O   9)           91.3024         0.447270   
    328. A(O  11,Zr  5,O  35)           95.5612         0.514634   
    329. A(O  34,Zr  5,O  35)           84.6879         0.551186   
    330. A(O  33,Zr  5,O  35)           82.8084         0.554338   
    331. A(O  32,Zr  5,O  35)          129.5184         0.522909   
    332. A(O   8,Zr  5,O  35)           78.2618         0.484780   
    333. A(O   6,Zr  5,O  35)          159.5589         0.519810   
    334. A(Zr  2,Zr  5,O  35)           74.5225         0.358723   
    335. A(Zr  0,Zr  5,O  35)          131.8574         0.377920   
    336. A(O  33,Zr  5,O  34)          137.1758         0.546585   
    337. A(O  32,Zr  5,O  34)           76.4348         0.515680   
    338. A(O  11,Zr  5,O  34)          142.6032         0.507543   
    339. A(O  32,Zr  5,O  33)           80.5455         0.518590   
    340. A(O   6,Zr  5,O  34)          101.3967         0.512633   
    341. A(Zr  2,Zr  5,O  34)          110.6291         0.354229   
    342. A(Zr  0,Zr  5,O  34)          138.9103         0.373107   
    343. A(O  11,Zr  5,O  33)           79.4700         0.510397   
    344. A(O   8,Zr  5,O  33)          140.6620         0.480841   
    345. A(O   6,Zr  5,O  33)          104.4580         0.515522   
    346. A(Zr  0,Zr  5,O  33)           74.8259         0.375044   
    347. A(O  11,Zr  5,O  32)          127.1195         0.481936   
    348. A(O   8,Zr  5,O  32)          137.2807         0.454376   
    349. A(O   6,Zr  5,O  32)           70.8853         0.486714   
    350. A(Zr  2,Zr  5,O  32)          155.9519         0.338002   
    351. A(Zr  2,Zr  5,O   6)           85.0974         0.336224   
    352. A(Zr  0,Zr  5,O   6)           37.6869         0.353820   
    353. A(Zr  0,Zr  5,Zr  2)           71.1776         0.254799   
    354. A(O   8,Zr  5,O  34)           74.9699         0.478187   
    355. A(Zr  0,Zr  5,O  32)           88.3563         0.355725   
    356. A(O   8,Zr  5,O  11)           68.5571         0.447408   
    357. A(O   6,Zr  5,O  11)           67.6961         0.479130   
    358. A(Zr  2,Zr  5,O  11)           35.8377         0.333253   
    359. A(Zr  0,Zr  5,O  11)           39.1466         0.350638   
    360. A(O   6,Zr  5,O   8)           84.4584         0.451766   
    361. A(Zr  2,Zr  5,O  33)          105.1088         0.356038   
    362. A(Zr  2,Zr  5,O   8)           36.5133         0.316122   
    363. A(Zr  0,Zr  5,O   8)           92.8212         0.332287   
    364. A(Zr  3,O   6,Zr  5)          145.9470         0.477609   
    365. A(Zr  0,O   6,Zr  5)          105.7090         0.467017   
    366. A(Zr  0,O   6,Zr  3)          108.0194         0.461020   
    367. A(Zr  1,O   7,Zr  4)          106.9761         0.451258   
    368. A(Zr  1,O   7,Zr  2)          107.5943         0.464840   
    369. A(Zr  2,O   7,Zr  4)          141.8454         0.452373   
    370. A(Zr  1,O   8,Zr  2)          104.2594         0.436770   
    371. A(Zr  2,O   8,Zr  5)          105.9026         0.437369   
    372. A(Zr  1,O   8,Zr  5)          133.8691         0.421697   
    373. A(Zr  0,O   9,Zr  4)          128.4063         0.447578   
    374. A(Zr  0,O   9,Zr  3)          107.0945         0.453368   
    375. A(Zr  3,O   9,Zr  4)          107.7989         0.461400   
    376. A(Zr  3,O  10,Zr  4)          108.9529         0.470987   
    377. A(Zr  1,O  10,Zr  4)          108.1267         0.460782   
    378. A(Zr  1,O  10,Zr  3)          132.5862         0.457900   
    379. A(Zr  2,O  11,Zr  5)          109.0292         0.462951   
    380. A(Zr  0,O  11,Zr  5)          103.5185         0.447946   
    381. A(Zr  0,O  11,Zr  2)          133.2280         0.437245   
    382. A(Zr  0,O  12,C  36)          131.2176         0.510150   
    383. A(Zr  0,O  13,C  37)          129.7949         0.504924   
    384. A(Zr  0,O  14,C  38)          140.8775         0.477535   
    385. A(Zr  0,O  15,C  39)          126.4456         0.482731   
    386. A(Zr  1,O  16,C  40)          140.5400         0.493259   
    387. A(Zr  1,O  17,C  41)          126.8353         0.477808   
    388. A(Zr  1,O  18,C  42)          128.3741         0.507856   
    389. A(Zr  1,O  19,C  43)          128.4433         0.505124   
    390. A(Zr  2,O  20,C  44)          133.2268         0.508096   
    391. A(Zr  2,O  21,C  38)          129.3841         0.490951   
    392. A(Zr  2,O  22,C  42)          130.8885         0.508807   
    393. A(Zr  2,O  23,C  45)          141.2307         0.472632   
    394. A(Al 61,O  24,Al 68)           60.5190         0.131507   
    395. A(C  46,O  24,Al 68)          104.5425         0.215159   
    396. A(Zr  3,O  24,Al 68)          110.1028         0.220991   
    397. A(C  46,O  24,Al 61)          108.4848         0.216365   
    398. A(Zr  3,O  24,Al 61)          105.5943         0.222253   
    399. A(Zr  3,O  24,C  46)          140.0274         0.484485   
    400. A(Zr  3,O  25,C  37)          126.3737         0.505289   
    401. A(C  37,O  25,Al 72)          123.9454         0.219587   
    402. A(Zr  3,O  25,Al 72)          108.6119         0.233562   
    403. A(Zr  3,O  26,C  41)          136.7184         0.485749   
    404. A(Al 60,O  26,Al 61)           59.0300         0.127129   
    405. A(C  41,O  26,Al 60)           93.2099         0.197842   
    406. A(C  41,O  26,Al 61)          114.8911         0.220504   
    407. A(Zr  3,O  26,Al 61)          107.2732         0.227985   
    408. A(Zr  3,O  26,Al 60)          100.3576         0.204034   
    409. A(Al 60,O  27,Al 72)           59.7314         0.129030   
    410. A(C  47,O  27,Al 72)          103.6090         0.204664   
    411. A(Zr  3,O  27,Al 72)          103.5630         0.217261   
    412. A(C  47,O  27,Al 60)          121.8953         0.218904   
    413. A(Zr  3,O  27,Al 60)          109.0181         0.233051   
    414. A(Zr  3,O  27,C  47)          129.0298         0.505224   
    415. A(Zr  4,O  28,C  47)          127.6154         0.503398   
    416. A(Zr  4,O  29,C  39)          137.7437         0.479263   
    417. A(Zr  4,O  30,C  43)          127.1609         0.502852   
    418. A(Zr  4,O  31,C  45)          134.7130         0.492677   
    419. A(Zr  5,O  32,C  46)          134.6973         0.478327   
    420. A(Zr  5,O  33,C  36)          131.1611         0.505761   
    421. A(Zr  5,O  34,C  40)          139.3458         0.504501   
    422. A(Zr  5,O  35,C  44)          129.6669         0.509936   
    423. A(O  12,C  36,O  33)          127.5503         0.466005   
    424. A(O  33,C  36,H  58)          116.2193         0.364818   
    425. A(O  12,C  36,H  58)          116.2296         0.364817   
    426. A(O  13,C  37,O  25)          126.9383         0.464707   
    427. A(O  25,C  37,H  51)          116.4680         0.364115   
    428. A(O  13,C  37,H  51)          116.5901         0.363867   
    429. A(O  14,C  38,O  21)          129.1215         0.466771   
    430. A(O  21,C  38,H  50)          115.3982         0.366180   
    431. A(O  14,C  38,H  50)          115.4792         0.365616   
    432. A(O  15,C  39,O  29)          129.6187         0.465098   
    433. A(O  29,C  39,H  54)          115.2211         0.364787   
    434. A(O  15,C  39,H  54)          115.1584         0.365317   
    435. A(O  16,C  40,O  34)          128.9594         0.468738   
    436. A(O  34,C  40,H  56)          115.5173         0.366883   
    437. A(O  16,C  40,H  56)          115.5189         0.366793   
    438. A(O  17,C  41,O  26)          129.6966         0.465067   
    439. A(O  26,C  41,H  48)          115.2261         0.364790   
    440. A(O  17,C  41,H  48)          115.0667         0.365285   
    441. A(O  18,C  42,O  22)          127.1383         0.465142   
    442. A(O  22,C  42,H  49)          116.4317         0.364252   
    443. A(O  18,C  42,H  49)          116.4300         0.364296   
    444. A(O  30,C  43,H  52)          116.4501         0.364033   
    445. A(O  19,C  43,H  52)          116.4915         0.363921   
    446. A(O  19,C  43,O  30)          127.0576         0.464699   
    447. A(O  35,C  44,H  59)          116.2226         0.364781   
    448. A(O  20,C  44,H  59)          116.2148         0.364711   
    449. A(O  20,C  44,O  35)          127.5626         0.465885   
    450. A(O  31,C  45,H  55)          115.1699         0.366672   
    451. A(O  23,C  45,H  55)          115.1471         0.366335   
    452. A(O  23,C  45,O  31)          129.6822         0.467517   
    453. A(O  32,C  46,H  57)          114.9488         0.366476   
    454. A(O  24,C  46,H  57)          115.0010         0.366334   
    455. A(O  24,C  46,O  32)          130.0446         0.467202   
    456. A(O  28,C  47,H  53)          116.2795         0.363984   
    457. A(O  27,C  47,H  53)          116.2833         0.363916   
    458. A(O  27,C  47,O  28)          127.4369         0.464440   
    459. A(O  26,Al 60,O  27)           46.4867         0.126667   
    460. A(O  26,Al 60,Al 72)           93.8401         0.152285   
    461. A(O  26,Al 60,H  71)           64.9094         0.185135   
    462. A(O  26,Al 60,H  66)           95.8731         0.179490   
    463. A(O  26,Al 60,H  64)           54.8149         0.179455   
    464. A(O  26,Al 60,Al 61)           57.0619         0.152436   
    465. A(O  27,Al 60,Al 72)           62.2256         0.164535   
    466. A(O  27,Al 60,H  71)           59.2431         0.203744   
    467. A(O  27,Al 60,H  66)           60.6284         0.197007   
    468. A(O  27,Al 60,H  65)          156.3814         0.203827   
    469. A(O  27,Al 60,H  64)           93.9421         0.196965   
    470. A(O  27,Al 60,Al 61)           92.7384         0.164715   
    471. A(O  26,Al 60,H  65)          152.9950         0.185204   
    472. A(H  71,Al 60,Al 72)          114.6103         0.281784   
    473. A(H  66,Al 60,Al 72)            6.3008         0.270464   
    474. A(H  65,Al 60,Al 72)          111.1603         0.281923   
    475. A(H  64,Al 60,Al 72)           97.7701         0.270393   
    476. A(Al 61,Al 60,Al 72)           91.2202         0.216211   
    477. A(H  66,Al 60,H  71)          110.0792         0.364660   
    478. A(H  65,Al 60,H  71)          110.5952         0.382067   
    479. A(H  64,Al 60,H  71)          112.4413         0.364552   
    480. A(Al 61,Al 60,H  71)          117.4919         0.282244   
    481. A(H  65,Al 60,H  66)          110.0853         0.364859   
    482. A(H  64,Al 60,H  66)          103.8238         0.348373   
    483. A(Al 61,Al 60,H  66)           97.3361         0.270898   
    484. A(H  64,Al 60,H  65)          109.6168         0.364751   
    485. A(Al 61,Al 60,H  65)          110.4470         0.282384   
    486. A(Al 61,Al 60,H  64)            6.8690         0.270826   
    487. A(O  24,Al 61,Al 68)           59.9112         0.162735   
    488. A(O  24,Al 61,H  67)           59.8365         0.201057   
    489. A(O  24,Al 61,H  64)           95.4718         0.194473   
    490. A(O  24,Al 61,H  63)          153.8401         0.201190   
    491. A(O  24,Al 61,H  62)           58.6495         0.194451   
    492. A(O  24,Al 61,Al 60)           93.5109         0.162974   
    493. A(O  26,Al 61,Al 68)           96.4145         0.165396   
    494. A(O  26,Al 61,H  67)           55.8732         0.205102   
    495. A(O  26,Al 61,H  64)           61.6020         0.198280   
    496. A(O  26,Al 61,H  63)          151.1567         0.205239   
    497. A(O  26,Al 61,H  62)           98.3495         0.198257   
    498. A(O  26,Al 61,Al 60)           63.9082         0.165644   
    499. A(O  24,Al 61,O  26)           47.2628         0.133463   
    500. A(H  67,Al 61,Al 68)          115.1998         0.281537   
    501. A(H  64,Al 61,Al 68)           95.3092         0.270225   
    502. A(H  63,Al 61,Al 68)          112.2346         0.281765   
    503. A(H  62,Al 61,Al 68)            6.3742         0.270187   
    504. A(Al 60,Al 61,Al 68)           88.6287         0.216102   
    505. A(H  64,Al 61,H  67)          111.8045         0.364414   
    506. A(H  63,Al 61,H  67)          110.9303         0.381952   
    507. A(H  62,Al 61,H  67)          111.2543         0.364357   
    508. A(Al 60,Al 61,H  67)          116.4218         0.282162   
    509. A(H  63,Al 61,H  64)          110.4372         0.364739   
    510. A(H  62,Al 61,H  64)          101.5851         0.348178   
    511. A(Al 60,Al 61,H  64)            6.8686         0.270813   
    512. A(H  62,Al 61,H  63)          110.4930         0.364682   
    513. A(Al 60,Al 61,H  63)          111.7882         0.282390   
    514. A(Al 60,Al 61,H  62)           94.9345         0.270775   
    515. A(Al 61,H  62,Al 68)          167.2515         0.348128   
    516. A(Al 60,H  64,Al 61)          166.2624         0.348251   
    517. A(Al 60,H  66,Al 72)          167.3987         0.348453   
    518. A(O  24,Al 68,H  75)           62.8366         0.200042   
    519. A(O  24,Al 68,Al 72)           91.3140         0.162304   
    520. A(O  24,Al 68,H  70)          156.4035         0.200119   
    521. A(O  24,Al 68,H  69)           93.0908         0.193532   
    522. A(O  24,Al 68,H  62)           58.3109         0.193454   
    523. A(O  24,Al 68,Al 61)           59.5699         0.162036   
    524. A(Al 72,Al 68,H  75)          115.7799         0.282324   
    525. A(H  70,Al 68,H  75)          110.3387         0.382053   
    526. A(H  69,Al 68,H  75)          110.8789         0.364680   
    527. A(H  62,Al 68,H  75)          111.6721         0.364474   
    528. A(Al 61,Al 68,H  75)          116.0312         0.281617   
    529. A(H  70,Al 68,Al 72)          111.1992         0.282458   
    530. A(H  69,Al 68,Al 72)            6.8043         0.270990   
    531. A(H  62,Al 68,Al 72)           97.4346         0.270854   
    532. A(Al 61,Al 68,Al 72)           91.2110         0.216156   
    533. A(H  69,Al 68,H  70)          110.0996         0.364873   
    534. A(H  62,Al 68,H  70)          109.7318         0.364666   
    535. A(Al 61,Al 68,H  70)          111.0616         0.281752   
    536. A(H  62,Al 68,H  69)          103.9514         0.348324   
    537. A(Al 61,Al 68,H  69)           97.7767         0.270325   
    538. A(Al 61,Al 68,H  62)            6.3743         0.270189   
    539. A(Al 68,H  69,Al 72)          166.3925         0.348460   
    540. A(O  25,Al 72,O  27)           46.5166         0.129203   
    541. A(O  27,Al 72,H  74)           61.5574         0.191158   
    542. A(O  27,Al 72,H  73)          151.6788         0.191242   
    543. A(O  27,Al 72,H  69)           97.2078         0.185154   
    544. A(O  27,Al 72,Al 68)           94.7933         0.156444   
    545. A(O  27,Al 72,H  66)           56.4779         0.185160   
    546. A(O  27,Al 72,Al 60)           58.0430         0.156255   
    547. A(O  25,Al 72,H  74)           56.8176         0.204231   
    548. A(O  25,Al 72,H  73)          155.1047         0.204325   
    549. A(O  25,Al 72,H  69)           62.8627         0.197459   
    550. A(O  25,Al 72,Al 68)           64.4669         0.165075   
    551. A(O  25,Al 72,H  66)           94.8421         0.197465   
    552. A(O  25,Al 72,Al 60)           93.1436         0.164862   
    553. A(H  73,Al 72,H  74)          110.8262         0.382047   
    554. A(H  69,Al 72,H  74)          111.8347         0.364599   
    555. A(Al 68,Al 72,H  74)          116.2668         0.282310   
    556. A(H  66,Al 72,H  74)          111.8157         0.364615   
    557. A(Al 60,Al 72,H  74)          115.8363         0.281768   
    558. A(H  69,Al 72,H  73)          110.4641         0.364824   
    559. A(Al 68,Al 72,H  73)          111.9974         0.282468   
    560. A(H  66,Al 72,H  73)          110.0517         0.364840   
    561. A(Al 60,Al 72,H  73)          111.6335         0.281925   
    562. A(Al 68,Al 72,H  69)            6.8032         0.270949   
    563. A(H  66,Al 72,H  69)          101.5097         0.348417   
    564. A(Al 60,Al 72,H  69)           95.3297         0.270439   
    565. A(H  66,Al 72,Al 68)           94.8625         0.270960   
    566. A(Al 60,Al 72,Al 68)           88.6546         0.216265   
    567. A(Al 60,Al 72,H  66)            6.3005         0.270450   
    568. D(O   7,Zr  2,Zr  1,Zr  4)    -10.2576         0.010000   
    569. D(Zr  5,Zr  2,Zr  1,O   7)    113.1814         0.010000   
    570. D(Zr  5,Zr  2,Zr  1,Zr  4)    102.9239         0.010000   
    571. D(Zr  4,Zr  3,Zr  0,O   6)   -110.5233         0.010000   
    572. D(O   6,Zr  3,Zr  0,Zr  5)      2.9800         0.010000   
    573. D(Zr  4,Zr  3,Zr  0,Zr  5)   -107.5433         0.010000   
    574. D(O   7,Zr  4,Zr  3,Zr  0)     71.9376         0.010000   
    575. D(Zr  1,Zr  4,Zr  3,Zr  0)    103.8620         0.010000   
    576. D(Zr  1,Zr  4,Zr  3,O   6)     69.9721         0.010000   
    577. D(Zr  3,Zr  4,Zr  1,O   7)   -116.3024         0.010000   
    578. D(Zr  3,Zr  4,Zr  1,Zr  2)   -106.2263         0.010000   
    579. D(O   7,Zr  4,Zr  1,Zr  2)     10.0761         0.010000   
    580. D(Zr  2,Zr  5,Zr  0,O   6)    107.0702         0.010000   
    581. D(Zr  2,Zr  5,Zr  0,Zr  3)    104.1566         0.010000   
    582. D(O   6,Zr  5,Zr  0,Zr  3)     -2.9136         0.010000   
    583. D(Zr  0,Zr  5,Zr  2,O   7)    -68.0566         0.010000   
    584. D(O   6,Zr  5,Zr  2,Zr  1)    -65.0778         0.010000   
    585. D(Zr  0,Zr  5,Zr  2,Zr  1)   -100.9910         0.010000   
    586. D(Zr  3,O   6,Zr  5,Zr  0)    171.8961         0.010000   
    587. D(Zr  0,O   6,Zr  5,Zr  2)    -65.2505         0.010000   
    588. D(Zr  0,O   6,Zr  3,Zr  4)     61.1464         0.010000   
    589. D(Zr  3,O   6,Zr  0,O   9)    -27.8039         0.010000   
    590. D(Zr  0,O   6,Zr  5,O   8)   -101.9160         0.010000   
    591. D(Zr  5,O   6,Zr  3,Zr  0)   -171.7957         0.010000   
    592. D(Zr  3,O   6,Zr  0,Zr  5)   -175.2385         0.010000   
    593. D(Zr  0,O   6,Zr  3,O   9)     28.1267         0.010000   
    594. D(Zr  5,O   6,Zr  0,Zr  3)    175.2385         0.010000   
    595. D(Zr  1,O   7,Zr  2,Zr  5)    -60.9250         0.010000   
    596. D(Zr  4,O   7,Zr  1,Zr  2)   -163.6022         0.010000   
    597. D(Zr  2,O   7,Zr  1,O   8)     27.7433         0.010000   
    598. D(Zr  2,O   7,Zr  1,Zr  4)    163.6022         0.010000   
    599. D(Zr  1,O   7,Zr  4,O   9)     92.6978         0.010000   
    600. D(Zr  1,O   7,Zr  4,Zr  3)     56.9815         0.010000   
    601. D(Zr  4,O   7,Zr  2,Zr  1)    154.0841         0.010000   
    602. D(Zr  2,O   7,Zr  4,Zr  1)   -154.1774         0.010000   
    603. D(Zr  1,O   7,Zr  2,O   8)    -28.2889         0.010000   
    604. D(Zr  1,O   8,Zr  5,Zr  2)   -128.9862         0.010000   
    605. D(Zr  2,O   8,Zr  5,Zr  0)     52.4496         0.010000   
    606. D(Zr  1,O   8,Zr  5,Zr  0)    -76.5366         0.010000   
    607. D(Zr  1,O   8,Zr  2,O   7)     26.7831         0.010000   
    608. D(Zr  1,O   8,Zr  2,Zr  5)    144.6769         0.010000   
    609. D(Zr  5,O   8,Zr  2,Zr  1)   -144.6769         0.010000   
    610. D(Zr  2,O   8,Zr  1,O   7)    -26.9589         0.010000   
    611. D(Zr  2,O   8,Zr  1,Zr  4)    -51.7837         0.010000   
    612. D(Zr  5,O   8,Zr  1,Zr  2)    129.5281         0.010000   
    613. D(Zr  0,O   9,Zr  4,Zr  3)    130.4275         0.010000   
    614. D(Zr  0,O   9,Zr  4,Zr  1)     82.6147         0.010000   
    615. D(Zr  3,O   9,Zr  4,Zr  1)    -47.8127         0.010000   
    616. D(Zr  4,O   9,Zr  3,Zr  0)    141.3847         0.010000   
    617. D(Zr  0,O   9,Zr  3,O   6)    -27.7074         0.010000   
    618. D(Zr  0,O   9,Zr  3,Zr  4)   -141.3847         0.010000   
    619. D(Zr  4,O   9,Zr  0,Zr  3)   -130.6862         0.010000   
    620. D(Zr  3,O   9,Zr  0,O   6)     27.5592         0.010000   
    621. D(Zr  3,O   9,Zr  0,Zr  5)     46.4197         0.010000   
    622. D(Zr  1,O  10,Zr  4,O   7)    -27.3776         0.010000   
    623. D(Zr  1,O  10,Zr  4,Zr  3)   -149.9137         0.010000   
    624. D(Zr  4,O  10,Zr  3,Zr  0)    -51.7668         0.010000   
    625. D(Zr  1,O  10,Zr  3,Zr  4)    139.6777         0.010000   
    626. D(Zr  1,O  10,Zr  3,Zr  0)     87.9110         0.010000   
    627. D(Zr  4,O  10,Zr  1,Zr  2)     51.9085         0.010000   
    628. D(Zr  3,O  10,Zr  1,Zr  2)    -88.0034         0.010000   
    629. D(Zr  3,O  10,Zr  4,Zr  1)    149.9137         0.010000   
    630. D(Zr  3,O  10,Zr  1,Zr  4)   -139.9119         0.010000   
    631. D(Zr  2,O  11,Zr  5,Zr  0)   -145.9000         0.010000   
    632. D(Zr  0,O  11,Zr  5,Zr  2)    145.9000         0.010000   
    633. D(Zr  5,O  11,Zr  2,Zr  1)     52.9582         0.010000   
    634. D(Zr  0,O  11,Zr  2,Zr  5)   -131.5721         0.010000   
    635. D(Zr  0,O  11,Zr  2,Zr  1)    -78.6138         0.010000   
    636. D(Zr  5,O  11,Zr  0,Zr  3)    -51.9890         0.010000   
    637. D(Zr  0,O  11,Zr  5,O   6)     31.6820         0.010000   
    638. D(Zr  2,O  11,Zr  0,Zr  5)    133.3318         0.010000   
    639. D(Zr  2,O  11,Zr  0,Zr  3)     81.3428         0.010000   
    640. D(C  36,O  12,Zr  0,Zr  5)     -1.1854         0.010000   
    641. D(C  36,O  12,Zr  0,Zr  3)     47.7793         0.010000   
    642. D(C  37,O  13,Zr  0,Zr  5)    -98.4585         0.010000   
    643. D(C  37,O  13,Zr  0,Zr  3)    -32.7692         0.010000   
    644. D(C  38,O  14,Zr  0,Zr  5)      2.5188         0.010000   
    645. D(C  38,O  14,Zr  0,Zr  3)    -79.3797         0.010000   
    646. D(C  39,O  15,Zr  0,Zr  5)    -25.8618         0.010000   
    647. D(C  39,O  15,Zr  0,Zr  3)    -73.9946         0.010000   
    648. D(C  40,O  16,Zr  1,Zr  4)    -47.9089         0.010000   
    649. D(C  40,O  16,Zr  1,Zr  2)     36.4984         0.010000   
    650. D(C  41,O  17,Zr  1,Zr  4)    -76.5128         0.010000   
    651. D(C  41,O  17,Zr  1,Zr  2)    -32.1785         0.010000   
    652. D(C  42,O  18,Zr  1,Zr  4)     26.6574         0.010000   
    653. D(C  42,O  18,Zr  1,Zr  2)    -22.7338         0.010000   
    654. D(C  43,O  19,Zr  1,Zr  4)    -31.6938         0.010000   
    655. D(C  43,O  19,Zr  1,Zr  2)    -96.8642         0.010000   
    656. D(C  44,O  20,Zr  2,Zr  5)     14.0422         0.010000   
    657. D(C  44,O  20,Zr  2,Zr  1)    -45.3180         0.010000   
    658. D(C  38,O  21,Zr  2,Zr  5)    -65.9214         0.010000   
    659. D(C  38,O  21,Zr  2,Zr  1)      4.5498         0.010000   
    660. D(C  42,O  22,Zr  2,Zr  5)     32.0783         0.010000   
    661. D(C  42,O  22,Zr  2,Zr  1)    -22.4673         0.010000   
    662. D(C  45,O  23,Zr  2,Zr  5)    -44.7004         0.010000   
    663. D(C  45,O  23,Zr  2,Zr  1)     25.3411         0.010000   
    664. D(Al 61,O  24,Zr  3,Zr  0)    177.0794         0.010000   
    665. D(C  46,O  24,Zr  3,Zr  4)      5.6520         0.010000   
    666. D(C  46,O  24,Zr  3,Zr  0)    -35.2135         0.010000   
    667. D(Al 72,O  25,Zr  3,Zr  0)    166.3444         0.010000   
    668. D(C  37,O  25,Zr  3,Zr  4)    -85.1287         0.010000   
    669. D(C  37,O  25,Zr  3,Zr  0)    -25.1787         0.010000   
    670. D(Al 61,O  26,Zr  3,Zr  0)    118.8773         0.010000   
    671. D(C  41,O  26,Zr  3,Zr  4)      0.1085         0.010000   
    672. D(C  41,O  26,Zr  3,Zr  0)    -74.4409         0.010000   
    673. D(Al 60,O  27,Zr  3,Zr  0)   -162.5165         0.010000   
    674. D(C  47,O  27,Zr  3,Zr  4)    -26.7825         0.010000   
    675. D(C  47,O  27,Zr  3,Zr  0)     20.2278         0.010000   
    676. D(C  47,O  28,Zr  4,Zr  1)     20.7621         0.010000   
    677. D(C  47,O  28,Zr  4,Zr  3)    -27.5056         0.010000   
    678. D(C  39,O  29,Zr  4,Zr  3)      2.6831         0.010000   
    679. D(C  39,O  29,Zr  4,Zr  1)    -73.4631         0.010000   
    680. D(C  43,O  30,Zr  4,Zr  3)    -89.1620         0.010000   
    681. D(C  43,O  30,Zr  4,Zr  1)    -28.3300         0.010000   
    682. D(C  45,O  31,Zr  4,Zr  3)    -17.8926         0.010000   
    683. D(C  45,O  31,Zr  4,Zr  1)    -62.3933         0.010000   
    684. D(C  46,O  32,Zr  5,Zr  2)     37.5491         0.010000   
    685. D(C  46,O  32,Zr  5,Zr  0)     68.6375         0.010000   
    686. D(C  36,O  33,Zr  5,Zr  2)     66.4317         0.010000   
    687. D(C  36,O  33,Zr  5,Zr  0)      1.2336         0.010000   
    688. D(C  40,O  34,Zr  5,Zr  2)    -22.6652         0.010000   
    689. D(C  40,O  34,Zr  5,Zr  0)     62.0082         0.010000   
    690. D(C  44,O  35,Zr  5,Zr  2)     14.8738         0.010000   
    691. D(C  44,O  35,Zr  5,Zr  0)    -30.8947         0.010000   
    692. D(O  12,C  36,O  33,Zr  5)     -2.6620         0.046874   
    693. D(H  58,C  36,O  12,Zr  0)   -177.7046         0.046871   
    694. D(O  33,C  36,O  12,Zr  0)      2.6277         0.046871   
    695. D(H  58,C  36,O  33,Zr  5)    177.6703         0.046874   
    696. D(H  51,C  37,O  25,Zr  3)   -165.4679         0.071701   
    697. D(O  13,C  37,O  25,Al 72)   -179.3709         0.071701   
    698. D(O  13,C  37,O  25,Zr  3)     13.8208         0.071701   
    699. D(H  51,C  37,O  13,Zr  0)   -151.8210         0.055262   
    700. D(O  25,C  37,O  13,Zr  0)     28.8910         0.055262   
    701. D(H  50,C  38,O  21,Zr  2)   -164.3731         0.047822   
    702. D(O  14,C  38,O  21,Zr  2)     15.2371         0.047822   
    703. D(H  50,C  38,O  14,Zr  0)   -152.3107         0.046871   
    704. D(O  21,C  38,O  14,Zr  0)     28.0793         0.046871   
    705. D(H  54,C  39,O  29,Zr  4)   -149.9189         0.045883   
    706. D(O  15,C  39,O  29,Zr  4)     30.6032         0.045883   
    707. D(H  54,C  39,O  15,Zr  0)   -163.0809         0.046760   
    708. D(O  29,C  39,O  15,Zr  0)     16.3972         0.046760   
    709. D(H  56,C  40,O  34,Zr  5)    170.9130         0.048651   
    710. D(O  16,C  40,O  34,Zr  5)     -9.8856         0.048651   
    711. D(H  56,C  40,O  16,Zr  1)    179.8531         0.048496   
    712. D(O  34,C  40,O  16,Zr  1)      0.6517         0.048496   
    713. D(H  48,C  41,O  26,Zr  3)   -148.3055         0.078035   
    714. D(O  17,C  41,O  26,Al 61)   -161.0814         0.078035   
    715. D(O  17,C  41,O  26,Zr  3)     32.9525         0.078035   
    716. D(H  48,C  41,O  17,Zr  1)   -160.6004         0.060602   
    717. D(O  26,C  41,O  17,Zr  1)     18.1432         0.060602   
    718. D(H  49,C  42,O  22,Zr  2)   -164.1736         0.046310   
    719. D(O  18,C  42,O  22,Zr  2)     15.8495         0.046310   
    720. D(H  49,C  42,O  18,Zr  1)   -162.6621         0.046383   
    721. D(O  22,C  42,O  18,Zr  1)     17.3148         0.046383   
    722. D(H  52,C  43,O  30,Zr  4)   -160.9732         0.046171   
    723. D(O  19,C  43,O  30,Zr  4)     18.6840         0.046171   
    724. D(H  52,C  43,O  19,Zr  1)   -154.9919         0.045986   
    725. D(O  30,C  43,O  19,Zr  1)     25.3510         0.045986   
    726. D(H  59,C  44,O  35,Zr  5)    168.0666         0.046858   
    727. D(O  20,C  44,O  35,Zr  5)    -12.0283         0.046858   
    728. D(H  59,C  44,O  20,Zr  2)    170.4653         0.046741   
    729. D(O  35,C  44,O  20,Zr  2)     -9.4399         0.046741   
    730. D(H  55,C  45,O  31,Zr  4)   -167.0322         0.048095   
    731. D(O  23,C  45,O  31,Zr  4)     13.3160         0.048095   
    732. D(H  55,C  45,O  23,Zr  2)   -166.7901         0.047521   
    733. D(O  31,C  45,O  23,Zr  2)     12.8618         0.047521   
    734. D(H  57,C  46,O  32,Zr  5)    162.7517         0.061934   
    735. D(O  24,C  46,O  32,Zr  5)    -18.1644         0.061934   
    736. D(H  57,C  46,O  24,Zr  3)    174.2775         0.080789   
    737. D(O  32,C  46,O  24,Al 61)    142.3351         0.080789   
    738. D(O  32,C  46,O  24,Zr  3)     -4.8059         0.080789   
    739. D(H  53,C  47,O  28,Zr  4)   -158.8194         0.055381   
    740. D(O  27,C  47,O  28,Zr  4)     20.9962         0.055381   
    741. D(H  53,C  47,O  27,Zr  3)   -161.4239         0.074576   
    742. D(O  28,C  47,O  27,Al 60)   -158.1834         0.074576   
    743. D(O  28,C  47,O  27,Zr  3)     18.7605         0.074576   
    744. D(H  64,Al 60,O  27,Zr  3)     -1.7754         0.010000   
    745. D(Al 61,Al 60,O  27,C  47)   -177.5117         0.010000   
    746. D(Al 61,Al 60,O  27,Zr  3)      4.9990         0.010000   
    747. D(H  64,Al 60,O  26,Zr  3)   -111.8635         0.010000   
    748. D(Al 61,Al 60,O  26,C  41)    117.2575         0.010000   
    749. D(Al 61,Al 60,O  26,Zr  3)   -104.0250         0.010000   
    750. D(H  62,Al 61,Al 60,H  65)   -110.0514         0.010000   
    751. D(H  62,Al 61,Al 60,H  64)    165.6363         0.010000   
    752. D(H  62,Al 61,O  26,Zr  3)      0.4609         0.010000   
    753. D(Al 60,Al 61,O  26,C  41)    -78.0841         0.010000   
    754. D(Al 60,Al 61,O  26,Zr  3)     91.8894         0.010000   
    755. D(H  62,Al 61,O  24,Zr  3)   -111.8733         0.010000   
    756. D(Al 60,Al 61,O  24,C  46)   -177.0149         0.010000   
    757. D(H  63,Al 61,Al 60,H  64)    -79.9740         0.010000   
    758. D(Al 60,Al 61,O  24,Zr  3)    -18.2307         0.010000   
    759. D(Al 68,H  62,Al 61,H  63)   -107.0378         0.010000   
    760. D(Al 68,H  62,Al 61,Al 60)      8.4295         0.010000   
    761. D(Al 60,H  64,Al 61,H  63)    102.6298         0.010000   
    762. D(Al 60,H  64,Al 61,H  62)    -14.6135         0.010000   
    763. D(Al 61,H  64,Al 60,H  66)     19.4139         0.010000   
    764. D(Al 61,H  64,Al 60,H  65)    -98.1770         0.010000   
    765. D(Al 72,H  66,Al 60,H  64)    -16.2838         0.010000   
    766. D(Al 72,H  66,Al 60,Al 61)    -13.9866         0.010000   
    767. D(H  69,Al 68,H  62,Al 61)    -14.5419         0.010000   
    768. D(H  69,Al 68,Al 61,Al 60)     -5.8371         0.010000   
    769. D(H  62,Al 68,Al 61,H  63)     75.3636         0.010000   
    770. D(H  62,Al 68,Al 61,Al 60)   -171.5995         0.010000   
    771. D(H  62,Al 68,O  24,Zr  3)    104.2995         0.010000   
    772. D(Al 61,Al 68,O  24,C  46)   -103.2743         0.010000   
    773. D(H  70,Al 68,H  62,Al 61)    103.1873         0.010000   
    774. D(Al 61,Al 68,O  24,Zr  3)     97.0034         0.010000   
    775. D(Al 72,H  69,Al 68,H  62)     16.9205         0.010000   
    776. D(Al 72,H  69,Al 68,Al 61)     15.3082         0.010000   
    777. D(H  66,Al 72,H  69,Al 68)    -12.4129         0.010000   
    778. D(Al 60,Al 72,H  69,Al 68)    -11.1727         0.010000   
    779. D(Al 60,Al 72,Al 68,H  62)      5.4232         0.010000   
    780. D(Al 60,Al 72,Al 68,Al 61)      4.0407         0.010000   
    781. D(H  69,Al 72,H  66,Al 60)     11.3251         0.010000   
    782. D(Al 68,Al 72,H  66,Al 60)      9.8607         0.010000   
    783. D(Al 68,Al 72,Al 60,Al 61)     -4.0454         0.010000   
    784. D(H  66,Al 72,Al 60,H  64)    164.0501         0.010000   
    785. D(H  66,Al 72,Al 60,Al 61)    166.1269         0.010000   
    786. D(H  66,Al 72,O  27,Zr  3)   -111.5774         0.010000   
    787. D(Al 60,Al 72,O  27,C  47)    119.2193         0.010000   
    788. D(Al 60,Al 72,O  27,Zr  3)   -104.3198         0.010000   
    789. D(H  66,Al 72,Al 68,Al 61)      2.9635         0.010000   
    790. D(H  66,Al 72,O  25,Zr  3)      3.0409         0.010000   
    791. D(Al 60,Al 72,O  25,C  37)   -159.6972         0.010000   
    792. D(Al 60,Al 72,O  25,Zr  3)      9.1231         0.010000   
    -----------------------------------------------------------------

Number of atoms                         .... 76
Number of degrees of freedom            .... 792


         *************************************************************
         *                GEOMETRY OPTIMIZATION CYCLE   1            *
         *************************************************************
---------------------------------
CARTESIAN COORDINATES (ANGSTROEM)
---------------------------------
  Zr    -0.357657    2.088252    1.423402
  Zr     0.477039   -1.923287   -1.629122
  Zr     1.599150   -1.343602    1.527899
  Zr    -1.526134    1.397111   -1.715055
  Zr     1.878870    1.198449   -1.574757
  Zr    -1.812259   -0.932018    1.512834
  O     -1.434143    0.673691    0.250474
  O      1.632432   -0.614297   -0.446526
  O     -0.157686   -1.879230    0.457303
  O      0.168160    2.057947   -0.659343
  O      0.130804    0.143706   -2.033337
  O      0.007032    0.005765    1.944319
  O     -1.226986    2.000105    3.191122
  O     -1.883761    3.282257    0.995877
  O      1.351733    1.949951    2.580515
  O      0.790309    3.721061    0.944730
  O     -1.294736   -2.896408   -1.504340
  O     -0.444814   -1.679865   -3.463726
  O      1.208108   -3.642405   -0.981512
  O      2.120790   -1.942693   -2.739956
  O      0.835693   -2.534362    2.909721
  O      2.123412   -0.196580    3.119192
  O      2.444166   -3.009103    0.887791
  O      3.493909   -0.595968    1.079096
  O     -3.437836    1.068006   -1.054802
  O     -2.072041    3.264442   -1.324426
  O     -2.108366   -0.080763   -2.996839
  O     -0.801849    2.210124   -3.372841
  O      1.426759    2.659880   -2.845910
  O      2.485806    2.759774   -0.374275
  O      2.482715    0.301735   -3.246774
  O      3.702409    0.588931   -0.936139
  O     -3.602633   -0.018338    1.024120
  O     -2.240297   -0.097329    3.261632
  O     -2.669715   -2.223656    0.260968
  O     -1.478707   -2.520885    2.633038
  C     -1.945665    1.071289    3.746121
  C     -2.254088    3.784343   -0.146394
  C      2.032715    1.087533    3.273138
  C      1.933348    3.706655    0.327292
  C     -2.365733   -2.933751   -0.777689
  C     -1.525747   -1.001646   -3.708488
  C      2.082909   -3.844437   -0.041058
  C      2.633529   -0.975256   -3.443122
  C     -0.371031   -2.943383    3.163947
  C      4.145938    0.004851    0.132134
  C     -4.065370    0.574951   -0.031984
  C      0.352425    2.778152   -3.570586
  H     -2.028025   -1.255238   -4.639344
  H      2.567342   -4.822088   -0.030235
  H      2.612826    1.500682    4.093888
  H     -2.783538    4.738434   -0.112152
  H      3.262812   -1.266622   -4.286330
  H      0.428834    3.425590   -4.445929
  H      2.518629    4.619088    0.416529
  H      5.224711    0.015413    0.249872
  H     -3.117839   -3.651931   -1.089677
  H     -5.144300    0.688144   -0.057668
  H     -2.343728    1.296756    4.735636
  H     -0.464640   -3.734275    3.908539
  Al    -2.959372    1.808827   -5.783105
  Al    -5.214966    0.470283   -3.755376
  H     -5.441562    1.858908   -2.855931
  H     -6.553769    0.083148   -4.531978
  H     -4.036054    0.957284   -4.832777
  H     -3.563893    1.987739   -7.248727
  H     -2.844842    3.291600   -5.025355
  H     -4.717535   -0.738657   -2.838349
  Al    -5.457282    3.402551   -2.219142
  H     -4.228987    4.186202   -3.033243
  H     -6.856756    4.101008   -2.534217
  H     -1.523404    1.114597   -5.848864
  Al    -3.036830    4.666442   -4.098426
  H     -3.553510    5.871405   -5.007583
  H     -1.688996    5.064317   -3.341042
  H     -5.182846    3.394369   -0.646584

----------------------------
CARTESIAN COORDINATES (A.U.)
----------------------------
  NO LB      ZA    FRAG     MASS         X           Y           Z
   0 Zr   12.0000*   0    91.220   -0.675874    3.946224    2.689840
   1 Zr   12.0000*   0    91.220    0.901474   -3.634487   -3.078594
   2 Zr   12.0000*   0    91.220    3.021955   -2.539039    2.887310
   3 Zr   12.0000*   0    91.220   -2.883976    2.640158   -3.240984
   4 Zr   12.0000*   0    91.220    3.550549    2.264740   -2.975859
   5 Zr   12.0000*   0    91.220   -3.424673   -1.761259    2.858842
   6 O     8.0000    0    15.999   -2.710138    1.273092    0.473328
   7 O     8.0000    0    15.999    3.084850   -1.160852   -0.843812
   8 O     8.0000    0    15.999   -0.297983   -3.551230    0.864177
   9 O     8.0000    0    15.999    0.317777    3.888956   -1.245979
  10 O     8.0000    0    15.999    0.247183    0.271566   -3.842450
  11 O     8.0000    0    15.999    0.013288    0.010895    3.674230
  12 O     8.0000    0    15.999   -2.318667    3.779650    6.030346
  13 O     8.0000    0    15.999   -3.559793    6.202566    1.881935
  14 O     8.0000    0    15.999    2.554404    3.684872    4.876467
  15 O     8.0000    0    15.999    1.493468    7.031787    1.785282
  16 O     8.0000    0    15.999   -2.446696   -5.473418   -2.842790
  17 O     8.0000    0    15.999   -0.840577   -3.174485   -6.545494
  18 O     8.0000    0    15.999    2.282994   -6.883148   -1.854790
  19 O     8.0000    0    15.999    4.007712   -3.671157   -5.177767
  20 O     8.0000    0    15.999    1.579230   -4.789250    5.498576
  21 O     8.0000    0    15.999    4.012668   -0.371482    5.894419
  22 O     8.0000    0    15.999    4.618804   -5.686381    1.677683
  23 O     8.0000    0    15.999    6.602531   -1.126217    2.039196
  24 O     8.0000    0    15.999   -6.496569    2.018240   -1.993287
  25 O     8.0000    0    15.999   -3.915590    6.168901   -2.502803
  26 O     8.0000    0    15.999   -3.984234   -0.152620   -5.663206
  27 O     8.0000    0    15.999   -1.515274    4.176530   -6.373747
  28 O     8.0000    0    15.999    2.696183    5.026445   -5.377991
  29 O     8.0000    0    15.999    4.697493    5.215218   -0.707277
  30 O     8.0000    0    15.999    4.691652    0.570196   -6.135513
  31 O     8.0000    0    15.999    6.996538    1.112918   -1.769047
  32 O     8.0000    0    15.999   -6.807990   -0.034654    1.935306
  33 O     8.0000    0    15.999   -4.233548   -0.183926    6.163592
  34 O     8.0000    0    15.999   -5.045029   -4.202100    0.493159
  35 O     8.0000    0    15.999   -2.794351   -4.763782    4.975720
  36 C     6.0000    0    12.011   -3.676774    2.024442    7.079143
  37 C     6.0000    0    12.011   -4.259609    7.151371   -0.276644
  38 C     6.0000    0    12.011    3.841275    2.055140    6.185335
  39 C     6.0000    0    12.011    3.653498    7.004564    0.618492
  40 C     6.0000    0    12.011   -4.470588   -5.543985   -1.469619
  41 C     6.0000    0    12.011   -2.883245   -1.892837   -7.008027
  42 C     6.0000    0    12.011    3.936128   -7.264933   -0.077588
  43 C     6.0000    0    12.011    4.976648   -1.842967   -6.506558
  44 C     6.0000    0    12.011   -0.701146   -5.562188    5.978993
  45 C     6.0000    0    12.011    7.834687    0.009168    0.249697
  46 C     6.0000    0    12.011   -7.682436    1.086501   -0.060440
  47 C     6.0000    0    12.011    0.665987    5.249947   -6.747430
  48 H     1.0000    0     1.008   -3.832412   -2.372055   -8.767090
  49 H     1.0000    0     1.008    4.851573   -9.112426   -0.057136
  50 H     1.0000    0     1.008    4.937525    2.835878    7.736327
  51 H     1.0000    0     1.008   -5.260124    8.954342   -0.211937
  52 H     1.0000    0     1.008    6.165822   -2.393569   -8.099989
  53 H     1.0000    0     1.008    0.810378    6.473427   -8.401588
  54 H     1.0000    0     1.008    4.759518    8.728811    0.787125
  55 H     1.0000    0     1.008    9.873273    0.029127    0.472190
  56 H     1.0000    0     1.008   -5.891862   -6.901149   -2.059191
  57 H     1.0000    0     1.008   -9.721319    1.300403   -0.108977
  58 H     1.0000    0     1.008   -4.429005    2.450514    8.949056
  59 H     1.0000    0     1.008   -0.878042   -7.056757    7.386068
  60 Al   13.0000    0    26.982   -5.592402    3.418187  -10.928485
  61 Al   13.0000    0    26.982   -9.854857    0.888707   -7.096633
  62 H     1.0000    0     1.008  -10.283063    3.512827   -5.396928
  63 H     1.0000    0     1.008  -12.384829    0.157126   -8.564197
  64 H     1.0000    0     1.008   -7.627036    1.809005   -9.132625
  65 H     1.0000    0     1.008   -6.734782    3.756282  -13.698108
[...]

Throughout the following assumptions are being made:
  (1) The electronic state is orbitally nondegenerate
  (2) There are no thermally accessible electronically excited states
  (3) Hindered rotations indicated by low frequency modes are not
      treated as such but are treated as vibrations and this may
      cause some error
  (4) All equations used are the standard statistical mechanics
      equations for an ideal gas
  (5) All vibrations are strictly harmonic

freq.      12.63  E(vib)   ...       0.57 
freq.      20.17  E(vib)   ...       0.56 
freq.      26.55  E(vib)   ...       0.56 
freq.      28.54  E(vib)   ...       0.55 
freq.      34.07  E(vib)   ...       0.55 
freq.      38.33  E(vib)   ...       0.54 
freq.      43.14  E(vib)   ...       0.53 
freq.      47.51  E(vib)   ...       0.53 
freq.      55.95  E(vib)   ...       0.52 
freq.      60.30  E(vib)   ...       0.51 
freq.      64.40  E(vib)   ...       0.51 
freq.      68.94  E(vib)   ...       0.50 
freq.      70.66  E(vib)   ...       0.50 
freq.      79.43  E(vib)   ...       0.49 
freq.      82.47  E(vib)   ...       0.48 
freq.      90.97  E(vib)   ...       0.47 
freq.      97.15  E(vib)   ...       0.46 
freq.      97.41  E(vib)   ...       0.46 
freq.      99.03  E(vib)   ...       0.46 
freq.     101.09  E(vib)   ...       0.46 
freq.     104.49  E(vib)   ...       0.46 
freq.     106.36  E(vib)   ...       0.45 
freq.     108.23  E(vib)   ...       0.45 
freq.     109.94  E(vib)   ...       0.45 
freq.     117.48  E(vib)   ...       0.44 
freq.     118.09  E(vib)   ...       0.44 
freq.     122.50  E(vib)   ...       0.43 
freq.     127.41  E(vib)   ...       0.43 
freq.     129.90  E(vib)   ...       0.43 
freq.     144.28  E(vib)   ...       0.41 
freq.     149.02  E(vib)   ...       0.40 
freq.     150.01  E(vib)   ...       0.40 
freq.     150.47  E(vib)   ...       0.40 
freq.     152.56  E(vib)   ...       0.40 
freq.     153.58  E(vib)   ...       0.40 
freq.     153.82  E(vib)   ...       0.40 
freq.     158.22  E(vib)   ...       0.39 
freq.     160.32  E(vib)   ...       0.39 
freq.     163.64  E(vib)   ...       0.39 
freq.     165.39  E(vib)   ...       0.39 
freq.     166.55  E(vib)   ...       0.39 
freq.     169.18  E(vib)   ...       0.38 
freq.     172.16  E(vib)   ...       0.38 
freq.     174.64  E(vib)   ...       0.38 
freq.     185.41  E(vib)   ...       0.37 
freq.     188.62  E(vib)   ...       0.36 
freq.     188.98  E(vib)   ...       0.36 
freq.     192.96  E(vib)   ...       0.36 
freq.     196.81  E(vib)   ...       0.36 
freq.     198.31  E(vib)   ...       0.35 
freq.     204.85  E(vib)   ...       0.35 
freq.     209.94  E(vib)   ...       0.34 
freq.     212.04  E(vib)   ...       0.34 
freq.     212.38  E(vib)   ...       0.34 
freq.     227.13  E(vib)   ...       0.33 
freq.     228.55  E(vib)   ...       0.32 
freq.     233.28  E(vib)   ...       0.32 
freq.     235.78  E(vib)   ...       0.32 
freq.     243.63  E(vib)   ...       0.31 
freq.     259.25  E(vib)   ...       0.30 
freq.     260.85  E(vib)   ...       0.30 
freq.     262.83  E(vib)   ...       0.29 
freq.     263.99  E(vib)   ...       0.29 
freq.     264.79  E(vib)   ...       0.29 
freq.     266.90  E(vib)   ...       0.29 
freq.     268.41  E(vib)   ...       0.29 
freq.     270.97  E(vib)   ...       0.29 
freq.     271.54  E(vib)   ...       0.29 
freq.     272.12  E(vib)   ...       0.29 
freq.     273.34  E(vib)   ...       0.29 
freq.     275.18  E(vib)   ...       0.28 
freq.     276.06  E(vib)   ...       0.28 
freq.     277.25  E(vib)   ...       0.28 
freq.     278.08  E(vib)   ...       0.28 
freq.     280.32  E(vib)   ...       0.28 
freq.     281.79  E(vib)   ...       0.28 
freq.     283.84  E(vib)   ...       0.28 
freq.     287.78  E(vib)   ...       0.27 
freq.     292.44  E(vib)   ...       0.27 
freq.     293.34  E(vib)   ...       0.27 
freq.     295.30  E(vib)   ...       0.27 
freq.     299.94  E(vib)   ...       0.26 
freq.     301.60  E(vib)   ...       0.26 
freq.     307.76  E(vib)   ...       0.26 
freq.     309.39  E(vib)   ...       0.26 
freq.     310.14  E(vib)   ...       0.26 
freq.     313.47  E(vib)   ...       0.25 
freq.     314.60  E(vib)   ...       0.25 
freq.     321.30  E(vib)   ...       0.25 
freq.     322.84  E(vib)   ...       0.25 
freq.     325.31  E(vib)   ...       0.24 
freq.     327.82  E(vib)   ...       0.24 
freq.     340.53  E(vib)   ...       0.23 
freq.     340.89  E(vib)   ...       0.23 
freq.     351.42  E(vib)   ...       0.23 
freq.     352.68  E(vib)   ...       0.22 
freq.     362.96  E(vib)   ...       0.22 
freq.     369.80  E(vib)   ...       0.21 
freq.     386.04  E(vib)   ...       0.20 
freq.     395.08  E(vib)   ...       0.20 
freq.     400.33  E(vib)   ...       0.19 
freq.     402.80  E(vib)   ...       0.19 
freq.     403.89  E(vib)   ...       0.19 
freq.     414.88  E(vib)   ...       0.19 
freq.     417.92  E(vib)   ...       0.18 
freq.     419.05  E(vib)   ...       0.18 
freq.     419.74  E(vib)   ...       0.18 
freq.     420.65  E(vib)   ...       0.18 
freq.     429.23  E(vib)   ...       0.18 
freq.     432.36  E(vib)   ...       0.18 
freq.     438.69  E(vib)   ...       0.17 
freq.     475.75  E(vib)   ...       0.15 
freq.     476.56  E(vib)   ...       0.15 
freq.     477.17  E(vib)   ...       0.15 
freq.     479.82  E(vib)   ...       0.15 
freq.     482.19  E(vib)   ...       0.15 
freq.     498.79  E(vib)   ...       0.14 
freq.     524.20  E(vib)   ...       0.13 
freq.     539.16  E(vib)   ...       0.12 
freq.     623.76  E(vib)   ...       0.09 
freq.     671.36  E(vib)   ...       0.08 
freq.     675.21  E(vib)   ...       0.08 
freq.     680.81  E(vib)   ...       0.08 
freq.     682.42  E(vib)   ...       0.08 
freq.     684.42  E(vib)   ...       0.07 
freq.     687.63  E(vib)   ...       0.07 
freq.     691.18  E(vib)   ...       0.07 
freq.     693.86  E(vib)   ...       0.07 
freq.     701.03  E(vib)   ...       0.07 
freq.     701.43  E(vib)   ...       0.07 
freq.     706.60  E(vib)   ...       0.07 
freq.     723.24  E(vib)   ...       0.07 
freq.     725.19  E(vib)   ...       0.06 
freq.     731.21  E(vib)   ...       0.06 
freq.     734.35  E(vib)   ...       0.06 
freq.     735.05  E(vib)   ...       0.06 
freq.     735.53  E(vib)   ...       0.06 
freq.     737.06  E(vib)   ...       0.06 
freq.     737.98  E(vib)   ...       0.06 
freq.     738.31  E(vib)   ...       0.06 
freq.     738.76  E(vib)   ...       0.06 
freq.     739.10  E(vib)   ...       0.06 
freq.     740.07  E(vib)   ...       0.06 
freq.     740.43  E(vib)   ...       0.06 
freq.     741.45  E(vib)   ...       0.06 
freq.     743.01  E(vib)   ...       0.06 
freq.     748.33  E(vib)   ...       0.06 
freq.     774.93  E(vib)   ...       0.05 
freq.     994.34  E(vib)   ...       0.02 
freq.     995.24  E(vib)   ...       0.02 
freq.     999.90  E(vib)   ...       0.02 
freq.    1000.61  E(vib)   ...       0.02 
freq.    1001.19  E(vib)   ...       0.02 
freq.    1001.39  E(vib)   ...       0.02 
freq.    1002.48  E(vib)   ...       0.02 
freq.    1003.02  E(vib)   ...       0.02 
freq.    1006.17  E(vib)   ...       0.02 
freq.    1006.47  E(vib)   ...       0.02 
freq.    1007.04  E(vib)   ...       0.02 
freq.    1007.49  E(vib)   ...       0.02 
freq.    1345.48  E(vib)   ...       0.01 
freq.    1346.27  E(vib)   ...       0.01 
freq.    1347.32  E(vib)   ...       0.01 
freq.    1351.57  E(vib)   ...       0.01 
freq.    1353.77  E(vib)   ...       0.01 
freq.    1354.71  E(vib)   ...       0.01 
freq.    1355.52  E(vib)   ...       0.01 
freq.    1355.72  E(vib)   ...       0.01 
freq.    1356.86  E(vib)   ...       0.01 
freq.    1357.09  E(vib)   ...       0.01 
freq.    1357.96  E(vib)   ...       0.01 
freq.    1358.16  E(vib)   ...       0.01 
freq.    1362.29  E(vib)   ...       0.01 
freq.    1363.11  E(vib)   ...       0.01 
freq.    1363.52  E(vib)   ...       0.01 
freq.    1364.91  E(vib)   ...       0.01 
freq.    1365.65  E(vib)   ...       0.01 
freq.    1366.20  E(vib)   ...       0.01 
freq.    1366.78  E(vib)   ...       0.01 
freq.    1367.48  E(vib)   ...       0.01 
freq.    1368.06  E(vib)   ...       0.01 
freq.    1371.57  E(vib)   ...       0.01 
freq.    1372.34  E(vib)   ...       0.01 
freq.    1380.18  E(vib)   ...       0.01 
freq.    1540.69  E(vib)   ...       0.00 
freq.    1550.16  E(vib)   ...       0.00 
freq.    1563.29  E(vib)   ...       0.00 
freq.    1564.30  E(vib)   ...       0.00 
freq.    1569.07  E(vib)   ...       0.00 
freq.    1576.70  E(vib)   ...       0.00 
freq.    1577.87  E(vib)   ...       0.00 
freq.    1630.33  E(vib)   ...       0.00 
freq.    1632.21  E(vib)   ...       0.00 
freq.    1635.71  E(vib)   ...       0.00 
freq.    1637.82  E(vib)   ...       0.00 
freq.    1638.49  E(vib)   ...       0.00 
freq.    1826.15  E(vib)   ...       0.00 
freq.    1862.15  E(vib)   ...       0.00 
freq.    1864.78  E(vib)   ...       0.00 
freq.    1867.04  E(vib)   ...       0.00 
freq.    1882.80  E(vib)   ...       0.00 
freq.    1898.73  E(vib)   ...       0.00 
freq.    1899.29  E(vib)   ...       0.00 
freq.    1903.67  E(vib)   ...       0.00 
freq.    1908.77  E(vib)   ...       0.00 
freq.    1955.79  E(vib)   ...       0.00 
freq.    1957.67  E(vib)   ...       0.00 
freq.    1986.33  E(vib)   ...       0.00 
freq.    2883.93  E(vib)   ...       0.00 
freq.    2889.62  E(vib)   ...       0.00 
freq.    2890.84  E(vib)   ...       0.00 
freq.    2892.90  E(vib)   ...       0.00 
freq.    2894.08  E(vib)   ...       0.00 
freq.    2894.77  E(vib)   ...       0.00 
freq.    2905.25  E(vib)   ...       0.00 
freq.    2906.82  E(vib)   ...       0.00 
freq.    2907.40  E(vib)   ...       0.00 
freq.    2907.83  E(vib)   ...       0.00 
freq.    2908.03  E(vib)   ...       0.00 
freq.    2909.45  E(vib)   ...       0.00 

------------
INNER ENERGY
------------

The inner energy is: U= E(el) + E(ZPE) + E(vib) + E(rot) + E(trans)
    E(el)   - is the total energy from the electronic structure calculation
              = E(kin-el) + E(nuc-el) + E(el-el) + E(nuc-nuc)
    E(ZPE)  - the the zero temperature vibrational energy from the frequency calculation
    E(vib)  - the the finite temperature correction to E(ZPE) due to population
              of excited vibrational states
    E(rot)  - is the rotational thermal energy
    E(trans)- is the translational thermal energy

Summary of contributions to the inner energy U:
Electronic energy                ...  -3976.49853797 Eh
Zero point energy                ...      0.38940950 Eh     244.36 kcal/mol
Thermal vibrational correction   ...      0.06622698 Eh      41.56 kcal/mol
Thermal rotational correction    ...      0.00141627 Eh       0.89 kcal/mol
Thermal translational correction ...      0.00141627 Eh       0.89 kcal/mol
-----------------------------------------------------------------------
Total thermal energy                  -3976.04006895 Eh


Summary of corrections to the electronic energy:
(perhaps to be used in another calculation)
Total thermal correction                  0.06905952 Eh      43.34 kcal/mol
Non-thermal (ZPE) correction              0.38940950 Eh     244.36 kcal/mol
-----------------------------------------------------------------------
Total correction                          0.45846902 Eh     287.69 kcal/mol


--------
ENTHALPY
--------

The enthalpy is H = U + kB*T
                kB is Boltzmann's constant
Total thermal energy              ...  -3976.04006895 Eh 
Thermal Enthalpy correction       ...      0.00094421 Eh       0.59 kcal/mol
-----------------------------------------------------------------------
Total Enthalpy                    ...  -3976.03912474 Eh


Note: Only C1 symmetry has been detected, increase convergence thresholds 
      if your molecule has a higher symmetry. Symmetry factor of 1.0 is   
      used for the rotational entropy correction. 
 

Note: Rotational entropy computed according to Herzberg 
Infrared and Raman Spectra, Chapter V,1, Van Nostrand Reinhold, 1945 
Point Group:  C1, Symmetry Number:   1  
Rotational constants in cm-1:     0.001706     0.001165     0.001137 

Vibrational entropy computed according to the QRRHO of S. Grimme
Chem.Eur.J. 2012 18 9955 using a reference frequency of 100.0 cm-1


-------
ENTROPY
-------

The entropy contributions are T*S = T*(S(el)+S(vib)+S(rot)+S(trans))
     S(el)   - electronic entropy
     S(vib)  - vibrational entropy
     S(rot)  - rotational entropy
     S(trans)- translational entropy
The entropies will be listed as multiplied by the temperature to get
units of energy

Electronic entropy                ...      0.00000000 Eh      0.00 kcal/mol
Vibrational entropy               ...      0.11982986 Eh     75.19 kcal/mol
Rotational entropy                ...      0.01890910 Eh     11.87 kcal/mol
Translational entropy             ...      0.02250776 Eh     14.12 kcal/mol
-----------------------------------------------------------------------
Final entropy term                ...      0.16124672 Eh    101.18 kcal/mol

In case the symmetry of your molecule has not been determined correctly
or in case you have a reason to use a different symmetry number we print 
out the resulting rotational entropy values for sn=1,12:

 non-linear molecules -----------------------------------
|  sn= 1 | S(rot)=       0.01890910 Eh     11.87 kcal/mol|
|  sn= 2 | S(rot)=       0.01825464 Eh     11.45 kcal/mol|
|  sn= 3 | S(rot)=       0.01787181 Eh     11.21 kcal/mol|
|  sn= 4 | S(rot)=       0.01760018 Eh     11.04 kcal/mol|
|  sn= 5 | S(rot)=       0.01738950 Eh     10.91 kcal/mol|
|  sn= 6 | S(rot)=       0.01721735 Eh     10.80 kcal/mol|
|  sn= 7 | S(rot)=       0.01707181 Eh     10.71 kcal/mol|
|  sn= 8 | S(rot)=       0.01694573 Eh     10.63 kcal/mol|
|  sn= 9 | S(rot)=       0.01683452 Eh     10.56 kcal/mol|
|  sn=10 | S(rot)=       0.01673504 Eh     10.50 kcal/mol|
|  sn=11 | S(rot)=       0.01664505 Eh     10.44 kcal/mol|
|  sn=12 | S(rot)=       0.01656290 Eh     10.39 kcal/mol|
 linear molecules ---------------------------------------
|  Dinfh | S(rot)=       0.01172687 Eh      7.36 kcal/mol|
|  Cinfv | S(rot)=       0.01238132 Eh      7.77 kcal/mol|
 --------------------------------------------------------


-------------------
GIBBS FREE ENERGY
-------------------

The Gibbs free energy is G = H - T*S

Total enthalpy                    ...  -3976.03912474 Eh 
Total entropy correction          ...     -0.16124672 Eh   -101.18 kcal/mol
-----------------------------------------------------------------------
Final Gibbs free energy         ...  -3976.20037146 Eh

For completeness - the Gibbs free energy minus the electronic energy
G-E(el)                           ...      0.29816651 Eh    187.10 kcal/mol


Maximum memory used throughout the entire PROP-calculation: 150.7 MB

--------------------------------
SUGGESTED CITATIONS FOR THIS RUN
--------------------------------

Below you find a list of papers that are relevant to this ORCA run
We neither can nor want to force you to cite these papers, but we appreciate if you do
You receive ORCA, which is the product of decades of hard work by many enthusiastic individuals, for free
The only thing we kindly ask in return is that you cite our papers,
We deeply appreciate it, if you show your appreciation for ORCA by not just citing the generic ORCA reference.

Please note that relegating all ORCA citations to the supporting information does *not* help us.
SI sections are not indexed - citations you put there will not count into any citation statistics
But we need these citations in order to attract the funding resources that allow us to do what we are doing

Therefore, if you are a happy ORCA user, please consider citing a few of the papers listed below in the main body of your paper

In addition to the list printed below, the program has created the file run.bibtex that contains the list in bibtex format
You can import this file easily into all common literature databanks and citation aid programs


List of essential papers. We consider these as the minimum necessary citations

  1. Neese, F.
     Software update: the ORCA program system, version 6.0
     WIRES Comput. Molec. Sci. 2025 15(1), e70019
     doi.org/10.1002/wcms.7019

List of papers to cite with high priority. The work reported in these papers was absolutely
necessary for this run to complete.
Our perspective: the developers of density functionals and basis sets usually get cited in chemistry papers
Good! But without the algorithms to do something with them, the functionals or basis sets would not do anything.
Hence, in our opinion, the algorithm design and method developments papers are equally worthy of getting cited

  1. Neese, F.
     An improvement of the resolution of the identity approximation for the formation of the Coulomb matrix
     J. Comp. Chem. 2003 24(14), 1740-1747
     doi.org/10.1002/jcc.10318
  2. Grimme, S.; Antony, J.; Ehrlich, S.; Krieg, H.
     A consistent and accurate ab initio parametrization of density functional dispersion correction (DFT-D) for the 94 elements H-Pu
     J. Chem. Phys. 2010 132 , 154104
     doi.org/10.1063/1.3382344
  3. Grimme, S.; Ehrlich, S.; Goerigk, L.
     Effect of the damping function in dispersion corrected density functional theory
     J. Comput. Chem. 2011 32(7), 1456-1465
     doi.org/10.1002/jcc.21759
  4. Bykov, D.; Petrenko, T.; Izsak, R.; Kossmann, S.; Becker, U.; Valeev, E.; Neese, F.
     Efficient implementation of the analytic second derivatives of Hartree-Fock and hybrid DFT energies: a detailed analysis of different approximations
     Molec. Phys. 2015 113 , 1961-1977
     doi.org/10.1080/00268976.2015.1025114
  5. Helmich-Paris, B.
     A trust-region augmented Hessian implementation for restricted and unrestricted Hartree–Fock and Kohn–Sham methods
     J. Chem. Phys. 2021 154 , 164104
     doi.org/10.1063/5.0040798
  6. Neese, F.
     The SHARK Integral Generation and Digestion System
     J. Comp. Chem. 2022 44(3), 381
     doi.org/10.1002/jcc.26942

List of suggested additional citations. These are papers that are important in the 'surrounding' of 
of this run, or papers that preceded the highly important papers. If you like your results we are grateful for a citation.

  1. Neese, F.
     The ORCA program system
     WIRES Comput. Molec. Sci. 2012 2(1), 73-78
     doi.org/10.1002/wcms.81
  2. Neese, F.
     Software update: the ORCA program system, version 4.0
     WIRES Comput. Molec. Sci. 2018 8(1), 1-6
     doi.org/10.1002/wcms.1327
  3. Neese, F.; Wennmohs, F.; Becker, U.; Riplinger, C.
     The ORCA quantum chemistry program package
     J. Chem. Phys. 2020 152(22), 224108
     doi.org/10.1063/5.0004608
  4. Neese, F.
     Software update: The ORCA program system—Version 5.0
     WIRES Comput. Molec. Sci. 2022 12(1), e1606
     doi.org/10.1002/wcms.1606

List of optional additional citations

  1. Neese, F.
     Approximate second-order SCF convergence for spin unrestricted wavefunctions
     Chem. Phys. Lett. 2000 325(1-3), 93-98
     doi.org/10.1016/s0009-2614(00)00662-x

Timings for individual modules:

Sum of individual times          ...     8091.672 sec (= 134.861 min)
Startup calculation              ...      295.391 sec (=   4.923 min)   3.7 %
SCF iterations                   ...     2315.610 sec (=  38.593 min)  28.6 %
Property integrals               ...     1723.116 sec (=  28.719 min)  21.3 %
SCF Response                     ...     1474.431 sec (=  24.574 min)  18.2 %
Property calculations            ...     1507.967 sec (=  25.133 min)  18.6 %
SCF Gradient evaluation          ...      751.223 sec (=  12.520 min)   9.3 %
Geometry relaxation              ...       23.933 sec (=   0.399 min)   0.3 %
                             ****ORCA TERMINATED NORMALLY****
TOTAL RUN TIME: 0 days 2 hours 15 minutes 19 seconds 960 msec
