
                                 *****************
                                 * O   R   C   A *
                                 *****************

                                            #,                                       
                                            ###                                      
                                            ####                                     
                                            #####                                    
                                            ######                                   
                                           ########,                                 
                                     ,,################,,,,,                         
                               ,,#################################,,                 
                          ,,##########################################,,             
                       ,#########################################, ''#####,          
                    ,#############################################,,   '####,        
                  ,##################################################,,,,####,       
                ,###########''''           ''''###############################       
              ,#####''   ,,,,##########,,,,          '''####'''          '####       
            ,##' ,,,,###########################,,,                        '##       
           ' ,,###''''                  '''############,,,                           
         ,,##''                                '''############,,,,        ,,,,,,###''
      ,#''                                            '''#######################'''  
     '                                                          ''''####''''         
             ,#######,   #######,   ,#######,      ##                                
            ,#'     '#,  ##    ##  ,#'     '#,    #''#        ,####,    ,#,          
            ##       ##  ##   ,#'  ##            #'  '#       #'       ,# #          
            ##       ##  #######   ##           ,######,      #####,      #          
            '#,     ,#'  ##    ##  '#,     ,#' ,#      #,     #,   #      #          
             '#######'   ##     ##  '#######'  #'      '#     '####' #    #          



                #########################################################
                #                        -***-                          #
                #          Department of theory and spectroscopy        #
                #                                                       #
                #                      Frank Neese                      #
                #                                                       #
                #     Directorship, Architecture, Infrastructure        #
                #                    SHARK, DRIVERS                     #
                #        Core code/Algorithms in most modules           #
                #                                                       #
                #        Max Planck Institute fuer Kohlenforschung      #
                #                Kaiser Wilhelm Platz 1                 #
                #                 D-45470 Muelheim/Ruhr                 #
                #                      Germany                          #
                #                                                       #
                #                  All rights reserved                  #
                #                        -***-                          #
                #########################################################


                         Program Version 6.1.0  -  RELEASE   -
                                (GIT: $679e74b$)
                          ($2025-06-10 18:02:51 +0200$)


 With contributions from (in alphabetic order):
[Max-Planck-Institut fuer Kohlenforschung]                               
  Daniel Aravena         : Magnetic Suceptibility                        
  Michael Atanasov       : Ab Initio Ligand Field Theory (pilot matlab implementation)
  Alexander A. Auer      : GIAO ZORA, VPT2 properties, NMR spectrum      
  Ute Becker             : All parallelization in ORCA, NUMFREQ, NUMCALC 
  Giovanni Bistoni       : ED, misc. LED, open-shell LED, HFLD           
  Dmytro Bykov           : pre 5.0 version of the SCF Hessian            
  Marcos Casanova-Páez   : Triplet and SCS-CIS(D). UHF-(DLPNO)-IP/EA/STEOM-CCSD. UHF-CVS-IP/STEOM-CCSD   
  Vijay G. Chilkuri      : MRCI spin determinant printing, contributions to CSF-ICE 
  Pauline Colinet        : FMM embedding                                 
  Dipayan Datta          : RHF DLPNO-CCSD density                        
  Achintya Kumar Dutta   : EOM-CC, STEOM-CC                              
  Nicolas Foglia         : Exact transition moments, OPA infrastructure, MCD improvements    
  Dmitry Ganyushin       : Spin-Orbit,Spin-Spin,Magnetic field MRCI      
  Miquel Garcia-Rates    : C-PCM and meta-GGA Hessian, CCSD/C-PCM, Gaussian charge scheme 
  Tiago L. C. Gouveia    : GS-ROHF, GS-ROCIS                             
  Yang Guo               : DLPNO-NEVPT2, F12-NEVPT2, CIM, IAO-localization        
  Andreas Hansen         : Spin unrestricted coupled pair/coupled cluster methods 
  Ingolf Harden          : AUTO-CI MPn and infrastructure                
  Benjamin Helmich-Paris : MC-RPA, TRAH-(SCF,CASSCF), AVAS, COSX integrals, SCF dyn. polar., MC-PDFT, srDFT 
  Lee Huntington         : MR-EOM, pCC                                   
  Robert Izsak           : Overlap fitted RIJCOSX, COSX-SCS-MP3, EOM     
  Riya Kayal             : Wick's Theorem for AUTO-CI, AUTO-CI UHF-CCSDT 
  Emily Kempfer          : AUTO-CI RHF CISDT and CCSDT, approximate NEVPT4
  Christian Kollmar      : KDIIS, OOCD, Brueckner-CCSD(T), CCSD density, CASPT2, CASPT2-K, improved NEVPT2 
  Axel Koslowski         : Symmetry handling                             
  Simone Kossmann        : meta-GGA functionals, TD-DFT gradient, OOMP2, (MP2 Hessian; deprecated post 5.0) 
  Lucas Lang             : DCDCAS, Hyperfine gauge corrections, ICE-SOC+SSC
  Marvin Lechner         : AUTO-CI (C++ implementation), FIC-MRCC        
  Spencer Leger          : CASSCF response                               
  Dagmar Lenk            : GEPOL surface, SMD, ORCA-2-JSON               
  Dimitrios Liakos       : Extrapolation schemes; Compound Job, Property file
  Dimitrios Manganas     : Further ROCIS development; embedding schemes. LFT, Crystal Embedding 
  Dimitrios Pantazis     : SARC Basis sets                               
  Anastasios Papadopoulos: AUTO-CI, single reference methods and gradients 
  Taras Petrenko         : pre 6.0 DFT Hessian and TD-DFT gradient,  ECA, NRVS 
  Petra Pikulova         : Analytic Raman intensities                    
  Peter Pinski           : DLPNO-MP2, DLPNO-MP2 Gradient                 
  Shashank Vittal Rao    : ES-AILFT, MagRelax                            
  Christoph Reimann      : Effective Core Potentials                     
  Marius Retegan         : Local ZFS, SOC                                
  Christoph Riplinger    : Optimizer, TS searches, QM/MM, DLPNO-CCSD(T), (RO)-DLPNO pert. Triples 
  Michael Roemelt        : Original ROCIS implementation, recursive CI coupling coefficients
  Masaaki Saitow         : Open-shell DLPNO-CCSD energy and density      
  Barbara Sandhoefer     : DKH picture change effects                    
  Yorick L. A. Schmerwitz: GMF and freeze-and-release deltaSCF, NEB S-IDPP initial path                    
  Kantharuban Sivalingam : CASSCF convergence/infrastructure, NEVPT2, NEVPT3, NEVPT4(SD), FIC-MRCI and CEPA variants
  Bernardo de Souza      : ESD, SOC TD-DFT                               
  Georgi L. Stoychev     : AutoAux, RI-MP2 NMR, DLPNO-MP2 response, X2C  
  Van Anh Tran           : RI-MP2 g-tensors                              
  Willem Van den Heuvel  : Paramagnetic NMR                              
  Zikuan Wang            : NOTCH, Electric field optimization            
  Frank Wennmohs         : Technical directorship and infrastructure     
  Hang Xu                : AUTO-CI-Response properties                   
                                                                         
[FACCTs GmbH]                                                            
  Markus Bursch, Nicolas Foglia, Miquel Garcia-Rates, Ingolf Harden, Hagen Neugebauer, Anastasios Papadopoulos, 
  Christoph Riplinger, Bernardo de Souza, Georgi L. Stoychev                                                    
                                                                 
  APM, various basis sets, CI-OPT, improved COSX, DLPNO-Multilevel,           
  DOCKER, DRACO, updates on ESD, Fragmentator, GOAT, IRC, LR-CPCM, L-BFGS, MBIS, meta-GGA TD-DFT gradient, ML-optimized integration grids, 
  MM, NACMEs, nearIR, NEB, NEB-TS, NL-DFT gradient (VV10), 2- and 3-layer-ONIOM, interface openCOSMO-RS, QMMM,   
  Crystal-QMMM, RESP, rigid body optimization, SF, symmetry and pop. for TD-DFT, various functionals, SOLVATOR                                   
                                                                         
[Other institutions]                                                     
  V. Asgeirsson          : NEB                                           
  Christoph Bannwarth    : sTDA-DFT, sTD-DFT, PBEh-3c, B97-3c, D3        
  Giovanni Bistoni       : ETS/NOCV, ADLD/ADEX, COVALED                  
  Martin Brehm           : Molecular dynamics                            
  Ronald Cardenas        : ETS/NOCV                                      
  Martina Colucci        : COVALED                                       
  Sebastian Ehlert       : rSCAN, r2SCAN, r2SCAN-3c, D4, dhf basis sets  
  Marvin Friede          : D4 for Fr, Ra, Ac-Lr                          
  Lars Goerigk           : TD-DFT with DH, B97 family of functionals     
  Stefan Grimme          : VdW corrections, initial TS optimization, DFT functionals, gCP, sTDA/sTD-DF 
  Waldemar Hujo          : DFT-NL                                        
  H. Jonsson             : NEB                                           
  Holger Kruse           : gCP                                           
  Marcel Mueller         : wB97X-3c, vDZP basis set                      
  Hagen Neugebauer       : wr2SCAN, Native XTB                           
  Gianluca Regni         : ADLD/ADEX                                     
  Tobias Risthaus        : pre 6.0 range-separated hybrid DFT and stability analysis
  Lukas Wittmann         : regularized MP2, r2SCAN double-hybrids, wr2SCAN        
                                                                         
We gratefully acknowledge several colleagues who have allowed us to      
interface, adapt or use parts of their codes:                            
  Ed Valeev, F. Pavosevic, A. Kumar             : LibInt (2-el integral package), F12 methods 
  Garnet Chan, S. Sharma, J. Yang, R. Olivares  : DMRG                   
  Ulf Ekstrom                                   : XCFun DFT Library      
  Mihaly Kallay                                 : mrcc  (arbitrary order and MRCC methods)
  Frank Weinhold                                : gennbo (NPA and NBO analysis)           
  Simon Mueller                                 : openCOSMO-RS                            
  Christopher J. Cramer and Donald G. Truhlar   : smd solvation model                     
  S Lehtola, MJT Oliveira, MAL Marques          : LibXC Library                           
  Liviu Ungur et al                             : ANISO software                          


 Your calculation uses the libint2 library for the computation of 2-el integrals
 For citations please refer to: http://libint.valeyev.net

 Your ORCA version has been built with support for libXC version: 7.0.0
 For citations please refer to: https://libxc.gitlab.io

 This ORCA versions uses:
   CBLAS   interface :  Fast vector & matrix operations
   LAPACKE interface :  Fast linear algebra routines
   SCALAPACK package :  Parallel linear algebra routines
   Shared memory     :  Shared parallel matrices
   BLAS/LAPACK       :  OpenBLAS 0.3.29  USE64BITINT DYNAMIC_ARCH NO_AFFINITY Bulldozer SINGLE_THREADED
        Core in use  :  Bulldozer
   Copyright (c) 2011-2014, The OpenBLAS Project


  ***********************************
  * Starting time: Fri Aug  8 15:33:53 2025
  * Host name:     chromium09
  * Process ID:    123738
  * Working dir.:  /local/scratch/mehlhorn/61784
  ***********************************



***************************************
The coordinates will be read from file: start.xyz
***************************************


Your calculation utilizes the geometrical counterpoise correction gCP
Please cite in your paper:
H.Kruse, S. Grimme J.Chem.Phys., 136, (2012), 154101 
   

Your calculation utilizes the atom-pairwise dispersion correction
with the Becke-Johnson damping scheme (D3BJ)


Warning: RI is on but no J-basis has been assigned. Assigning Def2/J (nothing to worry about!)
================================================================================

cite the ECPs for Zr [Def2-ECP] as follows:
Ce-Yb(ecp-28): M. Dolg, H. Stoll, H.Preuss, J. Chem. Phys., 1989, 90, 1730-1734.
Y-Cd(ecp-28), Hf-Hg(ecp-46): D. Andrae,U. Haeussermann, M. Dolg, H. Stoll, H. Preuss, Theor. Chim. Acta, 1990, 77, 123-141.
In-Sb(ecp-28), Tl-Bi(ecp-46): B. Metz, H. Stoll, M. Dolg, J. Chem. Phys., 2000, 113, 2563-2569.
Te-Xe(ecp-28), Po-Rn(ecp-46): K. A. Peterson, D. Figgen, E. Goll, H. Stoll, M. Dolg, J. Chem. Phys., 2003, 119, 11113-11123.
Rb(ecp-28), Cs(ecp-46): T. Leininger, A. Nicklass, W. Kuechle, H. Stoll, M. Dolg, A. Bergner, Chem. Phys. Lett., 1996, 255, 274-280.
Sr(ecp-28), Ba(ecp-46): M. Kaupp, P. V. Schleyer, H. Stoll and H. Preuss, J. Chem. Phys., 1991, 94, 1360-1366.
La(ecp-46): M. Dolg, H. Stoll, A. Savin, H. Preuss, Theor. Chim. Acta, 1989, 75, 173-194.
Lu(ecp-28): X. Cao, M. Dolg, J. Chem. Phys., 2001, 115, 7348-7355.

ECP parameters for Zr [Def2-ECP] have been obtained from:
TURBOMOLE (7.0.2)

----- Orbital basis set information -----
Your calculation utilizes the basis: def2-SV(P)
   F. Weigend and R. Ahlrichs, Phys. Chem. Chem. Phys. 7, 3297 (2005).

----- AuxJ basis set information -----
Your calculation utilizes the auxiliary basis: def2/J
   H-Rn: F. Weigend, Phys. Chem. Chem. Phys. 8, 1057 (2006).
   Fr-Lr: K. Eichkorn, F. Weigend, O. Treutler, R. Ahlrichs; Theor. Chem. Acc. 97, 119 (1997).

================================================================================
                                        WARNINGS
                       Please study these warnings very carefully!
================================================================================


WARNING: Gradients are needed
  ===> : At least TightSCF should be used for SCF convergence

WARNING: Geometry Optimization
  ===> : Switching off AutoStart
         For restart on a previous wavefunction, please use MOREAD

================================================================================
                                       INPUT FILE
================================================================================
NAME = run.inp
|  1> # Geometry optimization for (AlH3)n cluster
|  2> 
|  3> %pal nprocs 24  end
|  4> 
|  5> %geom MaxIter 500 end
|  6> 
|  7> 
|  8> ! PBE def2-SV(P)
|  9> ! RKS	# closed shell for AlH3
| 10> ! D3    #  dispersion correction
| 11> ! gCP(DFT/SV(P))
| 12> ! Freq 	# Frequency analysis to check the stabiltity of the structures
| 13> 
| 14> ! NoPop # population analysis not necessary	
| 15> 
| 16> ! DEFGRID2
| 17> ! NormalSCF
| 18> ! SloppyOpt
| 19> 
| 20> ! SmallPrint
| 21> 
| 22> 
| 23> * xyzFile 0 1 start.xyz # only maingroup elements H and Al so there should be no net spin
| 24> 
| 25>                          ****END OF INPUT****
================================================================================

                       *****************************
                       * Geometry Optimization Run *
                       *****************************

Geometry optimization settings:
Update method            Update   .... BFGS
Choice of coordinates    CoordSys .... (2022) Redundant Internals
Initial Hessian          InHess   .... Almloef's Model
Max. no of cycles        MaxIter  .... 500

Convergence Tolerances:
Energy Change            TolE     ....  8.0000e-05 Eh
Max. Gradient            TolMAXG  ....  5.0000e-03 Eh/bohr
RMS Gradient             TolRMSG  ....  1.0000e-03 Eh/bohr
Max. Displacement        TolMAXD  ....  3.0000e-02 bohr
RMS Displacement         TolRMSD  ....  2.0000e-02 bohr
Strict Convergence                .... False

------------------------------------------------------------------------------
                        ORCA OPTIMIZATION COORDINATE SETUP
------------------------------------------------------------------------------

The optimization will be done in redundant internal coordinates (2022)
Making redundant internal coordinates   ...  (2022 redundants) done
Evaluating the initial hessian          ...  (Almloef) done
Evaluating the coordinates              ...  done
Calculating the B-matrix                .... done
Calculating the G-matrix                .... done
The number of degrees of freedom        ....  620

    -----------------------------------------------------------------
                    Redundant Internal Coordinates


    -----------------------------------------------------------------
         Definition                    Initial Value    Approx d2E/dq
    -----------------------------------------------------------------
      1. B(Zr  2,Zr  1)                  3.4154         0.037555   
      2. B(Zr  3,Zr  0)                  3.3592         0.046161   
      3. B(Zr  4,Zr  1)                  3.3565         0.046619   
      4. B(Zr  4,Zr  3)                  3.4265         0.036051   
      5. B(Zr  5,Zr  0)                  3.4232         0.036489   
      6. B(Zr  5,Zr  2)                  3.4269         0.035990   
      7. B(O   6,Zr  0)                  2.1290         0.374936   
      8. B(O   6,Zr  3)                  2.0861         0.439009   
      9. B(O   6,Zr  5)                  2.1162         0.393059   
     10. B(O   7,Zr  4)                  2.0826         0.444658   
     11. B(O   7,Zr  1)                  2.1341         0.368004   
     12. B(O   7,Zr  2)                  2.1164         0.392774   
     13. B(O   8,Zr  2)                  2.0961         0.423108   
     14. B(O   8,Zr  5)                  2.1125         0.398362   
     15. B(O   8,Zr  1)                  2.1482         0.349410   
     16. B(O   9,Zr  4)                  2.1576         0.337593   
     17. B(O   9,Zr  3)                  2.1104         0.401402   
     18. B(O   9,Zr  0)                  2.1927         0.296699   
     19. B(O  10,Zr  1)                  2.1911         0.298503   
     20. B(O  10,Zr  3)                  2.1591         0.335760   
     21. B(O  10,Zr  4)                  2.1124         0.398565   
     22. B(O  11,Zr  0)                  2.1516         0.345087   
     23. B(O  11,Zr  2)                  2.1228         0.383630   
     24. B(O  11,Zr  5)                  2.1016         0.414724   
     25. B(O  12,Zr  0)                  1.9800         0.648090   
     26. B(O  13,Zr  0)                  1.9738         0.663167   
     27. B(O  14,Zr  0)                  2.0666         0.471471   
     28. B(O  15,Zr  0)                  2.0479         0.505072   
     29. B(O  16,Zr  1)                  2.0674         0.470140   
     30. B(O  17,Zr  1)                  2.0417         0.516772   
     31. B(O  18,Zr  1)                  1.9848         0.636891   
     32. B(O  19,Zr  1)                  1.9740         0.662586   
     33. B(O  20,Zr  2)                  1.9909         0.622635   
     34. B(O  21,Zr  2)                  2.0345         0.530546   
     35. B(O  22,Zr  2)                  1.9906         0.623368   
     36. B(O  23,Zr  2)                  2.0527         0.496309   
     37. B(O  24,Zr  3)                  2.0672         0.470434   
     38. B(O  25,Zr  3)                  1.9804         0.647282   
     39. B(O  26,Zr  3)                  1.9936         0.616655   
     40. B(O  27,Zr  3)                  1.9918         0.620568   
     41. B(O  28,Zr  4)                  1.9901         0.624620   
     42. B(O  29,Zr  4)                  1.9926         0.618747   
     43. B(O  30,Zr  4)                  1.9802         0.647696   
     44. B(O  31,Zr  4)                  2.0724         0.461614   
     45. B(O  32,Zr  5)                  2.0508         0.499648   
     46. B(O  33,Zr  5)                  1.9840         0.638735   
     47. B(O  34,Zr  5)                  2.0427         0.514898   
     48. B(O  35,Zr  5)                  1.9926         0.618848   
     49. B(C  36,O  33)                  1.3001         0.778463   
     50. B(C  36,O  12)                  1.3010         0.776048   
     51. B(C  37,O  25)                  1.2986         0.783010   
     52. B(C  37,O  13)                  1.2988         0.782232   
     53. B(C  38,O  14)                  1.2996         0.779896   
     54. B(C  38,O  21)                  1.3017         0.773992   
     55. B(C  39,O  29)                  1.2943         0.795346   
     56. B(C  39,O  15)                  1.2954         0.792105   
     57. B(C  40,O  34)                  1.3018         0.773635   
     58. B(C  40,O  16)                  1.2997         0.779690   
     59. B(C  41,O  26)                  1.2944         0.795154   
     60. B(C  41,O  17)                  1.2953         0.792506   
     61. B(C  42,O  22)                  1.3007         0.776808   
     62. B(C  42,O  18)                  1.3018         0.773666   
     63. B(C  43,O  19)                  1.2988         0.782182   
     64. B(C  43,O  30)                  1.2988         0.782441   
     65. B(C  44,O  35)                  1.3015         0.774527   
     66. B(C  44,O  20)                  1.3015         0.774674   
     67. B(C  45,O  31)                  1.2965         0.789071   
     68. B(C  45,O  23)                  1.2967         0.788413   
     69. B(C  46,O  32)                  1.2970         0.787530   
     70. B(C  46,O  24)                  1.2968         0.788202   
     71. B(C  47,O  28)                  1.3019         0.773540   
     72. B(C  47,O  27)                  1.3019         0.773439   
     73. B(H  48,C  41)                  1.0855         0.366116   
     74. B(H  49,C  42)                  1.0917         0.357798   
     75. B(H  50,C  38)                  1.0880         0.362802   
     76. B(H  51,C  37)                  1.0901         0.359946   
     77. B(H  52,C  43)                  1.0901         0.359959   
     78. B(H  53,C  47)                  1.0918         0.357710   
     79. B(H  54,C  39)                  1.0854         0.366203   
     80. B(H  55,C  45)                  1.0846         0.367269   
     81. B(H  56,C  40)                  1.0879         0.362949   
     82. B(H  57,C  46)                  1.0851         0.366584   
     83. B(H  58,C  36)                  1.0914         0.358194   
     84. B(H  59,C  44)                  1.0913         0.358322   
     85. B(Al 60,C  37)                  3.6357         0.010000   
     86. B(Al 60,C  46)                  3.5961         0.010000   
     87. B(Al 60,O  24)                  3.5719         0.010000   
     88. B(Al 60,H  57)                  3.5229         0.010000   
     89. B(Al 60,O  12)                  3.3147         0.010000   
     90. B(H  61,C  46)                  3.3419         0.010000   
     91. B(H  61,H  57)                  3.2482         0.010000   
     92. B(H  61,O  25)                  3.1612         0.010000   
     93. B(H  61,H  51)                  3.1308         0.010000   
     94. B(H  61,C  37)                  3.0968         0.010000   
     95. B(H  61,O  24)                  2.8747         0.010000   
     96. B(H  61,Al 60)                  1.5968         0.392196   
     97. B(H  62,C  36)                  3.5640         0.010000   
     98. B(H  62,H  58)                  3.4947         0.010000   
     99. B(H  62,H  51)                  3.2813         0.010000   
    100. B(H  62,C  37)                  3.2807         0.010000   
    101. B(H  62,O  13)                  2.9294         0.010000   
    102. B(H  62,O  12)                  2.8159         0.010000   
    103. B(H  62,Al 60)                  1.5969         0.392012   
    104. B(H  63,O  24)                  3.5987         0.010000   
    105. B(H  63,O  32)                  3.3736         0.010000   
    106. B(H  63,O  12)                  3.2426         0.010000   
    107. B(H  63,C  36)                  3.1197         0.010000   
    108. B(H  63,C  46)                  3.0445         0.010000   
    109. B(H  63,H  58)                  2.9935         0.010000   
    110. B(H  63,H  57)                  2.8103         0.010000   
    111. B(H  63,Al 60)                  1.5968         0.392195   
    112. A(O  14,Zr  0,O  15)           73.2428         0.497188   
    113. A(O   6,Zr  0,O  13)          102.6059         0.501200   
    114. A(O   9,Zr  0,O  14)          134.6533         0.450882   
    115. A(Zr  3,Zr  0,O  11)           97.0253         0.336762   
    116. A(O   6,Zr  0,O  11)           65.2082         0.444548   
    117. A(O   6,Zr  0,O  14)          132.8369         0.470569   
    118. A(Zr  5,Zr  0,O  13)          129.8248         0.361355   
    119. A(O  12,Zr  0,O  15)          140.1400         0.527667   
    120. A(O  11,Zr  0,O  13)          165.7004         0.493533   
    121. A(Zr  3,Zr  0,O  13)           74.3297         0.376241   
    122. A(O   6,Zr  0,O  12)           85.3086         0.499061   
    123. A(Zr  3,Zr  0,Zr  5)           72.7970         0.255808   
    124. A(O   9,Zr  0,O  11)          100.2968         0.426204   
    125. A(O  11,Zr  0,O  14)           68.8619         0.463471   
    126. A(O  11,Zr  0,O  12)           88.4093         0.491433   
    127. A(O   9,Zr  0,O  12)          141.7562         0.477904   
    128. A(O  13,Zr  0,O  15)           82.3002         0.529957   
    129. A(Zr  3,Zr  0,O  14)          163.9997         0.354895   
    130. A(Zr  5,Zr  0,O  12)           70.0638         0.359941   
    131. A(O   9,Zr  0,O  13)           80.0086         0.479934   
    132. A(O  12,Zr  0,O  13)           82.9278         0.555556   
    133. A(O   6,Zr  0,O  15)          134.0893         0.476561   
    134. A(O   9,Zr  0,O  15)           70.5460         0.456565   
    135. A(Zr  5,Zr  0,O   9)           95.6635         0.316025   
    136. A(Zr  3,Zr  0,O  15)          106.7624         0.359071   
    137. A(O   6,Zr  0,O   9)           65.6560         0.432595   
    138. A(Zr  3,Zr  0,O   9)           37.8126         0.328433   
    139. A(Zr  5,Zr  0,O  11)           35.9091         0.323922   
    140. A(Zr  5,Zr  0,O   6)           36.1300         0.328375   
    141. A(O  11,Zr  0,O  15)          111.4143         0.469352   
    142. A(Zr  3,Zr  0,O   6)           36.7203         0.341458   
    143. A(O  12,Zr  0,O  14)           83.2805         0.520885   
    144. A(O  13,Zr  0,O  14)          121.0069         0.523139   
    145. A(Zr  3,Zr  0,O  12)          104.4713         0.374750   
    146. A(Zr  5,Zr  0,O  14)           97.4730         0.341115   
    147. A(Zr  5,Zr  0,O  15)          143.4617         0.345074   
    148. A(Zr  2,Zr  1,O  18)           69.9070         0.360638   
    149. A(O  16,Zr  1,O  17)           73.4997         0.499046   
    150. A(O   8,Zr  1,O  16)           68.8162         0.464287   
    151. A(O   8,Zr  1,O  18)           89.6988         0.490979   
    152. A(O  16,Zr  1,O  19)          120.7522         0.522775   
    153. A(O  10,Zr  1,O  18)          140.3495         0.476905   
    154. A(O  10,Zr  1,O  17)           70.9450         0.458983   
    155. A(O   7,Zr  1,O  18)           84.6483         0.495724   
    156. A(O   7,Zr  1,O  10)           65.6396         0.431617   
    157. A(O   8,Zr  1,O  10)           99.8393         0.427620   
    158. A(Zr  2,Zr  1,O   8)           35.9040         0.326125   
    159. A(O  10,Zr  1,O  19)           79.6979         0.480393   
    160. A(O  10,Zr  1,O  16)          135.7409         0.451147   
    161. A(O   7,Zr  1,O  17)          134.0356         0.476933   
    162. A(O  17,Zr  1,O  18)          140.9089         0.528211   
    163. A(Zr  4,Zr  1,O  17)          107.4604         0.361082   
    164. A(Zr  4,Zr  1,O  10)           37.9102         0.329299   
    165. A(Zr  2,Zr  1,O  10)           96.0134         0.317823   
    166. A(O  18,Zr  1,O  19)           82.5637         0.553627   
    167. A(O   8,Zr  1,O  19)          166.6119         0.494594   
    168. A(O  16,Zr  1,O  18)           83.6112         0.518909   
    169. A(Zr  2,Zr  1,O  19)          130.7079         0.363081   
    170. A(Zr  2,Zr  1,O   7)           36.3550         0.328924   
    171. A(O   7,Zr  1,O  19)          103.3259         0.499382   
    172. A(Zr  2,Zr  1,O  17)          142.6302         0.348088   
    173. A(Zr  2,Zr  1,Zr  4)           73.0408         0.257274   
    174. A(Zr  2,Zr  1,O  16)           96.4938         0.342601   
    175. A(O  17,Zr  1,O  19)           82.5907         0.532160   
    176. A(Zr  4,Zr  1,O  18)          103.0578         0.374261   
    177. A(O   7,Zr  1,O  16)          132.1566         0.468717   
    178. A(Zr  4,Zr  1,O  16)          164.2579         0.355320   
    179. A(O   8,Zr  1,O  17)          110.0409         0.472407   
    180. A(O   7,Zr  1,O   8)           64.9086         0.444048   
    181. A(Zr  4,Zr  1,O   7)           36.7206         0.340957   
    182. A(Zr  4,Zr  1,O   8)           96.7008         0.338018   
    183. A(Zr  4,Zr  1,O  19)           74.6046         0.376827   
    184. A(O  21,Zr  2,O  22)          136.6006         0.528692   
    185. A(O   8,Zr  2,O  20)           90.6809         0.506629   
    186. A(O   7,Zr  2,O   8)           66.1197         0.465273   
    187. A(Zr  1,Zr  2,O  22)           73.9568         0.359322   
    188. A(Zr  5,Zr  2,O  20)           72.5030         0.356659   
    189. A(Zr  5,Zr  2,O   8)           35.6447         0.334249   
    190. A(Zr  1,Zr  2,O  11)           91.7454         0.331193   
    191. A(O  22,Zr  2,O  23)           80.2386         0.522104   
    192. A(Zr  1,Zr  2,O  23)           91.7227         0.345729   
    193. A(O  20,Zr  2,O  23)          132.7305         0.521988   
    194. A(O   8,Zr  2,O  21)          140.9153         0.491771   
    195. A(Zr  1,Zr  2,Zr  5)           68.4932         0.247702   
    196. A(O  21,Zr  2,O  23)           79.5715         0.506583   
    197. A(O   8,Zr  2,O  11)           68.4060         0.463272   
    198. A(Zr  1,Zr  2,O  21)          144.3782         0.349635   
    199. A(O  20,Zr  2,O  21)           83.9126         0.528575   
    200. A(O   7,Zr  2,O  23)           71.1851         0.479111   
    201. A(Zr  5,Zr  2,O   7)           83.7189         0.330154   
    202. A(O  11,Zr  2,O  23)          136.2375         0.477036   
    203. A(Zr  5,Zr  2,O  23)          154.7660         0.343268   
    204. A(O   8,Zr  2,O  23)          128.4553         0.485735   
    205. A(O  11,Zr  2,O  22)          142.0477         0.497581   
    206. A(O  11,Zr  2,O  20)           77.4298         0.497472   
    207. A(Zr  5,Zr  2,O  11)           35.5760         0.328872   
    208. A(Zr  5,Zr  2,O  22)          107.5285         0.356731   
    209. A(O  11,Zr  2,O  21)           72.6422         0.482940   
    210. A(O   7,Zr  2,O  11)           86.5305         0.457023   
    211. A(O   7,Zr  2,O  21)          108.9183         0.485046   
    212. A(O   8,Zr  2,O  22)           80.2284         0.506740   
    213. A(Zr  1,Zr  2,O   7)           36.7092         0.332488   
    214. A(O   7,Zr  2,O  22)          100.1706         0.499765   
    215. A(Zr  1,Zr  2,O  20)          124.6027         0.359250   
    216. A(Zr  5,Zr  2,O  21)          107.0645         0.347137   
    217. A(O   7,Zr  2,O  20)          155.5868         0.499656   
    218. A(O  20,Zr  2,O  22)           82.2800         0.544913   
    219. A(Zr  1,Zr  2,O   8)           36.9418         0.336622   
    220. A(O   6,Zr  3,O  10)           84.2653         0.455195   
    221. A(O   9,Zr  3,O  10)           69.4786         0.447847   
    222. A(Zr  4,Zr  3,O  10)           36.1970         0.321832   
    223. A(O  24,Zr  3,O  25)           81.4090         0.520548   
    224. A(O  26,Zr  3,O  27)           85.3246         0.543455   
    225. A(O   9,Zr  3,O  25)           79.8618         0.505323   
    226. A(Zr  0,Zr  3,O  27)          129.2380         0.371957   
    227. A(O  25,Zr  3,O  27)           81.6119         0.548468   
    228. A(O  24,Zr  3,O  27)          132.2759         0.516451   
    229. A(O   9,Zr  3,O  27)           92.4564         0.501370   
    230. A(O   6,Zr  3,O  27)          157.1057         0.509814   
    231. A(Zr  4,Zr  3,O  27)           71.7926         0.356559   
    232. A(O  10,Zr  3,O  27)           77.6080         0.485036   
    233. A(O   9,Zr  3,O  26)          143.5137         0.500780   
    234. A(O  25,Zr  3,O  26)          135.2881         0.547811   
    235. A(O  24,Zr  3,O  26)           76.4270         0.515839   
    236. A(O  10,Zr  3,O  26)           74.5055         0.484469   
    237. A(O   6,Zr  3,O  26)          103.3083         0.509212   
    238. A(Zr  4,Zr  3,O  26)          109.4487         0.356176   
    239. A(Zr  0,Zr  3,O  26)          140.7810         0.371552   
    240. A(O   6,Zr  3,O   9)           67.8932         0.470298   
    241. A(O  10,Zr  3,O  25)          141.7932         0.488832   
    242. A(O   6,Zr  3,O  25)          105.1644         0.513848   
    243. A(Zr  4,Zr  3,O   9)           37.0714         0.331434   
    244. A(Zr  4,Zr  3,O  25)          106.5931         0.359124   
    245. A(O  10,Zr  3,O  24)          135.5633         0.460970   
    246. A(Zr  0,Zr  3,O   9)           39.5671         0.345386   
    247. A(Zr  4,Zr  3,O  24)          155.9202         0.340300   
    248. A(O   6,Zr  3,O  24)           70.6178         0.484243   
    249. A(O   9,Zr  3,O  24)          127.5052         0.476312   
    250. A(Zr  0,Zr  3,O  10)           93.5385         0.335231   
    251. A(Zr  0,Zr  3,Zr  4)           72.4514         0.255352   
    252. A(Zr  0,Zr  3,O   6)           37.6053         0.350636   
    253. A(Zr  0,Zr  3,O  24)           88.2599         0.354763   
    254. A(Zr  0,Zr  3,O  25)           75.4420         0.374669   
    255. A(Zr  4,Zr  3,O   6)           85.3189         0.336399   
    256. A(Zr  1,Zr  4,Zr  3)           72.3678         0.255724   
    257. A(O   9,Zr  4,O  10)           69.4717         0.447713   
    258. A(O   7,Zr  4,O  10)           67.9604         0.470790   
    259. A(Zr  3,Zr  4,O  10)           37.1291         0.331046   
    260. A(O  10,Zr  4,O  28)           91.7247         0.501316   
    261. A(O   9,Zr  4,O  29)           74.4726         0.485260   
    262. A(O  28,Zr  4,O  30)           81.9116         0.549212   
    263. A(O  30,Zr  4,O  31)           80.7654         0.518765   
    264. A(O  29,Zr  4,O  31)           76.7916         0.514341   
    265. A(O   7,Zr  4,O  31)           70.5222         0.483694   
    266. A(O  28,Zr  4,O  31)          132.9928         0.515251   
    267. A(O  10,Zr  4,O  31)          127.3626         0.474038   
    268. A(O   9,Zr  4,O  31)          134.9749         0.459837   
    269. A(Zr  3,Zr  4,O  31)          155.4108         0.339226   
    270. A(Zr  1,Zr  4,O  31)           88.0835         0.354219   
    271. A(O  29,Zr  4,O  30)          134.8114         0.548229   
    272. A(O  10,Zr  4,O  30)           80.1975         0.504715   
    273. A(O   9,Zr  4,O  30)          142.8018         0.489383   
    274. A(O   7,Zr  4,O  30)          105.0120         0.515140   
    275. A(Zr  3,Zr  4,O  30)          107.4992         0.359163   
    276. A(Zr  1,Zr  4,O  30)           75.2924         0.375350   
    277. A(O  28,Zr  4,O  29)           85.4835         0.544474   
    278. A(O  10,Zr  4,O  29)          143.6138         0.500435   
    279. A(O   7,Zr  4,O  29)          103.6445         0.510753   
    280. A(Zr  3,Zr  4,O  29)          109.1889         0.356381   
    281. A(Zr  1,Zr  4,O  29)          141.3040         0.372402   
    282. A(O   9,Zr  4,O  28)           78.1058         0.486109   
    283. A(O   7,Zr  4,O  28)          156.4787         0.511656   
    284. A(Zr  3,Zr  4,O  28)           71.5867         0.356953   
    285. A(O   7,Zr  4,O   9)           83.4826         0.456709   
    286. A(Zr  1,Zr  4,O  28)          128.5088         0.373008   
    287. A(Zr  3,Zr  4,O   9)           36.1317         0.322119   
    288. A(Zr  1,Zr  4,O   9)           93.2251         0.336086   
    289. A(Zr  3,Zr  4,O   7)           84.9103         0.337116   
    290. A(Zr  1,Zr  4,O   7)           37.7851         0.351982   
    291. A(Zr  1,Zr  4,O  10)           39.5919         0.345548   
    292. A(O  11,Zr  5,O  35)           89.4692         0.504168   
    293. A(O  34,Zr  5,O  35)           83.4837         0.525004   
    294. A(O  33,Zr  5,O  35)           82.3969         0.546800   
    295. A(O  32,Zr  5,O  35)          133.4733         0.522047   
    296. A(O   8,Zr  5,O  35)           78.0615         0.500403   
    297. A(O   6,Zr  5,O  35)          154.7370         0.499157   
    298. A(Zr  2,Zr  5,O  35)           72.0028         0.356290   
    299. A(O  33,Zr  5,O  34)          135.8637         0.528137   
    300. A(O  32,Zr  5,O  34)           79.3545         0.504393   
    301. A(O  11,Zr  5,O  34)          140.8157         0.487242   
    302. A(Zr  0,Zr  5,O  35)          123.5801         0.357124   
    303. A(O  32,Zr  5,O  33)           80.7087         0.525159   
    304. A(O   6,Zr  5,O  34)          110.3732         0.482436   
    305. A(Zr  2,Zr  5,O  34)          106.1372         0.345393   
    306. A(Zr  0,Zr  5,O  34)          145.1848         0.346194   
    307. A(O  11,Zr  5,O  33)           80.5641         0.507151   
    308. A(O   8,Zr  5,O  33)          143.2242         0.503358   
    309. A(O   6,Zr  5,O  33)           99.6648         0.502104   
    310. A(Zr  0,Zr  5,O  33)           74.4366         0.359051   
    311. A(O  11,Zr  5,O  32)          129.4075         0.484542   
    312. A(O   8,Zr  5,O  32)          134.4988         0.480955   
    313. A(O   6,Zr  5,O  32)           71.2337         0.479768   
    314. A(Zr  2,Zr  5,O  32)          154.4661         0.343655   
    315. A(Zr  0,Zr  5,O  32)           92.7023         0.344449   
    316. A(Zr  2,Zr  5,O   6)           83.6455         0.330194   
    317. A(Zr  0,Zr  5,O   6)           36.3844         0.330946   
    318. A(Zr  0,Zr  5,Zr  2)           68.3211         0.246671   
    319. A(O   8,Zr  5,O  34)           72.3321         0.483631   
    320. A(O   8,Zr  5,O  11)           68.4978         0.464772   
    321. A(O   6,Zr  5,O  11)           66.3059         0.463634   
    322. A(Zr  2,Zr  5,O  11)           35.9908         0.333140   
    323. A(Zr  0,Zr  5,O  11)           36.9032         0.333902   
    324. A(O   6,Zr  5,O   8)           86.0271         0.460236   
    325. A(Zr  2,Zr  5,O  33)          108.7310         0.358211   
    326. A(Zr  2,Zr  5,O   8)           35.3263         0.330926   
    327. A(Zr  0,Zr  5,O   8)           90.9414         0.331681   
    328. A(Zr  3,O   6,Zr  5)          146.5982         0.468490   
    329. A(Zr  0,O   6,Zr  5)          107.4856         0.455178   
    330. A(Zr  0,O   6,Zr  3)          105.6744         0.464457   
    331. A(Zr  2,O   7,Zr  4)          147.4083         0.469527   
    332. A(Zr  1,O   7,Zr  4)          105.4943         0.463958   
    333. A(Zr  1,O   7,Zr  2)          106.9358         0.453575   
    334. A(Zr  1,O   8,Zr  2)          107.1542         0.455440   
    335. A(Zr  2,O   8,Zr  5)          109.0291         0.466478   
    336. A(Zr  1,O   8,Zr  5)          129.3046         0.450476   
    337. A(Zr  3,O   9,Zr  4)          106.7969         0.448289   
    338. A(Zr  0,O   9,Zr  4)          134.4057         0.424532   
    339. A(Zr  0,O   9,Zr  3)          102.6203         0.437941   
    340. A(Zr  3,O  10,Zr  4)          106.6739         0.447271   
    341. A(Zr  1,O  10,Zr  4)          102.4979         0.437860   
    342. A(Zr  1,O  10,Zr  3)          134.0405         0.424579   
    343. A(Zr  2,O  11,Zr  5)          108.4332         0.461580   
    344. A(Zr  0,O  11,Zr  5)          107.1876         0.452757   
    345. A(Zr  0,O  11,Zr  2)          128.2851         0.446397   
    346. A(Zr  0,O  12,C  36)          131.1830         0.506592   
    347. A(C  36,O  12,Al 60)          100.2664         0.213156   
    348. A(Zr  0,O  12,Al 60)          119.4123         0.226994   
    349. A(Zr  0,O  13,C  37)          132.2422         0.509526   
    350. A(Zr  0,O  14,C  38)          126.6893         0.478012   
    351. A(Zr  0,O  15,C  39)          141.7509         0.485512   
    352. A(Zr  1,O  16,C  40)          126.6681         0.477740   
    353. A(Zr  1,O  17,C  41)          141.6613         0.487618   
    354. A(Zr  1,O  18,C  42)          129.6317         0.504658   
    355. A(Zr  1,O  19,C  43)          131.9343         0.509436   
    356. A(Zr  2,O  20,C  44)          127.8319         0.502655   
    357. A(Zr  2,O  21,C  38)          136.2480         0.487859   
    358. A(Zr  2,O  22,C  42)          125.5990         0.503023   
    359. A(Zr  2,O  23,C  45)          140.1662         0.483527   
    360. A(C  46,O  24,Al 60)           80.6289         0.189600   
    361. A(Zr  3,O  24,Al 60)          123.4865         0.192627   
    362. A(Zr  3,O  24,C  46)          135.3109         0.478751   
    363. A(Zr  3,O  25,C  37)          130.3639         0.507318   
    364. A(Zr  3,O  26,C  41)          137.9132         0.504198   
    365. A(Zr  3,O  27,C  47)          127.1327         0.502195   
    366. A(Zr  4,O  28,C  47)          127.5393         0.502816   
    367. A(Zr  4,O  29,C  39)          137.8929         0.504539   
    368. A(Zr  4,O  30,C  43)          130.6447         0.507310   
    369. A(Zr  4,O  31,C  45)          136.5977         0.477182   
    370. A(Zr  5,O  32,C  46)          140.3788         0.484026   
    371. A(Zr  5,O  33,C  36)          126.3081         0.505512   
    372. A(Zr  5,O  34,C  40)          136.2216         0.485124   
    373. A(Zr  5,O  35,C  44)          128.4182         0.502067   
    374. A(O  12,C  36,O  33)          127.0022         0.464980   
    375. A(O  33,C  36,H  58)          116.4418         0.364243   
    376. A(O  12,C  36,H  58)          116.5512         0.364050   
    377. A(O  13,C  37,O  25)          127.4996         0.466153   
    378. A(O  25,C  37,Al 60)          101.1126         0.187269   
    379. A(O  13,C  37,Al 60)           81.3632         0.187247   
    380. A(H  51,C  37,Al 60)           86.9510         0.160873   
    381. A(O  25,C  37,H  51)          116.2421         0.364911   
    382. A(O  13,C  37,H  51)          116.2576         0.364849   
    383. A(O  14,C  38,O  21)          129.5562         0.464911   
    384. A(O  21,C  38,H  50)          115.2865         0.364681   
    385. A(O  14,C  38,H  50)          115.1526         0.365156   
    386. A(O  15,C  39,O  29)          129.0757         0.468566   
    387. A(O  29,C  39,H  54)          115.4547         0.366971   
    388. A(O  15,C  39,H  54)          115.4662         0.366714   
    389. A(O  16,C  40,O  34)          129.7158         0.464849   
    390. A(O  34,C  40,H  56)          115.1958         0.364677   
    391. A(O  16,C  40,H  56)          115.0831         0.365164   
    392. A(O  17,C  41,O  26)          129.0095         0.468589   
    393. A(O  26,C  41,H  48)          115.4910         0.366941   
    394. A(O  17,C  41,H  48)          115.4952         0.366731   
    395. A(O  18,C  42,O  22)          126.8712         0.464538   
    396. A(O  22,C  42,H  49)          116.5141         0.364042   
    397. A(O  18,C  42,H  49)          116.6097         0.363790   
    398. A(O  30,C  43,H  52)          116.2675         0.364868   
    399. A(O  19,C  43,H  52)          116.2229         0.364847   
    400. A(O  19,C  43,O  30)          127.5095         0.466086   
    401. A(O  35,C  44,H  59)          116.1899         0.363950   
    402. A(O  20,C  44,H  59)          116.2031         0.363962   
    403. A(O  20,C  44,O  35)          127.6070         0.464399   
    404. A(O  31,C  45,H  55)          114.9797         0.366656   
    405. A(O  23,C  45,H  55)          114.9835         0.366603   
    406. A(O  23,C  45,O  31)          130.0288         0.467486   
    407. A(H  57,C  46,Al 60)           77.4276         0.163588   
    408. A(O  32,C  46,Al 60)          111.3853         0.190692   
    409. A(O  24,C  46,Al 60)           78.5292         0.190712   
    410. A(O  32,C  46,H  57)          114.9412         0.366415   
    411. A(O  24,C  46,H  57)          114.9580         0.366469   
    412. A(O  24,C  46,O  32)          130.0868         0.467295   
    413. A(O  28,C  47,H  53)          116.4135         0.363764   
    414. A(O  27,C  47,H  53)          116.4328         0.363756   
    415. A(O  27,C  47,O  28)          127.1536         0.464155   
    416. A(C  37,Al 60,C  46)           74.2777         0.115456   
    417. A(O  24,Al 60,C  37)           55.7100         0.115167   
    418. A(O  12,Al 60,C  37)           62.0223         0.121408   
    419. A(C  37,Al 60,H  63)          124.6475         0.175553   
    420. A(C  37,Al 60,H  62)           64.4653         0.175543   
    421. A(C  37,Al 60,H  61)           57.8542         0.175553   
    422. A(O  24,Al 60,C  46)           20.8419         0.116043   
    423. A(O  12,Al 60,C  46)           64.5712         0.122493   
    424. A(C  46,Al 60,H  63)           57.2527         0.178451   
    425. A(C  46,Al 60,H  62)          119.7579         0.178442   
    426. A(C  46,Al 60,H  61)           67.9412         0.178451   
    427. A(O  12,Al 60,O  24)           66.7469         0.122127   
    428. A(O  24,Al 60,H  63)           78.0728         0.177474   
    429. A(O  24,Al 60,H  62)          111.7785         0.177464   
    430. A(O  24,Al 60,H  61)           51.8627         0.177474   
    431. A(O  12,Al 60,H  63)           73.4120         0.198575   
    432. A(O  12,Al 60,H  62)           58.0128         0.198564   
    433. A(O  12,Al 60,H  61)          110.1836         0.198575   
    434. A(H  62,Al 60,H  63)          116.9333         0.381617   
    435. A(H  61,Al 60,H  63)          116.6848         0.381648   
    436. A(H  61,Al 60,H  62)          116.2711         0.381617   
    437. D(Zr  5,Zr  2,Zr  1,Zr  4)    107.3218         0.010000   
    438. D(Zr  5,Zr  2,Zr  1,O   7)    109.3752         0.010000   
    439. D(O   7,Zr  2,Zr  1,Zr  4)     -2.0533         0.010000   
    440. D(O   6,Zr  3,Zr  0,Zr  5)      2.5107         0.010000   
    441. D(Zr  4,Zr  3,Zr  0,O   6)   -105.6816         0.010000   
    442. D(Zr  4,Zr  3,Zr  0,Zr  5)   -103.1709         0.010000   
    443. D(O   7,Zr  4,Zr  1,Zr  2)      2.0357         0.010000   
    444. D(Zr  3,Zr  4,Zr  1,Zr  2)   -102.9183         0.010000   
    445. D(O   7,Zr  4,Zr  3,Zr  0)     63.2318         0.010000   
    446. D(Zr  1,Zr  4,Zr  3,O   6)     63.5747         0.010000   
    447. D(Zr  3,Zr  4,Zr  1,O   7)   -104.9540         0.010000   
    448. D(Zr  1,Zr  4,Zr  3,Zr  0)     99.6942         0.010000   
    449. D(Zr  2,Zr  5,Zr  0,O   6)    109.7983         0.010000   
    450. D(O   6,Zr  5,Zr  0,Zr  3)     -2.5460         0.010000   
    451. D(Zr  2,Zr  5,Zr  0,Zr  3)    107.2523         0.010000   
    452. D(O   6,Zr  5,Zr  2,Zr  1)    -69.7093         0.010000   
    453. D(Zr  0,Zr  5,Zr  2,Zr  1)   -103.8749         0.010000   
    454. D(Zr  0,Zr  5,Zr  2,O   7)    -69.3123         0.010000   
    455. D(Zr  0,O   6,Zr  5,Zr  2)    -61.6117         0.010000   
    456. D(Zr  5,O   6,Zr  3,Zr  0)   -172.9369         0.010000   
    457. D(Zr  0,O   6,Zr  3,O   9)     33.2621         0.010000   
    458. D(Zr  0,O   6,Zr  3,Zr  4)     67.0793         0.010000   
    459. D(Zr  3,O   6,Zr  0,O   9)    -32.4669         0.010000   
    460. D(Zr  3,O   6,Zr  5,Zr  0)    172.8698         0.010000   
    461. D(Zr  0,O   6,Zr  5,O   8)    -97.0086         0.010000   
    462. D(Zr  3,O   6,Zr  0,Zr  5)   -175.9302         0.010000   
    463. D(Zr  5,O   6,Zr  0,Zr  3)    175.9302         0.010000   
    464. D(Zr  1,O   7,Zr  2,Zr  5)    -62.0045         0.010000   
    465. D(Zr  2,O   7,Zr  1,O   8)     29.2324         0.010000   
    466. D(Zr  4,O   7,Zr  1,Zr  2)   -176.7141         0.010000   
    467. D(Zr  2,O   7,Zr  1,Zr  4)    176.7141         0.010000   
    468. D(Zr  2,O   7,Zr  4,Zr  1)   -174.1573         0.010000   
    469. D(Zr  1,O   7,Zr  4,O   9)    103.8734         0.010000   
    470. D(Zr  1,O   7,Zr  4,Zr  3)     67.5765         0.010000   
    471. D(Zr  4,O   7,Zr  2,Zr  1)    174.1143         0.010000   
    472. D(Zr  1,O   7,Zr  2,O   8)    -29.7156         0.010000   
    473. D(Zr  2,O   8,Zr  5,Zr  0)     48.5381         0.010000   
    474. D(Zr  1,O   8,Zr  5,Zr  2)   -133.2782         0.010000   
    475. D(Zr  1,O   8,Zr  5,Zr  0)    -84.7401         0.010000   
    476. D(Zr  5,O   8,Zr  2,Zr  1)   -143.8733         0.010000   
    477. D(Zr  1,O   8,Zr  2,O   7)     29.5389         0.010000   
    478. D(Zr  1,O   8,Zr  2,Zr  5)    143.8733         0.010000   
    479. D(Zr  5,O   8,Zr  1,Zr  2)    133.9214         0.010000   
    480. D(Zr  2,O   8,Zr  1,O   7)    -29.5806         0.010000   
    481. D(Zr  2,O   8,Zr  1,Zr  4)    -48.4632         0.010000   
    482. D(Zr  3,O   9,Zr  4,Zr  1)    -53.7217         0.010000   
    483. D(Zr  0,O   9,Zr  4,Zr  3)    127.9610         0.010000   
    484. D(Zr  0,O   9,Zr  4,Zr  1)     74.2393         0.010000   
    485. D(Zr  4,O   9,Zr  3,Zr  0)    144.7460         0.010000   
    486. D(Zr  0,O   9,Zr  3,O   6)    -31.6969         0.010000   
    487. D(Zr  0,O   9,Zr  3,Zr  4)   -144.7460         0.010000   
    488. D(Zr  4,O   9,Zr  0,Zr  3)   -129.3326         0.010000   
    489. D(Zr  3,O   9,Zr  0,O   6)     31.5692         0.010000   
    490. D(Zr  3,O   9,Zr  0,Zr  5)     52.2244         0.010000   
    491. D(Zr  1,O  10,Zr  4,O   7)    -31.9691         0.010000   
    492. D(Zr  1,O  10,Zr  4,Zr  3)   -144.0649         0.010000   
    493. D(Zr  4,O  10,Zr  3,Zr  0)    -53.4140         0.010000   
    494. D(Zr  1,O  10,Zr  3,Zr  4)    127.1501         0.010000   
    495. D(Zr  1,O  10,Zr  3,Zr  0)     73.7361         0.010000   
    496. D(Zr  4,O  10,Zr  1,Zr  2)     52.2200         0.010000   
    497. D(Zr  3,O  10,Zr  1,Zr  4)   -128.5491         0.010000   
    498. D(Zr  3,O  10,Zr  4,Zr  1)    144.0649         0.010000   
    499. D(Zr  3,O  10,Zr  1,Zr  2)    -76.3291         0.010000   
    500. D(Zr  2,O  11,Zr  5,Zr  0)   -141.8787         0.010000   
    501. D(Zr  0,O  11,Zr  5,Zr  2)    141.8787         0.010000   
    502. D(Zr  5,O  11,Zr  2,Zr  1)     47.6975         0.010000   
    503. D(Zr  0,O  11,Zr  2,Zr  5)   -131.2929         0.010000   
    504. D(Zr  0,O  11,Zr  2,Zr  1)    -83.5954         0.010000   
    505. D(Zr  5,O  11,Zr  0,Zr  3)    -47.2911         0.010000   
    506. D(Zr  0,O  11,Zr  5,O   6)     28.3914         0.010000   
    507. D(Zr  2,O  11,Zr  0,Zr  5)    131.7449         0.010000   
    508. D(Zr  2,O  11,Zr  0,Zr  3)     84.4538         0.010000   
    509. D(Al 60,O  12,Zr  0,Zr  3)    -43.9863         0.010000   
    510. D(C  36,O  12,Zr  0,Zr  5)     30.6699         0.010000   
    511. D(C  36,O  12,Zr  0,Zr  3)     95.9280         0.010000   
    512. D(C  37,O  13,Zr  0,Zr  5)    -54.1321         0.010000   
    513. D(C  37,O  13,Zr  0,Zr  3)     -3.4703         0.010000   
    514. D(C  38,O  14,Zr  0,Zr  5)     74.1857         0.010000   
    515. D(C  38,O  14,Zr  0,Zr  3)     22.8475         0.010000   
    516. D(C  39,O  15,Zr  0,Zr  5)     49.7554         0.010000   
    517. D(C  39,O  15,Zr  0,Zr  3)    -33.7948         0.010000   
    518. D(C  40,O  16,Zr  1,Zr  4)     27.7091         0.010000   
    519. D(C  40,O  16,Zr  1,Zr  2)     75.0009         0.010000   
    520. D(C  41,O  17,Zr  1,Zr  4)    -32.0478         0.010000   
    521. D(C  41,O  17,Zr  1,Zr  2)     52.6768         0.010000   
    522. D(C  42,O  18,Zr  1,Zr  4)    100.3867         0.010000   
    523. D(C  42,O  18,Zr  1,Zr  2)     34.1953         0.010000   
    524. D(C  43,O  19,Zr  1,Zr  4)     -0.2942         0.010000   
    525. D(C  43,O  19,Zr  1,Zr  2)    -50.7978         0.010000   
    526. D(C  44,O  20,Zr  2,Zr  1)    -19.0278         0.010000   
    527. D(C  44,O  20,Zr  2,Zr  5)     27.7762         0.010000   
    528. D(C  38,O  21,Zr  2,Zr  5)      1.8264         0.010000   
    529. D(C  38,O  21,Zr  2,Zr  1)     78.5281         0.010000   
    530. D(C  42,O  22,Zr  2,Zr  5)     87.0548         0.010000   
    531. D(C  42,O  22,Zr  2,Zr  1)     26.4525         0.010000   
    532. D(C  45,O  23,Zr  2,Zr  5)      2.2267         0.010000   
    533. D(C  45,O  23,Zr  2,Zr  1)     39.4274         0.010000   
    534. D(Al 60,O  24,Zr  3,Zr  0)     44.4253         0.010000   
    535. D(C  46,O  24,Zr  3,Zr  4)    -32.4349         0.010000   
    536. D(C  46,O  24,Zr  3,Zr  0)    -68.6009         0.010000   
    537. D(C  37,O  25,Zr  3,Zr  4)    -68.4820         0.010000   
    538. D(C  37,O  25,Zr  3,Zr  0)     -2.2126         0.010000   
    539. D(C  41,O  26,Zr  3,Zr  4)     29.0073         0.010000   
    540. D(C  41,O  26,Zr  3,Zr  0)    -56.8031         0.010000   
    541. D(C  47,O  27,Zr  3,Zr  4)    -31.2957         0.010000   
    542. D(C  47,O  27,Zr  3,Zr  0)     15.9825         0.010000   
    543. D(C  47,O  28,Zr  4,Zr  3)    -31.3020         0.010000   
    544. D(C  47,O  28,Zr  4,Zr  1)     16.4085         0.010000   
    545. D(C  39,O  29,Zr  4,Zr  3)     29.4762         0.010000   
    546. D(C  39,O  29,Zr  4,Zr  1)    -56.0189         0.010000   
    547. D(C  43,O  30,Zr  4,Zr  3)    -66.9529         0.010000   
    548. D(C  43,O  30,Zr  4,Zr  1)     -1.2282         0.010000   
    549. D(C  45,O  31,Zr  4,Zr  3)    -27.7360         0.010000   
    550. D(C  45,O  31,Zr  4,Zr  1)    -64.4646         0.010000   
    551. D(C  46,O  32,Zr  5,Zr  2)     -3.0189         0.010000   
    552. D(C  46,O  32,Zr  5,Zr  0)     37.5920         0.010000   
    553. D(C  36,O  33,Zr  5,Zr  2)     83.5730         0.010000   
    554. D(C  36,O  33,Zr  5,Zr  0)     23.5300         0.010000   
    555. D(C  40,O  34,Zr  5,Zr  2)      0.4377         0.010000   
    556. D(C  40,O  34,Zr  5,Zr  0)     75.5165         0.010000   
    557. D(C  44,O  35,Zr  5,Zr  2)     28.1142         0.010000   
    558. D(C  44,O  35,Zr  5,Zr  0)    -18.8942         0.010000   
    559. D(H  58,C  36,O  33,Zr  5)    165.8768         0.055903   
    560. D(O  12,C  36,O  33,Zr  5)    -13.3006         0.055903   
    561. D(H  58,C  36,O  12,Zr  0)    154.0277         0.067693   
    562. D(O  33,C  36,O  12,Al 60)    118.4498         0.067693   
    563. D(O  33,C  36,O  12,Zr  0)    -26.7957         0.067693   
    564. D(H  51,C  37,O  25,Zr  3)   -178.9202         0.065131   
    565. D(O  13,C  37,O  25,Zr  3)      0.7479         0.065131   
    566. D(H  51,C  37,O  13,Zr  0)   -176.9281         0.064985   
    567. D(O  25,C  37,O  13,Zr  0)      3.4038         0.064985   
    568. D(H  50,C  38,O  21,Zr  2)    145.1280         0.045817   
    569. D(O  14,C  38,O  21,Zr  2)    -35.7022         0.045817   
    570. D(H  50,C  38,O  14,Zr  0)    164.7305         0.046600   
    571. D(O  21,C  38,O  14,Zr  0)    -14.4402         0.046600   
    572. D(H  54,C  39,O  29,Zr  4)   -174.5012         0.048686   
    573. D(O  15,C  39,O  29,Zr  4)      6.2053         0.048686   
    574. D(H  54,C  39,O  15,Zr  0)    177.1005         0.048244   
    575. D(O  29,C  39,O  15,Zr  0)     -3.6061         0.048244   
    576. D(H  56,C  40,O  34,Zr  5)    146.0274         0.045770   
    577. D(O  16,C  40,O  34,Zr  5)    -34.8679         0.045770   
    578. D(H  56,C  40,O  16,Zr  1)    164.1371         0.046572   
    579. D(O  34,C  40,O  16,Zr  1)    -14.9684         0.046572   
    580. D(H  48,C  41,O  26,Zr  3)   -173.8191         0.048660   
    581. D(O  17,C  41,O  26,Zr  3)      6.9747         0.048660   
    582. D(H  48,C  41,O  17,Zr  1)    175.4657         0.048299   
    583. D(O  26,C  41,O  17,Zr  1)     -5.3281         0.048299   
    584. D(H  49,C  42,O  22,Zr  2)    164.3503         0.046189   
    585. D(O  18,C  42,O  22,Zr  2)    -14.7974         0.046189   
    586. D(H  49,C  42,O  18,Zr  1)    151.0665         0.045774   
    587. D(O  22,C  42,O  18,Zr  1)    -29.7865         0.045774   
    588. D(H  52,C  43,O  30,Zr  4)   -178.5466         0.046940   
    589. D(O  19,C  43,O  30,Zr  4)      1.5785         0.046940   
    590. D(H  52,C  43,O  19,Zr  1)    179.6469         0.046905   
    591. D(O  30,C  43,O  19,Zr  1)     -0.4782         0.046905   
    592. D(H  59,C  44,O  35,Zr  5)    159.2800         0.045888   
    593. D(O  20,C  44,O  35,Zr  5)    -20.7557         0.045888   
    594. D(H  59,C  44,O  20,Zr  2)    159.7295         0.045907   
    595. D(O  35,C  44,O  20,Zr  2)    -20.2347         0.045907   
    596. D(H  55,C  45,O  31,Zr  4)   -166.0907         0.047832   
    597. D(O  23,C  45,O  31,Zr  4)     15.0085         0.047832   
    598. D(H  55,C  45,O  23,Zr  2)   -176.6044         0.047743   
    599. D(O  31,C  45,O  23,Zr  2)      2.2964         0.047743   
    600. D(H  57,C  46,O  32,Zr  5)   -177.7064         0.065981   
    601. D(O  24,C  46,O  32,Zr  5)      0.8443         0.065981   
    602. D(H  57,C  46,O  24,Zr  3)   -160.9153         0.073937   
    603. D(O  32,C  46,O  24,Al 60)   -108.3926         0.073937   
    604. D(O  32,C  46,O  24,Zr  3)     20.5343         0.073937   
    605. D(H  53,C  47,O  28,Zr  4)   -157.1706         0.045758   
    606. D(O  27,C  47,O  28,Zr  4)     22.8229         0.045758   
    607. D(H  53,C  47,O  27,Zr  3)   -156.9806         0.045744   
    608. D(O  28,C  47,O  27,Zr  3)     23.0258         0.045744   
    609. D(H  62,Al 60,C  46,O  24)    -72.5078         0.010000   
    610. D(H  61,Al 60,C  46,O  24)     36.0612         0.010000   
    611. D(H  62,Al 60,C  37,O  13)     42.7201         0.010000   
    612. D(H  61,Al 60,C  37,O  25)    -38.9883         0.010000   
    613. D(H  61,Al 60,C  37,O  13)   -165.6914         0.010000   
    614. D(H  62,Al 60,O  24,Zr  3)    -22.0841         0.010000   
    615. D(H  61,Al 60,O  24,C  46)   -136.0823         0.010000   
    616. D(H  61,Al 60,O  24,Zr  3)     84.9119         0.010000   
    617. D(H  62,Al 60,O  12,Zr  0)    -85.5747         0.010000   
    618. D(H  61,Al 60,C  46,O  32)    164.8310         0.010000   
    619. D(H  61,Al 60,O  12,C  36)   -127.0178         0.010000   
    620. D(H  61,Al 60,O  12,Zr  0)     23.4761         0.010000   
    -----------------------------------------------------------------

Number of atoms                         .... 64
Number of degrees of freedom            .... 620


         *************************************************************
         *                GEOMETRY OPTIMIZATION CYCLE   1            *
         *************************************************************
---------------------------------
CARTESIAN COORDINATES (ANGSTROEM)
---------------------------------
  Zr    -0.476539    1.967865    1.586052
  Zr     0.471582   -2.007221   -1.445823
  Zr     1.772727   -1.152367    1.594058
  Zr    -1.781780    1.303626   -1.437071
  Zr     1.628355    1.131380   -1.723574
  Zr    -1.651980   -1.245964    1.674709
  O     -1.493391    0.477031    0.456402
  O      1.475418   -0.453639   -0.381380
  O      0.067821   -1.939849    0.663019
  O      0.017777    1.958627   -0.550201
  O     -0.144126    0.018506   -2.009833
  O      0.027218   -0.058236    2.106139
  O     -2.014724    1.845556    2.826846
  O     -1.379266    3.628811    1.018481
  O      0.626395    1.898945    3.332423
  O      1.201764    3.097895    1.269432
  O     -0.489760   -3.725009   -0.813975
  O     -1.279565   -2.109391   -2.490557
  O      2.114961   -3.060707   -1.086896
  O      1.248632   -1.893442   -3.256895
  O      1.237048   -1.976604    3.325398
  O      2.355098    0.406534    2.764489
  O      2.414343   -2.999407    1.220758
  O      3.599423   -0.724570    0.761214
  O     -3.614339    1.038520   -0.517859
  O     -2.226475    3.205478   -1.109824
  O     -2.610674   -0.188097   -2.467614
  O     -1.269276    2.032549   -3.218495
  O      0.971606    2.594248   -2.902176
  O      2.451027    2.587252   -0.639926
  O      2.037501    0.288550   -3.468119
  O      3.520126    0.397266   -1.302729
  O     -3.533080   -0.677126    1.088318
  O     -2.272759   -0.405402    3.361220
  O     -2.202337   -2.861885    0.552938
  O     -0.968419   -2.635285    2.928903
  C     -2.438812    0.866804    3.571671
  C     -1.993579    3.958027   -0.077506
  C      1.763770    1.295459    3.509198
  C      2.175130    3.260809    0.430317
  C     -1.588552   -3.789994   -0.122826
  C     -2.304343   -1.392838   -2.828373
  C      2.577110   -3.520255    0.040038
  C      1.826573   -0.920174   -3.893865
  C      0.153470   -2.647738    3.588576
  C      4.106677   -0.174086   -0.297583
  C     -4.120547    0.162941    0.293742
  C     -0.170036    2.659445   -3.524482
  H     -3.010427   -1.873760   -3.498037
  H      3.175364   -4.431996   -0.012205
  H      2.306699    1.585626    4.406249
  H     -2.360407    4.982927   -0.135565
  H      2.172807   -1.143481   -4.903116
  H     -0.209814    3.311556   -4.399254
  H      2.861460    4.068910    0.662847
  H      5.188898   -0.211398   -0.359534
  H     -2.074551   -4.763249   -0.119733
  H     -5.204958    0.144472    0.329043
  H     -3.005773    1.142079    4.462755
  H      0.189896   -3.297482    4.464673
  Al    -4.901241    3.239771    1.983539
  H     -4.999853    3.385473    0.396502
  H     -3.738453    4.068494    2.698514
  H     -5.248811    1.806259    2.594996

----------------------------
CARTESIAN COORDINATES (A.U.)
----------------------------
  NO LB      ZA    FRAG     MASS         X           Y           Z
   0 Zr   12.0000*   0    91.220   -0.900529    3.718726    2.997204
   1 Zr   12.0000*   0    91.220    0.891161   -3.793097   -2.732209
   2 Zr   12.0000*   0    91.220    3.349969   -2.177659    3.012333
   3 Zr   12.0000*   0    91.220   -3.367076    2.463496   -2.715671
   4 Zr   12.0000*   0    91.220    3.077146    2.137997   -3.257084
   5 Zr   12.0000*   0    91.220   -3.121790   -2.354530    3.164741
   6 O     8.0000    0    15.999   -2.822100    0.901458    0.862474
   7 O     8.0000    0    15.999    2.788135   -0.857254   -0.720704
   8 O     8.0000    0    15.999    0.128163   -3.665783    1.252925
   9 O     8.0000    0    15.999    0.033594    3.701268   -1.039729
  10 O     8.0000    0    15.999   -0.272359    0.034972   -3.798035
  11 O     8.0000    0    15.999    0.051435   -0.110050    3.980026
  12 O     8.0000    0    15.999   -3.807277    3.487595    5.341965
  13 O     8.0000    0    15.999   -2.606434    6.857459    1.924650
  14 O     8.0000    0    15.999    1.183714    3.588486    6.297367
  15 O     8.0000    0    15.999    2.271005    5.854173    2.398879
  16 O     8.0000    0    15.999   -0.925512   -7.039247   -1.538190
  17 O     8.0000    0    15.999   -2.418028   -3.986171   -4.706470
  18 O     8.0000    0    15.999    3.996698   -5.783897   -2.053936
  19 O     8.0000    0    15.999    2.359573   -3.578087   -6.154639
  20 O     8.0000    0    15.999    2.337682   -3.735240    6.284091
  21 O     8.0000    0    15.999    4.450490    0.768238    5.224127
  22 O     8.0000    0    15.999    4.562446   -5.668058    2.306899
  23 O     8.0000    0    15.999    6.801923   -1.369240    1.438485
  24 O     8.0000    0    15.999   -6.830110    1.962518   -0.978613
  25 O     8.0000    0    15.999   -4.207429    6.057476   -2.097264
  26 O     8.0000    0    15.999   -4.933460   -0.355453   -4.663114
  27 O     8.0000    0    15.999   -2.398584    3.840960   -6.082074
  28 O     8.0000    0    15.999    1.836069    4.902419   -5.484317
  29 O     8.0000    0    15.999    4.631769    4.889198   -1.209285
  30 O     8.0000    0    15.999    3.850319    0.545281   -6.553796
  31 O     8.0000    0    15.999    6.652075    0.750724   -2.461801
  32 O     8.0000    0    15.999   -6.676553   -1.279582    2.056623
  33 O     8.0000    0    15.999   -4.294893   -0.766098    6.351786
  34 O     8.0000    0    15.999   -4.161814   -5.408180    1.044902
  35 O     8.0000    0    15.999   -1.830046   -4.979966    5.534824
  36 C     6.0000    0    12.011   -4.608687    1.638022    6.749480
  37 C     6.0000    0    12.011   -3.767318    7.479587   -0.146466
  38 C     6.0000    0    12.011    3.333043    2.448064    6.631424
  39 C     6.0000    0    12.011    4.110399    6.162035    0.813181
  40 C     6.0000    0    12.011   -3.001928   -7.162052   -0.232108
  41 C     6.0000    0    12.011   -4.354578   -2.632083   -5.344851
  42 C     6.0000    0    12.011    4.870032   -6.652319    0.075661
  43 C     6.0000    0    12.011    3.451723   -1.738877   -7.358338
  44 C     6.0000    0    12.011    0.290017   -5.003500    6.781426
  45 C     6.0000    0    12.011    7.760495   -0.328975   -0.562351
  46 C     6.0000    0    12.011   -7.786705    0.307915    0.555091
  47 C     6.0000    0    12.011   -0.321322    5.025624   -6.660307
  48 H     1.0000    0     1.008   -5.688883   -3.540894   -6.610332
  49 H     1.0000    0     1.008    6.000568   -8.375260   -0.023064
  50 H     1.0000    0     1.008    4.359030    2.996399    8.326603
  51 H     1.0000    0     1.008   -4.460522    9.416367   -0.256180
  52 H     1.0000    0     1.008    4.106010   -2.160867   -9.265547
  53 H     1.0000    0     1.008   -0.396490    6.257933   -8.313385
  54 H     1.0000    0     1.008    5.407376    7.689126    1.252599
  55 H     1.0000    0     1.008    9.805595   -0.399485   -0.679420
  56 H     1.0000    0     1.008   -3.920333   -9.001236   -0.226263
  57 H     1.0000    0     1.008   -9.835945    0.273012    0.621801
  58 H     1.0000    0     1.008   -5.680087    2.158216    8.433384
  59 H     1.0000    0     1.008    0.358852   -6.231337    8.437009
  60 Al   13.0000    0    26.982   -9.262003    6.122280    3.748345
  61 H     1.0000    0     1.008   -9.448353    6.397617    0.749280
  62 H     1.0000    0     1.008   -7.064653    7.688340    5.099452
  63 H     1.0000    0     1.008   -9.918816    3.413336    4.903832
* core charge reduced due to ECP

--------------------------------
INTERNAL COORDINATES (ANGSTROEM)
--------------------------------
 Zr     0   0   0     0.000000000000     0.00000000     0.00000000
 Zr     1   0   0     5.088467867500     0.00000000     0.00000000
 Zr     2   1   0     3.415351657127    49.08984236     0.00000000
 Zr     1   2   3     3.359187306167    51.80817122   178.07926270
 Zr     2   1   3     3.356498330105    51.90549172   259.11237489
 Zr     1   2   3     3.423188247136    49.15567856   278.60487618
 O      4   1   2     2.086064811787    37.60529171    53.64254392
 O      5   2   1     2.082584606527    37.78507692    52.92011271
 O      3   2   1     2.096107456883    36.94182567    75.09611390
 O      4   1   2     2.110443157553    39.56711281   286.55789685
 O      5   2   1     2.112373441117    39.59191048   286.14537600
 O      6   1   2     2.101555533669    36.90324711    76.24153274
 O      1   2   3     1.980035992499   118.02600895   264.72230584
 O      1   2   3     1.973776120402   124.83844042   163.15326768
 O      1   2   3     2.066645747065   112.21002246   358.97515722
 O      1   2   3     2.047905747279   100.73358813    75.11388344
 O      2   1   3     2.067415340543   112.35496310    78.78130546
 O      2   1   3     2.041672342266   100.61273825   155.16688073
 O      2   1   3     1.984780937941   117.46274349   344.29931468
 O      2   1   3     1.974014720192   125.09748791   243.52332749
 O      3   2   1     1.990943530000   124.60266098   101.78302452
 O      3   2   1     2.034511515893   144.37820718   323.90673504
 O      3   2   1     1.990622854808    73.95676886   170.17772659
 O      3   2   1     2.052670239506    91.72267910   249.50817240
 O      4   1   2     2.067245216017    88.25992393   113.33371934
 O      4   1   2     1.980375584790    75.44201718   194.90864010
 O      4   1   2     1.993570338828   140.78098677    47.44818539
 O      4   1   2     1.991848489884   129.23802912   260.91196831
 O      5   2   1     1.990076948600   128.50880919   260.53374259
 O      5   2   1     1.992648351210   141.30400082    46.87538474
 O      5   2   1     1.980201574310    75.29240181   193.78444301
 O      5   2   1     2.072397448201    88.08350348   112.83015394
 O      6   1   2     2.050845160304    92.70227661   250.83646576
 O      6   1   2     1.983993981156    74.43660159   171.26051516
 O      6   1   2     2.042661166702   145.18478675   326.00063535
 O      6   1   2     1.992604241233   123.58014184   101.73344411
 C     34   6   1     1.300142271316   126.30811282    23.52997823
 C     26   4   1     1.298556783240   130.36391273   357.78735181
 C     15   1   2     1.299641584881   126.68928192    25.40270917
 C     30   5   2     1.294301805073   137.89289295   303.98111858
 C     17   2   1     1.299713245034   126.66810160    26.74866911
 C     27   4   1     1.294367369212   137.91321032   303.19690564
 C     23   3   2     1.300721616238   125.59902385    26.45246714
 C     31   5   2     1.298754593888   130.64467405   358.77178752
 C     21   3   2     1.301470110332   127.83188045   340.97223648
 C     32   5   2     1.296457683378   136.59768092   295.53542299
 C     25   4   1     1.296757713606   135.31091663   291.39908568
 C     29   5   2     1.301868907527   127.53927892    16.40845637
 H     42  27   4     1.085490253967   115.49100122   186.18094499
 H     43  23   3     1.091745790785   116.51409021   164.35031325
 H     39  15   1     1.087965207838   115.15264570   164.73054285
 H     38  26   4     1.090116197845   116.24212169   181.07980573
 H     44  31   5     1.090106682918   116.26748530   181.45341597
 H     48  29   5     1.091812787683   116.41352704   202.82936262
 H     40  30   5     1.085424897410   115.45471986   185.49878525
 H     46  32   5     1.084633870863   114.97969667   193.90928501
 H     41  17   2     1.087855091310   115.08306944   164.13710209
 H     47  25   4     1.085142419109   114.95803684   199.08468033
 H     37  34   6     1.091444553135   116.44184975   165.87678868
 H     45  21   3     1.091347055910   116.20311583   159.72950388
 Al    13   1   2     3.314661748371   119.41226994   261.88795804
 H     61  13   1     1.596758872213   110.18363177    23.47614544
 H     61  13   1     1.596886304845    58.01283909   274.42528019
 H     61  13   1     1.596759695956    73.41203596   136.41427556

---------------------------
INTERNAL COORDINATES (A.U.)
---------------------------
 Zr     0   0   0     0.000000000000     0.00000000     0.00000000
 Zr     1   0   0     9.615810710833     0.00000000     0.00000000
 Zr     2   1   0     6.454079283004    49.08984236     0.00000000
 Zr     1   2   3     6.347944041201    51.80817122   178.07926270
 Zr     2   1   3     6.342862612863    51.90549172   259.11237489
 Zr     1   2   3     6.468888291945    49.15567856   278.60487618
 O      4   1   2     3.942091191887    37.60529171    53.64254392
 O      5   2   1     3.935514557056    37.78507692    52.92011271
 O      3   2   1     3.961069040778    36.94182567    75.09611390
 O      4   1   2     3.988159588983    39.56711281   286.55789685
 O      5   2   1     3.991807296280    39.59191048   286.14537600
 O      6   1   2     3.971364413861    36.90324711    76.24153274
 O      1   2   3     3.741725761131   118.02600895   264.72230584
 O      1   2   3     3.729896317233   124.83844042   163.15326768
 O      1   2   3     3.905394477787   112.21002246   358.97515722
 O      1   2   3     3.869981010441   100.73358813    75.11388344
 O      2   1   3     3.906848798694   112.35496310    78.78130546
 O      2   1   3     3.858201582085   100.61273825   155.16688073
 O      2   1   3     3.750692408536   117.46274349   344.29931468
 O      2   1   3     3.730347205492   125.09748791   243.52332749
 O      3   2   1     3.762338019803   124.60266098   101.78302452
 O      3   2   1     3.844669581346   144.37820718   323.90673504
 O      3   2   1     3.761732031511    73.95676886   170.17772659
 O      3   2   1     3.878984595917    91.72267910   249.50817240
 O      4   1   2     3.906527309931    88.25992393   113.33371934
 O      4   1   2     3.742367497557    75.44201718   194.90864010
 O      4   1   2     3.767301969094   140.78098677    47.44818539
 O      4   1   2     3.764048146145   129.23802912   260.91196831
 O      5   2   1     3.760700418283   128.50880919   260.53374259
 O      5   2   1     3.765559664997   141.30400082    46.87538474
 O      5   2   1     3.742038665405    75.29240181   193.78444301
 O      5   2   1     3.916263617738    88.08350348   112.83015394
 O      6   1   2     3.875535696052    92.70227661   250.83646576
 O      6   1   2     3.749205275733    74.43660159   171.26051516
 O      6   1   2     3.860070189463   145.18478675   326.00063535
 O      6   1   2     3.765476309219   123.58014184   101.73344411
 C     34   6   1     2.456912827922   126.30811282    23.52997823
 C     26   4   1     2.453916689669   130.36391273   357.78735181
 C     15   1   2     2.455966667680   126.68928192    25.40270917
 C     30   5   2     2.445875946227   137.89289295   303.98111858
 C     17   2   1     2.456102085745   126.66810160    26.74866911
 C     27   4   1     2.445999844495   137.91321032   303.19690564
 C     23   3   2     2.458007631162   125.59902385    26.45246714
 C     31   5   2     2.454290497619   130.64467405   358.77178752
 C     21   3   2     2.459422080012   127.83188045   340.97223648
 C     32   5   2     2.449949965802   136.59768092   295.53542299
 C     25   4   1     2.450516940765   135.31091663   291.39908568
 C     29   5   2     2.460175697493   127.53927892    16.40845637
 H     42  27   4     2.051279301038   115.49100122   186.18094499
 H     43  23   3     2.063100552445   116.51409021   164.35031325
 H     39  15   1     2.055956286048   115.15264570   164.73054285
 H     38  26   4     2.060021068078   116.24212169   181.07980573
 H     44  31   5     2.060003087471   116.26748530   181.45341597
 H     48  29   5     2.063227158234   116.41352704   202.82936262
 H     40  30   5     2.051155795045   115.45471986   185.49878525
 H     46  32   5     2.049660971507   114.97969667   193.90928501
 H     41  17   2     2.055748195967   115.08306944   164.13710209
 H     47  25   4     2.050621988417   114.95803684   199.08468033
 H     37  34   6     2.062531295785   116.44184975   165.87678868
 H     45  21   3     2.062347052731   116.20311583   159.72950388
 Al    13   1   2     6.263802931005   119.41226994   261.88795804
 H     61  13   1     3.017436970392   110.18363177    23.47614544
 H     61  13   1     3.017677783167    58.01283909   274.42528019
 H     61  13   1     3.017438527039    73.41203596   136.41427556

---------------------
BASIS SET INFORMATION
---------------------
There are 5 groups of distinct atoms

 Group   1 Type Zr  : 7s6p5d contracted to 5s3p2d pattern {31111/411/41}
 Group   2 Type O   : 7s4p1d contracted to 3s2p1d pattern {511/31/1}
 Group   3 Type C   : 7s4p1d contracted to 3s2p1d pattern {511/31/1}
 Group   4 Type H   : 4s contracted to 2s pattern {31}
 Group   5 Type Al  : 10s7p1d contracted to 4s3p1d pattern {5311/511/1}

Atom   0Zr   basis set group =>   1
Atom   1Zr   basis set group =>   1
Atom   2Zr   basis set group =>   1
Atom   3Zr   basis set group =>   1
Atom   4Zr   basis set group =>   1
Atom   5Zr   basis set group =>   1
Atom   6O    basis set group =>   2
Atom   7O    basis set group =>   2
Atom   8O    basis set group =>   2
Atom   9O    basis set group =>   2
Atom  10O    basis set group =>   2
Atom  11O    basis set group =>   2
Atom  12O    basis set group =>   2
Atom  13O    basis set group =>   2
Atom  14O    basis set group =>   2
Atom  15O    basis set group =>   2
Atom  16O    basis set group =>   2
Atom  17O    basis set group =>   2
Atom  18O    basis set group =>   2
Atom  19O    basis set group =>   2
Atom  20O    basis set group =>   2
Atom  21O    basis set group =>   2
Atom  22O    basis set group =>   2
Atom  23O    basis set group =>   2
Atom  24O    basis set group =>   2
Atom  25O    basis set group =>   2
Atom  26O    basis set group =>   2
Atom  27O    basis set group =>   2
Atom  28O    basis set group =>   2
Atom  29O    basis set group =>   2
Atom  30O    basis set group =>   2
Atom  31O    basis set group =>   2
Atom  32O    basis set group =>   2
Atom  33O    basis set group =>   2
Atom  34O    basis set group =>   2
Atom  35O    basis set group =>   2
Atom  36C    basis set group =>   3
Atom  37C    basis set group =>   3
Atom  38C    basis set group =>   3
Atom  39C    basis set group =>   3
Atom  40C    basis set group =>   3
Atom  41C    basis set group =>   3
Atom  42C    basis set group =>   3
Atom  43C    basis set group =>   3
Atom  44C    basis set group =>   3
Atom  45C    basis set group =>   3
Atom  46C    basis set group =>   3
Atom  47C    basis set group =>   3
Atom  48H    basis set group =>   4
Atom  49H    basis set group =>   4
Atom  50H    basis set group =>   4
Atom  51H    basis set group =>   4
Atom  52H    basis set group =>   4
Atom  53H    basis set group =>   4
Atom  54H    basis set group =>   4
Atom  55H    basis set group =>   4
Atom  56H    basis set group =>   4
Atom  57H    basis set group =>   4
Atom  58H    basis set group =>   4
Atom  59H    basis set group =>   4
Atom  60Al   basis set group =>   5
Atom  61H    basis set group =>   4
Atom  62H    basis set group =>   4
Atom  63H    basis set group =>   4
---------------------------------
AUXILIARY/J BASIS SET INFORMATION
---------------------------------
There are 5 groups of distinct atoms

 Group   1 Type Zr  : 11s5p5d3f3g contracted to 8s5p5d2f3g pattern {41111111/11111/11111/21/111}
 Group   2 Type O   : 12s5p4d2f1g contracted to 6s4p3d1f1g pattern {711111/2111/211/2/1}
 Group   3 Type C   : 12s5p4d2f1g contracted to 6s4p3d1f1g pattern {711111/2111/211/2/1}
 Group   4 Type H   : 5s2p1d contracted to 3s1p1d pattern {311/2/1}
 Group   5 Type Al  : 14s5p5d2f1g contracted to 8s4p3d1f1g pattern {71111111/2111/311/2/1}

Atom   0Zr   basis set group =>   1
Atom   1Zr   basis set group =>   1
Atom   2Zr   basis set group =>   1
Atom   3Zr   basis set group =>   1
Atom   4Zr   basis set group =>   1
Atom   5Zr   basis set group =>   1
Atom   6O    basis set group =>   2
[...]
176:   1638.57   0.099750  504.09  0.018997  (-0.054537 -0.078864 -0.099012)
177:   1834.39   0.008382   42.36  0.001426  ( 0.010849  0.021500 -0.029085)
178:   1839.94   0.034392  173.80  0.005833  ( 0.003608 -0.055385  0.052464)
179:   1851.31   0.048694  246.08  0.008208  ( 0.015252  0.064619  0.061642)
180:   2889.94   0.011366   57.44  0.001227  (-0.013312  0.007819  0.031448)
181:   2890.78   0.028617  144.62  0.003089  (-0.049403 -0.008645 -0.023957)
182:   2891.98   0.018122   91.58  0.001955  (-0.012414 -0.041999  0.006117)
183:   2895.12   0.023550  119.01  0.002538  (-0.028021 -0.041151 -0.007740)
184:   2900.41   0.014678   74.18  0.001579  (-0.012702 -0.015218 -0.034444)
185:   2902.39   0.019970  100.92  0.002147  (-0.046229  0.002126 -0.002357)
186:   2908.31   0.004317   21.82  0.000463  (-0.009789  0.018065 -0.006408)
187:   2909.04   0.026907  135.98  0.002886  ( 0.025039 -0.006493 -0.047089)
188:   2909.85   0.034021  171.93  0.003649  (-0.022869  0.051702 -0.021271)
189:   2911.94   0.020048  101.32  0.002149  (-0.006574 -0.014975  0.043371)
190:   2934.88   0.011431   57.77  0.001215  (-0.016591  0.006693  0.029923)
191:   2939.65   0.013486   68.15  0.001432  (-0.018772  0.032594  0.004107)

* The epsilon (eps) is given for a Dirac delta lineshape.
** The dipole moment derivative (T) already includes vibrational overlap.

The first frequency considered to be a vibration is 8
The total number of vibrations considered is 184


--------------------------
THERMOCHEMISTRY AT 298.15K
--------------------------

Temperature         ...   298.15 K
Pressure            ...     1.00 atm
Total Mass          ...  1213.52 AMU
Quasi RRHO          ...     True
Cut-Off Frequency   ...     1.00 cm^-1

Throughout the following assumptions are being made:
  (1) The electronic state is orbitally nondegenerate
  (2) There are no thermally accessible electronically excited states
  (3) Hindered rotations indicated by low frequency modes are not
      treated as such but are treated as vibrations and this may
      cause some error
  (4) All equations used are the standard statistical mechanics
      equations for an ideal gas
  (5) All vibrations are strictly harmonic

freq.      16.63  E(vib)   ...       0.57 
freq.      22.43  E(vib)   ...       0.56 
freq.      28.03  E(vib)   ...       0.55 
freq.      34.97  E(vib)   ...       0.54 
freq.      51.28  E(vib)   ...       0.52 
freq.      55.35  E(vib)   ...       0.52 
freq.      56.47  E(vib)   ...       0.52 
freq.      59.59  E(vib)   ...       0.51 
freq.      75.82  E(vib)   ...       0.49 
freq.      82.54  E(vib)   ...       0.48 
freq.      91.13  E(vib)   ...       0.47 
freq.      96.17  E(vib)   ...       0.47 
freq.      98.24  E(vib)   ...       0.46 
freq.     100.80  E(vib)   ...       0.46 
freq.     102.35  E(vib)   ...       0.46 
freq.     105.26  E(vib)   ...       0.45 
freq.     108.00  E(vib)   ...       0.45 
freq.     114.39  E(vib)   ...       0.44 
freq.     117.04  E(vib)   ...       0.44 
freq.     118.53  E(vib)   ...       0.44 
freq.     138.47  E(vib)   ...       0.42 
freq.     143.68  E(vib)   ...       0.41 
freq.     148.72  E(vib)   ...       0.41 
freq.     150.15  E(vib)   ...       0.40 
freq.     151.36  E(vib)   ...       0.40 
freq.     152.87  E(vib)   ...       0.40 
freq.     155.76  E(vib)   ...       0.40 
freq.     158.22  E(vib)   ...       0.39 
freq.     161.18  E(vib)   ...       0.39 
freq.     161.90  E(vib)   ...       0.39 
freq.     164.28  E(vib)   ...       0.39 
freq.     166.16  E(vib)   ...       0.39 
freq.     169.72  E(vib)   ...       0.38 
freq.     176.27  E(vib)   ...       0.38 
freq.     178.84  E(vib)   ...       0.37 
freq.     185.48  E(vib)   ...       0.37 
freq.     186.84  E(vib)   ...       0.36 
freq.     188.49  E(vib)   ...       0.36 
freq.     192.12  E(vib)   ...       0.36 
freq.     193.54  E(vib)   ...       0.36 
freq.     201.20  E(vib)   ...       0.35 
freq.     203.97  E(vib)   ...       0.35 
freq.     209.26  E(vib)   ...       0.34 
freq.     213.43  E(vib)   ...       0.34 
freq.     214.71  E(vib)   ...       0.34 
freq.     229.30  E(vib)   ...       0.32 
freq.     231.13  E(vib)   ...       0.32 
freq.     234.20  E(vib)   ...       0.32 
freq.     237.65  E(vib)   ...       0.32 
freq.     244.20  E(vib)   ...       0.31 
freq.     257.23  E(vib)   ...       0.30 
freq.     262.96  E(vib)   ...       0.29 
freq.     263.01  E(vib)   ...       0.29 
freq.     264.87  E(vib)   ...       0.29 
freq.     266.32  E(vib)   ...       0.29 
freq.     267.89  E(vib)   ...       0.29 
freq.     269.63  E(vib)   ...       0.29 
freq.     270.59  E(vib)   ...       0.29 
freq.     274.07  E(vib)   ...       0.28 
freq.     276.24  E(vib)   ...       0.28 
freq.     277.51  E(vib)   ...       0.28 
freq.     279.87  E(vib)   ...       0.28 
freq.     281.49  E(vib)   ...       0.28 
freq.     283.01  E(vib)   ...       0.28 
freq.     289.09  E(vib)   ...       0.27 
freq.     292.27  E(vib)   ...       0.27 
freq.     293.78  E(vib)   ...       0.27 
freq.     296.30  E(vib)   ...       0.27 
freq.     301.55  E(vib)   ...       0.26 
freq.     302.83  E(vib)   ...       0.26 
freq.     307.17  E(vib)   ...       0.26 
freq.     310.59  E(vib)   ...       0.26 
freq.     313.96  E(vib)   ...       0.25 
freq.     315.40  E(vib)   ...       0.25 
freq.     318.66  E(vib)   ...       0.25 
freq.     320.26  E(vib)   ...       0.25 
freq.     324.56  E(vib)   ...       0.24 
freq.     326.86  E(vib)   ...       0.24 
freq.     331.65  E(vib)   ...       0.24 
freq.     339.87  E(vib)   ...       0.23 
freq.     340.62  E(vib)   ...       0.23 
freq.     349.16  E(vib)   ...       0.23 
freq.     351.38  E(vib)   ...       0.23 
freq.     360.99  E(vib)   ...       0.22 
freq.     365.49  E(vib)   ...       0.22 
freq.     373.51  E(vib)   ...       0.21 
freq.     387.76  E(vib)   ...       0.20 
freq.     394.40  E(vib)   ...       0.20 
freq.     399.25  E(vib)   ...       0.19 
freq.     401.28  E(vib)   ...       0.19 
freq.     403.13  E(vib)   ...       0.19 
freq.     413.81  E(vib)   ...       0.19 
freq.     415.91  E(vib)   ...       0.18 
freq.     417.89  E(vib)   ...       0.18 
freq.     426.06  E(vib)   ...       0.18 
freq.     459.45  E(vib)   ...       0.16 
freq.     470.86  E(vib)   ...       0.15 
freq.     475.93  E(vib)   ...       0.15 
freq.     482.87  E(vib)   ...       0.15 
freq.     531.51  E(vib)   ...       0.13 
freq.     542.86  E(vib)   ...       0.12 
freq.     620.77  E(vib)   ...       0.09 
freq.     668.27  E(vib)   ...       0.08 
freq.     678.14  E(vib)   ...       0.08 
freq.     683.01  E(vib)   ...       0.08 
freq.     688.28  E(vib)   ...       0.07 
freq.     712.12  E(vib)   ...       0.07 
freq.     729.25  E(vib)   ...       0.06 
freq.     732.99  E(vib)   ...       0.06 
freq.     734.42  E(vib)   ...       0.06 
freq.     735.14  E(vib)   ...       0.06 
freq.     735.87  E(vib)   ...       0.06 
freq.     737.54  E(vib)   ...       0.06 
freq.     738.94  E(vib)   ...       0.06 
freq.     739.25  E(vib)   ...       0.06 
freq.     739.89  E(vib)   ...       0.06 
freq.     740.04  E(vib)   ...       0.06 
freq.     740.43  E(vib)   ...       0.06 
freq.     742.13  E(vib)   ...       0.06 
freq.     742.58  E(vib)   ...       0.06 
freq.     785.26  E(vib)   ...       0.05 
freq.     995.58  E(vib)   ...       0.02 
freq.     998.90  E(vib)   ...       0.02 
freq.     999.77  E(vib)   ...       0.02 
freq.     999.98  E(vib)   ...       0.02 
freq.    1000.29  E(vib)   ...       0.02 
freq.    1001.53  E(vib)   ...       0.02 
freq.    1001.67  E(vib)   ...       0.02 
freq.    1002.48  E(vib)   ...       0.02 
freq.    1004.22  E(vib)   ...       0.02 
freq.    1004.92  E(vib)   ...       0.02 
freq.    1005.08  E(vib)   ...       0.02 
freq.    1005.83  E(vib)   ...       0.02 
freq.    1338.38  E(vib)   ...       0.01 
freq.    1348.21  E(vib)   ...       0.01 
freq.    1348.66  E(vib)   ...       0.01 
freq.    1350.79  E(vib)   ...       0.01 
freq.    1351.06  E(vib)   ...       0.01 
freq.    1352.43  E(vib)   ...       0.01 
freq.    1352.55  E(vib)   ...       0.01 
freq.    1353.37  E(vib)   ...       0.01 
freq.    1354.04  E(vib)   ...       0.01 
freq.    1354.43  E(vib)   ...       0.01 
freq.    1354.49  E(vib)   ...       0.01 
freq.    1356.23  E(vib)   ...       0.01 
freq.    1356.73  E(vib)   ...       0.01 
freq.    1360.69  E(vib)   ...       0.01 
freq.    1361.37  E(vib)   ...       0.01 
freq.    1361.52  E(vib)   ...       0.01 
freq.    1364.44  E(vib)   ...       0.01 
freq.    1364.76  E(vib)   ...       0.01 
freq.    1366.81  E(vib)   ...       0.01 
freq.    1367.57  E(vib)   ...       0.01 
freq.    1368.99  E(vib)   ...       0.01 
freq.    1371.81  E(vib)   ...       0.01 
freq.    1373.20  E(vib)   ...       0.01 
freq.    1381.15  E(vib)   ...       0.01 
freq.    1534.93  E(vib)   ...       0.00 
freq.    1545.25  E(vib)   ...       0.00 
freq.    1557.83  E(vib)   ...       0.00 
freq.    1561.54  E(vib)   ...       0.00 
freq.    1565.17  E(vib)   ...       0.00 
freq.    1575.05  E(vib)   ...       0.00 
freq.    1575.11  E(vib)   ...       0.00 
freq.    1625.34  E(vib)   ...       0.00 
freq.    1626.68  E(vib)   ...       0.00 
freq.    1632.52  E(vib)   ...       0.00 
freq.    1637.45  E(vib)   ...       0.00 
freq.    1638.57  E(vib)   ...       0.00 
freq.    1834.39  E(vib)   ...       0.00 
freq.    1839.94  E(vib)   ...       0.00 
freq.    1851.31  E(vib)   ...       0.00 
freq.    2889.94  E(vib)   ...       0.00 
freq.    2890.78  E(vib)   ...       0.00 
freq.    2891.98  E(vib)   ...       0.00 
freq.    2895.12  E(vib)   ...       0.00 
freq.    2900.41  E(vib)   ...       0.00 
freq.    2902.39  E(vib)   ...       0.00 
freq.    2908.31  E(vib)   ...       0.00 
freq.    2909.04  E(vib)   ...       0.00 
freq.    2909.85  E(vib)   ...       0.00 
freq.    2911.94  E(vib)   ...       0.00 
freq.    2934.88  E(vib)   ...       0.00 
freq.    2939.65  E(vib)   ...       0.00 

------------
INNER ENERGY
------------

The inner energy is: U= E(el) + E(ZPE) + E(vib) + E(rot) + E(trans)
    E(el)   - is the total energy from the electronic structure calculation
              = E(kin-el) + E(nuc-el) + E(el-el) + E(nuc-nuc)
    E(ZPE)  - the the zero temperature vibrational energy from the frequency calculation
    E(vib)  - the the finite temperature correction to E(ZPE) due to population
              of excited vibrational states
    E(rot)  - is the rotational thermal energy
    E(trans)- is the translational thermal energy

Summary of contributions to the inner energy U:
Electronic energy                ...  -3244.51953355 Eh
Zero point energy                ...      0.32615466 Eh     204.66 kcal/mol
Thermal vibrational correction   ...      0.05517747 Eh      34.62 kcal/mol
Thermal rotational correction    ...      0.00141627 Eh       0.89 kcal/mol
Thermal translational correction ...      0.00141627 Eh       0.89 kcal/mol
-----------------------------------------------------------------------
Total thermal energy                  -3244.13536887 Eh


Summary of corrections to the electronic energy:
(perhaps to be used in another calculation)
Total thermal correction                  0.05801002 Eh      36.40 kcal/mol
Non-thermal (ZPE) correction              0.32615466 Eh     204.66 kcal/mol
-----------------------------------------------------------------------
Total correction                          0.38416467 Eh     241.07 kcal/mol


--------
ENTHALPY
--------

The enthalpy is H = U + kB*T
                kB is Boltzmann's constant
Total thermal energy              ...  -3244.13536887 Eh 
Thermal Enthalpy correction       ...      0.00094421 Eh       0.59 kcal/mol
-----------------------------------------------------------------------
Total Enthalpy                    ...  -3244.13442467 Eh


Note: Only C1 symmetry has been detected, increase convergence thresholds 
      if your molecule has a higher symmetry. Symmetry factor of 1.0 is   
      used for the rotational entropy correction. 
 

Note: Rotational entropy computed according to Herzberg 
Infrared and Raman Spectra, Chapter V,1, Van Nostrand Reinhold, 1945 
Point Group:  C1, Symmetry Number:   1  
Rotational constants in cm-1:     0.001880     0.001674     0.001593 

Vibrational entropy computed according to the QRRHO of S. Grimme
Chem.Eur.J. 2012 18 9955 using a reference frequency of 100.0 cm-1


-------
ENTROPY
-------

The entropy contributions are T*S = T*(S(el)+S(vib)+S(rot)+S(trans))
     S(el)   - electronic entropy
     S(vib)  - vibrational entropy
     S(rot)  - rotational entropy
     S(trans)- translational entropy
The entropies will be listed as multiplied by the temperature to get
units of energy

Electronic entropy                ...      0.00000000 Eh      0.00 kcal/mol
Vibrational entropy               ...      0.09915903 Eh     62.22 kcal/mol
Rotational entropy                ...      0.01853312 Eh     11.63 kcal/mol
Translational entropy             ...      0.02240642 Eh     14.06 kcal/mol
-----------------------------------------------------------------------
Final entropy term                ...      0.14009856 Eh     87.91 kcal/mol

In case the symmetry of your molecule has not been determined correctly
or in case you have a reason to use a different symmetry number we print 
out the resulting rotational entropy values for sn=1,12:

 non-linear molecules -----------------------------------
|  sn= 1 | S(rot)=       0.01853312 Eh     11.63 kcal/mol|
|  sn= 2 | S(rot)=       0.01787866 Eh     11.22 kcal/mol|
|  sn= 3 | S(rot)=       0.01749583 Eh     10.98 kcal/mol|
|  sn= 4 | S(rot)=       0.01722421 Eh     10.81 kcal/mol|
|  sn= 5 | S(rot)=       0.01701352 Eh     10.68 kcal/mol|
|  sn= 6 | S(rot)=       0.01684137 Eh     10.57 kcal/mol|
|  sn= 7 | S(rot)=       0.01669583 Eh     10.48 kcal/mol|
|  sn= 8 | S(rot)=       0.01656975 Eh     10.40 kcal/mol|
|  sn= 9 | S(rot)=       0.01645854 Eh     10.33 kcal/mol|
|  sn=10 | S(rot)=       0.01635906 Eh     10.27 kcal/mol|
|  sn=11 | S(rot)=       0.01626907 Eh     10.21 kcal/mol|
|  sn=12 | S(rot)=       0.01618692 Eh     10.16 kcal/mol|
 linear molecules ---------------------------------------
|  Dinfh | S(rot)=       0.01140823 Eh      7.16 kcal/mol|
|  Cinfv | S(rot)=       0.01206269 Eh      7.57 kcal/mol|
 --------------------------------------------------------


-------------------
GIBBS FREE ENERGY
-------------------

The Gibbs free energy is G = H - T*S

Total enthalpy                    ...  -3244.13442467 Eh 
Total entropy correction          ...     -0.14009856 Eh    -87.91 kcal/mol
-----------------------------------------------------------------------
Final Gibbs free energy         ...  -3244.27452323 Eh

For completeness - the Gibbs free energy minus the electronic energy
G-E(el)                           ...      0.24501032 Eh    153.75 kcal/mol


Maximum memory used throughout the entire PROP-calculation: 132.0 MB

--------------------------------
SUGGESTED CITATIONS FOR THIS RUN
--------------------------------

Below you find a list of papers that are relevant to this ORCA run
We neither can nor want to force you to cite these papers, but we appreciate if you do
You receive ORCA, which is the product of decades of hard work by many enthusiastic individuals, for free
The only thing we kindly ask in return is that you cite our papers,
We deeply appreciate it, if you show your appreciation for ORCA by not just citing the generic ORCA reference.

Please note that relegating all ORCA citations to the supporting information does *not* help us.
SI sections are not indexed - citations you put there will not count into any citation statistics
But we need these citations in order to attract the funding resources that allow us to do what we are doing

Therefore, if you are a happy ORCA user, please consider citing a few of the papers listed below in the main body of your paper

In addition to the list printed below, the program has created the file run.bibtex that contains the list in bibtex format
You can import this file easily into all common literature databanks and citation aid programs


List of essential papers. We consider these as the minimum necessary citations

  1. Neese, F.
     Software update: the ORCA program system, version 6.0
     WIRES Comput. Molec. Sci. 2025 15(1), e70019
     doi.org/10.1002/wcms.7019

List of papers to cite with high priority. The work reported in these papers was absolutely
necessary for this run to complete.
Our perspective: the developers of density functionals and basis sets usually get cited in chemistry papers
Good! But without the algorithms to do something with them, the functionals or basis sets would not do anything.
Hence, in our opinion, the algorithm design and method developments papers are equally worthy of getting cited

  1. Neese, F.
     An improvement of the resolution of the identity approximation for the formation of the Coulomb matrix
     J. Comp. Chem. 2003 24(14), 1740-1747
     doi.org/10.1002/jcc.10318
  2. Grimme, S.; Antony, J.; Ehrlich, S.; Krieg, H.
     A consistent and accurate ab initio parametrization of density functional dispersion correction (DFT-D) for the 94 elements H-Pu
     J. Chem. Phys. 2010 132 , 154104
     doi.org/10.1063/1.3382344
  3. Grimme, S.; Ehrlich, S.; Goerigk, L.
     Effect of the damping function in dispersion corrected density functional theory
     J. Comput. Chem. 2011 32(7), 1456-1465
     doi.org/10.1002/jcc.21759
  4. Bykov, D.; Petrenko, T.; Izsak, R.; Kossmann, S.; Becker, U.; Valeev, E.; Neese, F.
     Efficient implementation of the analytic second derivatives of Hartree-Fock and hybrid DFT energies: a detailed analysis of different approximations
     Molec. Phys. 2015 113 , 1961-1977
     doi.org/10.1080/00268976.2015.1025114
  5. Neese, F.
     The SHARK Integral Generation and Digestion System
     J. Comp. Chem. 2022 44(3), 381
     doi.org/10.1002/jcc.26942

List of suggested additional citations. These are papers that are important in the 'surrounding' of 
of this run, or papers that preceded the highly important papers. If you like your results we are grateful for a citation.

  1. Neese, F.
     The ORCA program system
     WIRES Comput. Molec. Sci. 2012 2(1), 73-78
     doi.org/10.1002/wcms.81
  2. Neese, F.
     Software update: the ORCA program system, version 4.0
     WIRES Comput. Molec. Sci. 2018 8(1), 1-6
     doi.org/10.1002/wcms.1327
  3. Neese, F.; Wennmohs, F.; Becker, U.; Riplinger, C.
     The ORCA quantum chemistry program package
     J. Chem. Phys. 2020 152(22), 224108
     doi.org/10.1063/5.0004608
  4. Neese, F.
     Software update: The ORCA program system—Version 5.0
     WIRES Comput. Molec. Sci. 2022 12(1), e1606
     doi.org/10.1002/wcms.1606

List of optional additional citations

  1. Neese, F.
     Approximate second-order SCF convergence for spin unrestricted wavefunctions
     Chem. Phys. Lett. 2000 325(1-3), 93-98
     doi.org/10.1016/s0009-2614(00)00662-x

Timings for individual modules:

Sum of individual times          ...     6996.446 sec (= 116.607 min)
Startup calculation              ...      364.310 sec (=   6.072 min)   5.2 %
SCF iterations                   ...     1547.428 sec (=  25.790 min)  22.1 %
Property integrals               ...     1653.301 sec (=  27.555 min)  23.6 %
SCF Response                     ...     1116.642 sec (=  18.611 min)  16.0 %
Property calculations            ...     1446.659 sec (=  24.111 min)  20.7 %
SCF Gradient evaluation          ...      859.752 sec (=  14.329 min)  12.3 %
Geometry relaxation              ...        8.354 sec (=   0.139 min)   0.1 %
                             ****ORCA TERMINATED NORMALLY****
TOTAL RUN TIME: 0 days 1 hours 57 minutes 0 seconds 918 msec
