
                                 *****************
                                 * O   R   C   A *
                                 *****************

                                            #,                                       
                                            ###                                      
                                            ####                                     
                                            #####                                    
                                            ######                                   
                                           ########,                                 
                                     ,,################,,,,,                         
                               ,,#################################,,                 
                          ,,##########################################,,             
                       ,#########################################, ''#####,          
                    ,#############################################,,   '####,        
                  ,##################################################,,,,####,       
                ,###########''''           ''''###############################       
              ,#####''   ,,,,##########,,,,          '''####'''          '####       
            ,##' ,,,,###########################,,,                        '##       
           ' ,,###''''                  '''############,,,                           
         ,,##''                                '''############,,,,        ,,,,,,###''
      ,#''                                            '''#######################'''  
     '                                                          ''''####''''         
             ,#######,   #######,   ,#######,      ##                                
            ,#'     '#,  ##    ##  ,#'     '#,    #''#        ,####,    ,#,          
            ##       ##  ##   ,#'  ##            #'  '#       #'       ,# #          
            ##       ##  #######   ##           ,######,      #####,      #          
            '#,     ,#'  ##    ##  '#,     ,#' ,#      #,     #,   #      #          
             '#######'   ##     ##  '#######'  #'      '#     '####' #    #          



                #########################################################
                #                        -***-                          #
                #          Department of theory and spectroscopy        #
                #                                                       #
                #                      Frank Neese                      #
                #                                                       #
                #     Directorship, Architecture, Infrastructure        #
                #                    SHARK, DRIVERS                     #
                #        Core code/Algorithms in most modules           #
                #                                                       #
                #        Max Planck Institute fuer Kohlenforschung      #
                #                Kaiser Wilhelm Platz 1                 #
                #                 D-45470 Muelheim/Ruhr                 #
                #                      Germany                          #
                #                                                       #
                #                  All rights reserved                  #
                #                        -***-                          #
                #########################################################


                         Program Version 6.1.0  -  RELEASE   -
                                (GIT: $679e74b$)
                          ($2025-06-10 18:02:51 +0200$)


 With contributions from (in alphabetic order):
[Max-Planck-Institut fuer Kohlenforschung]                               
  Daniel Aravena         : Magnetic Suceptibility                        
  Michael Atanasov       : Ab Initio Ligand Field Theory (pilot matlab implementation)
  Alexander A. Auer      : GIAO ZORA, VPT2 properties, NMR spectrum      
  Ute Becker             : All parallelization in ORCA, NUMFREQ, NUMCALC 
  Giovanni Bistoni       : ED, misc. LED, open-shell LED, HFLD           
  Dmytro Bykov           : pre 5.0 version of the SCF Hessian            
  Marcos Casanova-Páez   : Triplet and SCS-CIS(D). UHF-(DLPNO)-IP/EA/STEOM-CCSD. UHF-CVS-IP/STEOM-CCSD   
  Vijay G. Chilkuri      : MRCI spin determinant printing, contributions to CSF-ICE 
  Pauline Colinet        : FMM embedding                                 
  Dipayan Datta          : RHF DLPNO-CCSD density                        
  Achintya Kumar Dutta   : EOM-CC, STEOM-CC                              
  Nicolas Foglia         : Exact transition moments, OPA infrastructure, MCD improvements    
  Dmitry Ganyushin       : Spin-Orbit,Spin-Spin,Magnetic field MRCI      
  Miquel Garcia-Rates    : C-PCM and meta-GGA Hessian, CCSD/C-PCM, Gaussian charge scheme 
  Tiago L. C. Gouveia    : GS-ROHF, GS-ROCIS                             
  Yang Guo               : DLPNO-NEVPT2, F12-NEVPT2, CIM, IAO-localization        
  Andreas Hansen         : Spin unrestricted coupled pair/coupled cluster methods 
  Ingolf Harden          : AUTO-CI MPn and infrastructure                
  Benjamin Helmich-Paris : MC-RPA, TRAH-(SCF,CASSCF), AVAS, COSX integrals, SCF dyn. polar., MC-PDFT, srDFT 
  Lee Huntington         : MR-EOM, pCC                                   
  Robert Izsak           : Overlap fitted RIJCOSX, COSX-SCS-MP3, EOM     
  Riya Kayal             : Wick's Theorem for AUTO-CI, AUTO-CI UHF-CCSDT 
  Emily Kempfer          : AUTO-CI RHF CISDT and CCSDT, approximate NEVPT4
  Christian Kollmar      : KDIIS, OOCD, Brueckner-CCSD(T), CCSD density, CASPT2, CASPT2-K, improved NEVPT2 
  Axel Koslowski         : Symmetry handling                             
  Simone Kossmann        : meta-GGA functionals, TD-DFT gradient, OOMP2, (MP2 Hessian; deprecated post 5.0) 
  Lucas Lang             : DCDCAS, Hyperfine gauge corrections, ICE-SOC+SSC
  Marvin Lechner         : AUTO-CI (C++ implementation), FIC-MRCC        
  Spencer Leger          : CASSCF response                               
  Dagmar Lenk            : GEPOL surface, SMD, ORCA-2-JSON               
  Dimitrios Liakos       : Extrapolation schemes; Compound Job, Property file
  Dimitrios Manganas     : Further ROCIS development; embedding schemes. LFT, Crystal Embedding 
  Dimitrios Pantazis     : SARC Basis sets                               
  Anastasios Papadopoulos: AUTO-CI, single reference methods and gradients 
  Taras Petrenko         : pre 6.0 DFT Hessian and TD-DFT gradient,  ECA, NRVS 
  Petra Pikulova         : Analytic Raman intensities                    
  Peter Pinski           : DLPNO-MP2, DLPNO-MP2 Gradient                 
  Shashank Vittal Rao    : ES-AILFT, MagRelax                            
  Christoph Reimann      : Effective Core Potentials                     
  Marius Retegan         : Local ZFS, SOC                                
  Christoph Riplinger    : Optimizer, TS searches, QM/MM, DLPNO-CCSD(T), (RO)-DLPNO pert. Triples 
  Michael Roemelt        : Original ROCIS implementation, recursive CI coupling coefficients
  Masaaki Saitow         : Open-shell DLPNO-CCSD energy and density      
  Barbara Sandhoefer     : DKH picture change effects                    
  Yorick L. A. Schmerwitz: GMF and freeze-and-release deltaSCF, NEB S-IDPP initial path                    
  Kantharuban Sivalingam : CASSCF convergence/infrastructure, NEVPT2, NEVPT3, NEVPT4(SD), FIC-MRCI and CEPA variants
  Bernardo de Souza      : ESD, SOC TD-DFT                               
  Georgi L. Stoychev     : AutoAux, RI-MP2 NMR, DLPNO-MP2 response, X2C  
  Van Anh Tran           : RI-MP2 g-tensors                              
  Willem Van den Heuvel  : Paramagnetic NMR                              
  Zikuan Wang            : NOTCH, Electric field optimization            
  Frank Wennmohs         : Technical directorship and infrastructure     
  Hang Xu                : AUTO-CI-Response properties                   
                                                                         
[FACCTs GmbH]                                                            
  Markus Bursch, Nicolas Foglia, Miquel Garcia-Rates, Ingolf Harden, Hagen Neugebauer, Anastasios Papadopoulos, 
  Christoph Riplinger, Bernardo de Souza, Georgi L. Stoychev                                                    
                                                                 
  APM, various basis sets, CI-OPT, improved COSX, DLPNO-Multilevel,           
  DOCKER, DRACO, updates on ESD, Fragmentator, GOAT, IRC, LR-CPCM, L-BFGS, MBIS, meta-GGA TD-DFT gradient, ML-optimized integration grids, 
  MM, NACMEs, nearIR, NEB, NEB-TS, NL-DFT gradient (VV10), 2- and 3-layer-ONIOM, interface openCOSMO-RS, QMMM,   
  Crystal-QMMM, RESP, rigid body optimization, SF, symmetry and pop. for TD-DFT, various functionals, SOLVATOR                                   
                                                                         
[Other institutions]                                                     
  V. Asgeirsson          : NEB                                           
  Christoph Bannwarth    : sTDA-DFT, sTD-DFT, PBEh-3c, B97-3c, D3        
  Giovanni Bistoni       : ETS/NOCV, ADLD/ADEX, COVALED                  
  Martin Brehm           : Molecular dynamics                            
  Ronald Cardenas        : ETS/NOCV                                      
  Martina Colucci        : COVALED                                       
  Sebastian Ehlert       : rSCAN, r2SCAN, r2SCAN-3c, D4, dhf basis sets  
  Marvin Friede          : D4 for Fr, Ra, Ac-Lr                          
  Lars Goerigk           : TD-DFT with DH, B97 family of functionals     
  Stefan Grimme          : VdW corrections, initial TS optimization, DFT functionals, gCP, sTDA/sTD-DF 
  Waldemar Hujo          : DFT-NL                                        
  H. Jonsson             : NEB                                           
  Holger Kruse           : gCP                                           
  Marcel Mueller         : wB97X-3c, vDZP basis set                      
  Hagen Neugebauer       : wr2SCAN, Native XTB                           
  Gianluca Regni         : ADLD/ADEX                                     
  Tobias Risthaus        : pre 6.0 range-separated hybrid DFT and stability analysis
  Lukas Wittmann         : regularized MP2, r2SCAN double-hybrids, wr2SCAN        
                                                                         
We gratefully acknowledge several colleagues who have allowed us to      
interface, adapt or use parts of their codes:                            
  Ed Valeev, F. Pavosevic, A. Kumar             : LibInt (2-el integral package), F12 methods 
  Garnet Chan, S. Sharma, J. Yang, R. Olivares  : DMRG                   
  Ulf Ekstrom                                   : XCFun DFT Library      
  Mihaly Kallay                                 : mrcc  (arbitrary order and MRCC methods)
  Frank Weinhold                                : gennbo (NPA and NBO analysis)           
  Simon Mueller                                 : openCOSMO-RS                            
  Christopher J. Cramer and Donald G. Truhlar   : smd solvation model                     
  S Lehtola, MJT Oliveira, MAL Marques          : LibXC Library                           
  Liviu Ungur et al                             : ANISO software                          


 Your calculation uses the libint2 library for the computation of 2-el integrals
 For citations please refer to: http://libint.valeyev.net

 Your ORCA version has been built with support for libXC version: 7.0.0
 For citations please refer to: https://libxc.gitlab.io

 This ORCA versions uses:
   CBLAS   interface :  Fast vector & matrix operations
   LAPACKE interface :  Fast linear algebra routines
   SCALAPACK package :  Parallel linear algebra routines
   Shared memory     :  Shared parallel matrices
   BLAS/LAPACK       :  OpenBLAS 0.3.29  USE64BITINT DYNAMIC_ARCH NO_AFFINITY Bulldozer SINGLE_THREADED
        Core in use  :  Bulldozer
   Copyright (c) 2011-2014, The OpenBLAS Project


  ***********************************
  * Starting time: Tue Aug 12 23:05:35 2025
  * Host name:     chromium12
  * Process ID:    105192
  * Working dir.:  /local/scratch/mehlhorn/61827
  ***********************************



***************************************
The coordinates will be read from file: start.xyz
***************************************


Your calculation utilizes the geometrical counterpoise correction gCP
Please cite in your paper:
H.Kruse, S. Grimme J.Chem.Phys., 136, (2012), 154101 
   

Your calculation utilizes the atom-pairwise dispersion correction
with the Becke-Johnson damping scheme (D3BJ)


Warning: RI is on but no J-basis has been assigned. Assigning Def2/J (nothing to worry about!)
================================================================================

cite the ECPs for Zr [Def2-ECP] as follows:
Ce-Yb(ecp-28): M. Dolg, H. Stoll, H.Preuss, J. Chem. Phys., 1989, 90, 1730-1734.
Y-Cd(ecp-28), Hf-Hg(ecp-46): D. Andrae,U. Haeussermann, M. Dolg, H. Stoll, H. Preuss, Theor. Chim. Acta, 1990, 77, 123-141.
In-Sb(ecp-28), Tl-Bi(ecp-46): B. Metz, H. Stoll, M. Dolg, J. Chem. Phys., 2000, 113, 2563-2569.
Te-Xe(ecp-28), Po-Rn(ecp-46): K. A. Peterson, D. Figgen, E. Goll, H. Stoll, M. Dolg, J. Chem. Phys., 2003, 119, 11113-11123.
Rb(ecp-28), Cs(ecp-46): T. Leininger, A. Nicklass, W. Kuechle, H. Stoll, M. Dolg, A. Bergner, Chem. Phys. Lett., 1996, 255, 274-280.
Sr(ecp-28), Ba(ecp-46): M. Kaupp, P. V. Schleyer, H. Stoll and H. Preuss, J. Chem. Phys., 1991, 94, 1360-1366.
La(ecp-46): M. Dolg, H. Stoll, A. Savin, H. Preuss, Theor. Chim. Acta, 1989, 75, 173-194.
Lu(ecp-28): X. Cao, M. Dolg, J. Chem. Phys., 2001, 115, 7348-7355.

ECP parameters for Zr [Def2-ECP] have been obtained from:
TURBOMOLE (7.0.2)

----- Orbital basis set information -----
Your calculation utilizes the basis: def2-SV(P)
   F. Weigend and R. Ahlrichs, Phys. Chem. Chem. Phys. 7, 3297 (2005).

----- AuxJ basis set information -----
Your calculation utilizes the auxiliary basis: def2/J
   H-Rn: F. Weigend, Phys. Chem. Chem. Phys. 8, 1057 (2006).
   Fr-Lr: K. Eichkorn, F. Weigend, O. Treutler, R. Ahlrichs; Theor. Chem. Acc. 97, 119 (1997).

================================================================================
                                        WARNINGS
                       Please study these warnings very carefully!
================================================================================


WARNING: Gradients are needed
  ===> : At least TightSCF should be used for SCF convergence

WARNING: Geometry Optimization
  ===> : Switching off AutoStart
         For restart on a previous wavefunction, please use MOREAD

================================================================================
                                       INPUT FILE
================================================================================
NAME = run.inp
|  1> # Geometry optimization for (AlH3)n cluster
|  2> 
|  3> %pal nprocs 24  end
|  4> 
|  5> %geom MaxIter 500 end
|  6> 
|  7> 
|  8> ! PBE def2-SV(P)
|  9> ! RKS	# closed shell for AlH3
| 10> ! D3    #  dispersion correction
| 11> ! gCP(DFT/SV(P))
| 12> ! Freq 	# Frequency analysis to check the stabiltity of the structures
| 13> 
| 14> ! NoPop # population analysis not necessary	
| 15> 
| 16> ! DEFGRID2
| 17> ! NormalSCF
| 18> ! SloppyOpt
| 19> 
| 20> ! SmallPrint
| 21> 
| 22> 
| 23> * xyzFile 0 1 start.xyz # only maingroup elements H and Al so there should be no net spin
| 24> 
| 25>                          ****END OF INPUT****
================================================================================

                       *****************************
                       * Geometry Optimization Run *
                       *****************************

Geometry optimization settings:
Update method            Update   .... BFGS
Choice of coordinates    CoordSys .... (2022) Redundant Internals
Initial Hessian          InHess   .... Almloef's Model
Max. no of cycles        MaxIter  .... 500

Convergence Tolerances:
Energy Change            TolE     ....  8.0000e-05 Eh
Max. Gradient            TolMAXG  ....  5.0000e-03 Eh/bohr
RMS Gradient             TolRMSG  ....  1.0000e-03 Eh/bohr
Max. Displacement        TolMAXD  ....  3.0000e-02 bohr
RMS Displacement         TolRMSD  ....  2.0000e-02 bohr
Strict Convergence                .... False

------------------------------------------------------------------------------
                        ORCA OPTIMIZATION COORDINATE SETUP
------------------------------------------------------------------------------

The optimization will be done in redundant internal coordinates (2022)
Making redundant internal coordinates   ...  (2022 redundants) done
Evaluating the initial hessian          ...  (Almloef) done
Evaluating the coordinates              ...  done
Calculating the B-matrix                .... done
Calculating the G-matrix                .... done
The number of degrees of freedom        ....  792

    -----------------------------------------------------------------
                    Redundant Internal Coordinates


    -----------------------------------------------------------------
         Definition                    Initial Value    Approx d2E/dq
    -----------------------------------------------------------------
      1. B(Zr  2,Zr  1)                  3.4326         0.035247   
      2. B(Zr  3,Zr  0)                  3.4274         0.035932   
      3. B(Zr  4,Zr  1)                  3.3807         0.042651   
      4. B(Zr  4,Zr  3)                  3.4103         0.038252   
      5. B(Zr  5,Zr  0)                  3.3735         0.043803   
      6. B(Zr  5,Zr  2)                  3.4081         0.038568   
      7. B(O   6,Zr  5)                  2.1534         0.342745   
      8. B(O   6,Zr  0)                  2.0788         0.450937   
      9. B(O   6,Zr  3)                  2.0981         0.419958   
     10. B(O   7,Zr  2)                  2.1046         0.410173   
     11. B(O   7,Zr  4)                  2.1592         0.335538   
     12. B(O   7,Zr  1)                  2.0835         0.443099   
     13. B(O   8,Zr  5)                  2.1762         0.315253   
     14. B(O   8,Zr  1)                  2.1617         0.332530   
     15. B(O   8,Zr  2)                  2.1484         0.349128   
     16. B(O   9,Zr  0)                  2.1618         0.332334   
     17. B(O   9,Zr  3)                  2.1453         0.353135   
     18. B(O   9,Zr  4)                  2.1741         0.317733   
     19. B(O  10,Zr  3)                  2.0762         0.455273   
     20. B(O  10,Zr  4)                  2.1108         0.400870   
     21. B(O  10,Zr  1)                  2.1255         0.379814   
     22. B(O  11,Zr  5)                  2.1100         0.402113   
     23. B(O  11,Zr  0)                  2.1160         0.393277   
     24. B(O  11,Zr  2)                  2.0683         0.468678   
     25. B(O  12,Zr  0)                  1.9926         0.618771   
     26. B(O  13,Zr  0)                  1.9870         0.631786   
     27. B(O  14,Zr  0)                  2.0732         0.460313   
     28. B(O  15,Zr  0)                  1.9835         0.639938   
     29. B(O  16,Zr  1)                  1.9873         0.631052   
     30. B(O  17,Zr  1)                  2.0702         0.465310   
     31. B(O  18,Zr  1)                  1.9907         0.623078   
     32. B(O  19,Zr  1)                  1.9924         0.619270   
     33. B(O  20,Zr  2)                  1.9754         0.659306   
     34. B(O  21,Zr  2)                  2.0583         0.486142   
     35. B(O  22,Zr  2)                  1.9830         0.640970   
     36. B(O  23,Zr  2)                  2.0553         0.491601   
     37. B(O  24,Zr  3)                  2.0589         0.485049   
     38. B(O  25,Zr  3)                  1.9838         0.639286   
     39. B(O  26,Zr  3)                  2.0613         0.480789   
     40. B(O  27,Zr  3)                  1.9719         0.667840   
     41. B(O  28,Zr  4)                  1.9782         0.652374   
     42. B(O  29,Zr  4)                  2.0245         0.550469   
     43. B(O  30,Zr  4)                  1.9868         0.632144   
     44. B(O  31,Zr  4)                  2.0718         0.462655   
     45. B(O  32,Zr  5)                  2.0696         0.466387   
     46. B(O  33,Zr  5)                  1.9892         0.626688   
     47. B(O  34,Zr  5)                  2.0238         0.551913   
     48. B(O  35,Zr  5)                  1.9763         0.656929   
     49. B(C  36,O  33)                  1.3022         0.772687   
     50. B(C  36,O  12)                  1.3009         0.776157   
     51. B(C  37,O  25)                  1.3013         0.775197   
     52. B(C  37,O  13)                  1.3012         0.775442   
     53. B(C  38,O  21)                  1.2967         0.788373   
     54. B(C  38,O  14)                  1.2965         0.788806   
     55. B(C  39,O  29)                  1.2953         0.792416   
     56. B(C  39,O  15)                  1.2952         0.792777   
     57. B(C  40,O  34)                  1.2954         0.792031   
     58. B(C  40,O  16)                  1.2949         0.793660   
     59. B(C  41,O  26)                  1.2971         0.787240   
     60. B(C  41,O  17)                  1.2968         0.788179   
     61. B(C  42,O  18)                  1.3016         0.774392   
     62. B(C  42,O  22)                  1.3015         0.774509   
     63. B(C  43,O  19)                  1.3013         0.775096   
     64. B(C  43,O  30)                  1.3019         0.773433   
     65. B(C  44,O  35)                  1.2985         0.783311   
     66. B(C  44,O  20)                  1.2985         0.783238   
     67. B(C  45,O  31)                  1.2984         0.783469   
     68. B(C  45,O  23)                  1.3004         0.777849   
     69. B(C  46,O  24)                  1.3003         0.777909   
     70. B(C  46,O  32)                  1.2984         0.783358   
     71. B(C  47,O  27)                  1.2984         0.783522   
     72. B(C  47,O  28)                  1.2984         0.783450   
     73. B(H  48,C  41)                  1.0849         0.366916   
     74. B(H  49,C  42)                  1.0916         0.358037   
     75. B(H  50,C  38)                  1.0849         0.366971   
     76. B(H  51,C  37)                  1.0912         0.358456   
     77. B(H  52,C  43)                  1.0922         0.357192   
     78. B(H  53,C  47)                  1.0899         0.360263   
     79. B(H  54,C  39)                  1.0861         0.365306   
     80. B(H  55,C  45)                  1.0870         0.364112   
     81. B(H  56,C  40)                  1.0861         0.365322   
     82. B(H  57,C  46)                  1.0868         0.364310   
     83. B(H  58,C  36)                  1.0923         0.357103   
     84. B(H  59,C  44)                  1.0899         0.360294   
     85. B(Al 60,O  15)                  3.3526         0.010000   
     86. B(Al 60,O  13)                  3.2336         0.010000   
     87. B(Al 61,O  13)                  3.3476         0.010000   
     88. B(Al 61,Al 60)                  3.3173         0.025822   
     89. B(Al 61,O  12)                  3.3055         0.010000   
     90. B(H  62,O  12)                  2.9793         0.010000   
     91. B(H  62,Al 61)                  1.6691         0.300714   
     92. B(H  62,H  58)                  3.3344         0.010000   
     93. B(H  63,Al 61)                  1.5955         0.394015   
     94. B(H  64,O  13)                  2.7847         0.010000   
     95. B(H  64,Al 61)                  1.6697         0.300002   
     96. B(H  64,Al 60)                  1.6696         0.300074   
     97. B(H  64,C  37)                  3.5208         0.010000   
     98. B(H  64,H  51)                  3.3190         0.010000   
     99. B(H  65,Al 60)                  1.5954         0.394086   
    100. B(H  66,H  54)                  3.0121         0.010000   
    101. B(H  66,O  15)                  2.8445         0.010000   
    102. B(H  66,Al 60)                  1.6692         0.300584   
    103. B(H  66,C  39)                  3.3740         0.010000   
    104. B(H  67,O  13)                  2.9789         0.010000   
    105. B(H  67,H  51)                  2.8169         0.010000   
    106. B(H  67,O  12)                  2.7664         0.010000   
    107. B(H  67,Al 61)                  1.5964         0.392720   
    108. B(H  67,H  58)                  3.5014         0.010000   
    109. B(H  67,C  37)                  3.0518         0.010000   
    110. B(Al 68,H  62)                  1.6690         0.300743   
    111. B(Al 68,Al 61)                  3.3162         0.025929   
    112. B(Al 68,O  14)                  3.2448         0.010000   
    113. B(H  69,H  50)                  3.0158         0.010000   
    114. B(H  69,O  14)                  2.8714         0.010000   
    115. B(H  69,Al 68)                  1.6696         0.300110   
    116. B(H  69,C  38)                  3.3827         0.010000   
    117. B(H  70,Al 68)                  1.5956         0.393928   
    118. B(H  71,C  39)                  3.0582         0.010000   
    119. B(H  71,H  54)                  3.0093         0.010000   
    120. B(H  71,O  15)                  2.9287         0.010000   
    121. B(H  71,O  13)                  2.7260         0.010000   
    122. B(H  71,Al 60)                  1.5967         0.392235   
    123. B(H  71,H  51)                  3.4981         0.010000   
    124. B(H  71,C  37)                  3.4127         0.010000   
    125. B(Al 72,H  69)                  1.6693         0.300440   
    126. B(Al 72,Al 68)                  3.3166         0.025886   
    127. B(Al 72,H  66)                  1.6694         0.300325   
    128. B(Al 72,Al 60)                  3.3178         0.025775   
    129. B(Al 72,H  50)                  3.5435         0.010000   
    130. B(Al 72,H  54)                  3.5187         0.010000   
    131. B(Al 72,O  14)                  3.4271         0.010000   
    132. B(Al 72,O  15)                  3.2908         0.010000   
    133. B(H  73,Al 72)                  1.5955         0.393979   
    134. B(H  74,O  14)                  3.0608         0.010000   
    135. B(H  74,C  38)                  3.0041         0.010000   
    136. B(H  74,H  50)                  2.8699         0.010000   
    137. B(H  74,H  54)                  2.8632         0.010000   
    138. B(H  74,O  15)                  2.8349         0.010000   
    139. B(H  74,Al 72)                  1.5965         0.392498   
    140. B(H  74,C  39)                  3.1352         0.010000   
    141. B(H  75,H  50)                  2.9656         0.010000   
    142. B(H  75,C  36)                  2.9600         0.010000   
    143. B(H  75,O  14)                  2.8067         0.010000   
    144. B(H  75,H  58)                  2.7751         0.010000   
    145. B(H  75,Al 68)                  1.5961         0.393197   
    146. B(H  75,O  12)                  3.2486         0.010000   
    147. B(H  75,C  38)                  3.2222         0.010000   
    148. A(Zr  3,Zr  0,O   9)           37.1078         0.321119   
    149. A(O   9,Zr  0,O  11)           89.7596         0.445362   
    150. A(Zr  5,Zr  0,O   9)           94.8934         0.331761   
    151. A(Zr  3,Zr  0,O  14)          156.5720         0.338880   
    152. A(Zr  3,Zr  0,O   6)           35.0453         0.337719   
    153. A(O  12,Zr  0,O  13)           81.5470         0.545655   
    154. A(O   6,Zr  0,O  14)          127.8617         0.484696   
    155. A(Zr  5,Zr  0,O  13)          126.9084         0.369755   
    156. A(O   6,Zr  0,O  12)           81.5962         0.512097   
    157. A(Zr  5,Zr  0,O   6)           37.9196         0.349123   
    158. A(O  12,Zr  0,O  14)           79.9110         0.514073   
    159. A(Zr  5,Zr  0,O  11)           36.9731         0.341191   
    160. A(Zr  3,Zr  0,O  13)           72.4866         0.357446   
    161. A(O   9,Zr  0,O  15)           74.8420         0.486876   
    162. A(O  11,Zr  0,O  15)          106.9089         0.502331   
    163. A(O  13,Zr  0,O  15)           85.5132         0.549145   
    164. A(O   6,Zr  0,O  13)           93.3138         0.514095   
    165. A(Zr  5,Zr  0,O  14)           89.9981         0.350337   
    166. A(O  12,Zr  0,O  15)          134.8697         0.546982   
    167. A(O   9,Zr  0,O  12)          141.3499         0.483858   
    168. A(O   6,Zr  0,O  15)          142.4389         0.515331   
    169. A(O  13,Zr  0,O  14)          130.8946         0.516080   
    170. A(O  11,Zr  0,O  13)          158.6886         0.501134   
    171. A(Zr  3,Zr  0,Zr  5)           70.5856         0.253267   
    172. A(Zr  3,Zr  0,O  12)          105.7613         0.356184   
    173. A(O  11,Zr  0,O  12)          100.1861         0.499196   
    174. A(O  14,Zr  0,O  15)           76.5872         0.517321   
    175. A(Zr  3,Zr  0,O  15)          111.1003         0.358226   
    176. A(Zr  5,Zr  0,O  12)           73.4540         0.368435   
    177. A(O  11,Zr  0,O  14)           69.8532         0.472630   
    178. A(O   6,Zr  0,O  11)           66.1913         0.470847   
    179. A(O   6,Zr  0,O   9)           68.4291         0.456569   
    180. A(O   9,Zr  0,O  14)          137.9001         0.458285   
    181. A(O   9,Zr  0,O  13)           76.6054         0.485723   
    182. A(Zr  3,Zr  0,O  11)           86.7270         0.330135   
    183. A(Zr  5,Zr  0,O  15)          143.4111         0.370570   
    184. A(O   7,Zr  1,O  17)          127.6690         0.484093   
    185. A(O   8,Zr  1,O  16)           74.9183         0.485672   
    186. A(O  10,Zr  1,O  18)          157.8896         0.496615   
    187. A(O   7,Zr  1,O  18)           92.9285         0.511084   
    188. A(Zr  4,Zr  1,O  17)           89.7645         0.349401   
    189. A(Zr  4,Zr  1,O   7)           37.9549         0.346535   
    190. A(O   8,Zr  1,O  10)           88.7025         0.442610   
    191. A(O   8,Zr  1,O  18)           76.7772         0.484532   
    192. A(O  18,Zr  1,O  19)           81.5705         0.544306   
    193. A(Zr  4,Zr  1,O   8)           94.4842         0.330334   
    194. A(O  10,Zr  1,O  16)          106.9085         0.497790   
    195. A(O  17,Zr  1,O  18)          131.7062         0.515782   
    196. A(Zr  4,Zr  1,O  10)           36.9073         0.337706   
    197. A(O  16,Zr  1,O  18)           85.5608         0.546252   
    198. A(Zr  2,Zr  1,O   8)           37.0775         0.320140   
    199. A(Zr  2,Zr  1,O  19)          105.6094         0.355071   
    200. A(Zr  2,Zr  1,Zr  4)           70.6659         0.251569   
    201. A(O  16,Zr  1,O  17)           76.5978         0.517013   
    202. A(O  16,Zr  1,O  19)          134.9515         0.545618   
    203. A(O   8,Zr  1,O  19)          141.3492         0.483983   
    204. A(O  17,Zr  1,O  19)           80.4344         0.515191   
    205. A(Zr  2,Zr  1,O  10)           86.3081         0.327201   
    206. A(O   7,Zr  1,O  19)           81.3734         0.510499   
    207. A(O   7,Zr  1,O   8)           68.3309         0.455163   
    208. A(Zr  4,Zr  1,O  19)           73.5151         0.366805   
    209. A(Zr  2,Zr  1,O  18)           72.0273         0.355440   
    210. A(O  10,Zr  1,O  19)          100.6502         0.496049   
    211. A(Zr  2,Zr  1,O  17)          156.2361         0.338402   
    212. A(O   7,Zr  1,O  16)          142.5151         0.512300   
    213. A(Zr  4,Zr  1,O  18)          126.7241         0.367191   
    214. A(O  10,Zr  1,O  17)           69.9411         0.470549   
    215. A(Zr  4,Zr  1,O  16)          143.4062         0.367993   
    216. A(Zr  2,Zr  1,O  16)          111.0061         0.356208   
    217. A(Zr  2,Zr  1,O   7)           35.1555         0.335657   
    218. A(O   8,Zr  1,O  17)          137.2093         0.459239   
    219. A(O   7,Zr  1,O  10)           65.9639         0.466348   
    220. A(Zr  1,Zr  2,O  20)          110.1173         0.358870   
    221. A(O   7,Zr  2,O   8)           68.2086         0.452807   
    222. A(O  20,Zr  2,O  22)           83.2074         0.553777   
    223. A(Zr  5,Zr  2,O   8)           38.2829         0.327514   
    224. A(Zr  1,Zr  2,Zr  5)           70.7312         0.247908   
    225. A(Zr  5,Zr  2,O  21)           93.9130         0.346073   
    226. A(O  21,Zr  2,O  23)           77.7572         0.497521   
    227. A(Zr  5,Zr  2,O   7)           90.1117         0.336374   
    228. A(O   8,Zr  2,O  23)          139.6722         0.468029   
    229. A(O  20,Zr  2,O  23)          137.1318         0.526688   
    230. A(Zr  1,Zr  2,O   8)           37.3452         0.322702   
    231. A(O   7,Zr  2,O  20)          144.7049         0.509111   
    232. A(O  11,Zr  2,O  20)           97.8473         0.521983   
    233. A(Zr  1,Zr  2,O   7)           34.7535         0.331383   
    234. A(O   8,Zr  2,O  11)           67.6591         0.463954   
    235. A(Zr  5,Zr  2,O  22)          125.3700         0.362674   
    236. A(O   8,Zr  2,O  22)           89.9565         0.491487   
    237. A(O  20,Zr  2,O  21)           81.4401         0.525583   
    238. A(O  21,Zr  2,O  22)          131.2627         0.522805   
    239. A(O  11,Zr  2,O  21)           71.3004         0.493130   
    240. A(O  11,Zr  2,O  22)          156.9377         0.519228   
    241. A(O   7,Zr  2,O  22)           80.7668         0.506438   
    242. A(O   7,Zr  2,O  23)           71.4679         0.482108   
    243. A(O   7,Zr  2,O  11)           85.5442         0.477882   
    244. A(Zr  1,Zr  2,O  22)           71.8931         0.357153   
    245. A(O   7,Zr  2,O  21)          131.9058         0.481116   
    246. A(Zr  5,Zr  2,O  23)          143.9145         0.346723   
    247. A(Zr  1,Zr  2,O  11)           86.2973         0.338810   
    248. A(Zr  1,Zr  2,O  23)          103.7112         0.341524   
    249. A(O   8,Zr  2,O  20)           80.5885         0.494065   
    250. A(Zr  5,Zr  2,O  20)           74.0590         0.364427   
    251. A(Zr  1,Zr  2,O  21)          156.2624         0.340887   
    252. A(O  11,Zr  2,O  23)          110.0681         0.494152   
    253. A(Zr  5,Zr  2,O  11)           35.7526         0.343953   
    254. A(O   8,Zr  2,O  21)          132.0109         0.467072   
    255. A(O  22,Zr  2,O  23)           83.0605         0.523903   
    256. A(O   9,Zr  3,O  10)           67.6562         0.462463   
    257. A(Zr  4,Zr  3,O  10)           35.7996         0.341813   
    258. A(O  10,Zr  3,O  26)           71.1006         0.489479   
    259. A(O  25,Zr  3,O  27)           83.2056         0.554854   
    260. A(Zr  4,Zr  3,O  27)           74.1689         0.364716   
    261. A(Zr  4,Zr  3,O  25)          124.0085         0.362003   
    262. A(O   6,Zr  3,O  24)           71.3545         0.483013   
    263. A(O  24,Zr  3,O  27)          135.7489         0.526633   
    264. A(O  24,Zr  3,O  25)           82.5855         0.522326   
    265. A(Zr  4,Zr  3,O   6)           89.9134         0.337235   
    266. A(Zr  4,Zr  3,O   9)           38.1546         0.327686   
    267. A(Zr  4,Zr  3,O  24)          145.5967         0.345464   
    268. A(O  25,Zr  3,O  26)          132.1626         0.521462   
    269. A(O  24,Zr  3,O  26)           77.7177         0.495263   
    270. A(O   9,Zr  3,O  26)          132.5832         0.467101   
    271. A(Zr  0,Zr  3,Zr  4)           70.4334         0.248305   
    272. A(Zr  4,Zr  3,O  26)           94.5318         0.344953   
    273. A(Zr  0,Zr  3,O  26)          154.9797         0.341354   
    274. A(O   9,Zr  3,O  25)           88.8883         0.492288   
    275. A(O  10,Zr  3,O  25)          156.0822         0.516157   
    276. A(O   6,Zr  3,O  25)           81.6331         0.508421   
    277. A(Zr  0,Zr  3,O  25)           72.0034         0.358164   
    278. A(O  10,Zr  3,O  24)          111.9304         0.490280   
    279. A(O   9,Zr  3,O  24)          139.6517         0.467857   
    280. A(Zr  0,Zr  3,O   9)           37.4425         0.324330   
    281. A(O   6,Zr  3,O  10)           85.2079         0.477403   
    282. A(Zr  0,Zr  3,O   6)           34.6751         0.333745   
    283. A(Zr  0,Zr  3,O  24)          103.1090         0.341858   
    284. A(O  10,Zr  3,O  27)           97.2445         0.520402   
    285. A(O  26,Zr  3,O  27)           81.4975         0.525760   
    286. A(O   6,Zr  3,O  27)          146.3611         0.512590   
    287. A(O   6,Zr  3,O  26)          130.0577         0.482227   
    288. A(Zr  0,Zr  3,O  10)           85.8474         0.338258   
    289. A(O   9,Zr  3,O  27)           81.4823         0.496296   
    290. A(O   6,Zr  3,O   9)           68.3987         0.455700   
    291. A(Zr  0,Zr  3,O  27)          111.8018         0.360839   
    292. A(O   9,Zr  4,O  10)           66.5272         0.443286   
    293. A(O   7,Zr  4,O  10)           64.9017         0.447686   
    294. A(Zr  3,Zr  4,O  10)           35.1243         0.334635   
    295. A(O  10,Zr  4,O  28)           98.4583         0.505937   
    296. A(O   9,Zr  4,O  29)           72.5600         0.469652   
    297. A(O  10,Zr  4,O  30)           85.9355         0.502974   
    298. A(O  29,Zr  4,O  31)           73.7682         0.503443   
    299. A(Zr  1,Zr  4,Zr  3)           71.9992         0.254607   
    300. A(Zr  1,Zr  4,O  30)           70.8323         0.368102   
    301. A(O  29,Zr  4,O  30)          135.4061         0.533781   
    302. A(O   9,Zr  4,O  31)          134.4610         0.454969   
    303. A(Zr  3,Zr  4,O  29)          108.8318         0.352915   
    304. A(Zr  1,Zr  4,O  29)          146.4996         0.359498   
    305. A(O   9,Zr  4,O  28)           78.5449         0.484570   
    306. A(Zr  3,Zr  4,O  31)          159.6408         0.342735   
    307. A(O   7,Zr  4,O  29)          111.8168         0.474378   
    308. A(Zr  3,Zr  4,O   9)           37.5616         0.322047   
    309. A(O   7,Zr  4,O  31)           68.5281         0.459514   
    310. A(Zr  1,Zr  4,O  31)           94.5771         0.349064   
    311. A(O  10,Zr  4,O  31)          131.1540         0.474737   
    312. A(Zr  1,Zr  4,O   9)           96.8819         0.327860   
    313. A(O  28,Zr  4,O  31)          126.0955         0.519686   
    314. A(Zr  1,Zr  4,O   7)           36.4044         0.330826   
    315. A(O  28,Zr  4,O  29)           82.8317         0.536964   
    316. A(Zr  3,Zr  4,O  30)          106.7100         0.361309   
    317. A(O  10,Zr  4,O  29)          137.8044         0.490212   
    318. A(O   9,Zr  4,O  30)          143.0915         0.481759   
    319. A(O  28,Zr  4,O  30)           81.9838         0.551213   
    320. A(Zr  1,Zr  4,O  28)          127.1507         0.370099   
    321. A(Zr  3,Zr  4,O  28)           73.9314         0.363258   
    322. A(O   7,Zr  4,O  28)          162.9181         0.489482   
    323. A(O   7,Zr  4,O  30)           92.5077         0.486636   
    324. A(Zr  3,Zr  4,O   7)           92.4114         0.324941   
    325. A(Zr  1,Zr  4,O  10)           37.2073         0.340762   
    326. A(O   7,Zr  4,O   9)           97.0182         0.429304   
    327. A(O  30,Zr  4,O  31)           82.1008         0.516626   
    328. A(O  11,Zr  5,O  35)           98.8750         0.506886   
    329. A(O  34,Zr  5,O  35)           83.3065         0.537936   
    330. A(O  33,Zr  5,O  35)           82.1113         0.551034   
    331. A(O  32,Zr  5,O  35)          125.5292         0.521150   
    332. A(O   8,Zr  5,O  35)           78.4714         0.484491   
    333. A(O   6,Zr  5,O  35)          163.5766         0.492047   
    334. A(Zr  2,Zr  5,O  35)           74.1885         0.364202   
    335. A(O  33,Zr  5,O  34)          136.6919         0.533173   
    336. A(O  32,Zr  5,O  34)           74.1452         0.504444   
    337. A(O  11,Zr  5,O  34)          137.3402         0.490732   
    338. A(Zr  0,Zr  5,O  35)          127.9502         0.372245   
    339. A(O  32,Zr  5,O  33)           81.8545         0.516564   
    340. A(O   6,Zr  5,O  34)          110.3792         0.476466   
    341. A(Zr  2,Zr  5,O  34)          109.0447         0.353563   
    342. A(Zr  0,Zr  5,O  34)          144.9688         0.361296   
    343. A(O  11,Zr  5,O  33)           85.2646         0.502453   
    344. A(O   8,Zr  5,O  33)          142.2881         0.480295   
    345. A(O   6,Zr  5,O  33)           92.9990         0.487770   
    346. A(Zr  0,Zr  5,O  33)           70.9971         0.369240   
    347. A(O  11,Zr  5,O  32)          130.9743         0.475710   
    348. A(O   8,Zr  5,O  32)          135.4693         0.454986   
    349. A(O   6,Zr  5,O  32)           68.7073         0.461978   
    350. A(Zr  2,Zr  5,O  32)          160.1076         0.343670   
    351. A(Zr  2,Zr  5,O   6)           92.2612         0.326520   
    352. A(Zr  0,Zr  5,O   6)           36.3875         0.333462   
    353. A(Zr  0,Zr  5,Zr  2)           71.6690         0.255920   
    354. A(O   8,Zr  5,O  34)           72.4600         0.469203   
    355. A(Zr  0,Zr  5,O  32)           94.3172         0.351114   
    356. A(O   8,Zr  5,O  11)           66.4279         0.442907   
    357. A(O   6,Zr  5,O  11)           64.9905         0.449668   
    358. A(Zr  2,Zr  5,O  11)           34.9414         0.335265   
    359. A(Zr  0,Zr  5,O  11)           37.0968         0.342463   
    360. A(O   6,Zr  5,O   8)           96.6106         0.430339   
    361. A(Zr  2,Zr  5,O  33)          105.7308         0.361282   
    362. A(Zr  2,Zr  5,O   8)           37.7079         0.322067   
    363. A(Zr  0,Zr  5,O   8)           96.4072         0.328880   
    364. A(Zr  3,O   6,Zr  5)          135.1023         0.453230   
    365. A(Zr  0,O   6,Zr  5)          105.6929         0.459145   
    366. A(Zr  0,O   6,Zr  3)          110.2796         0.476563   
    367. A(Zr  1,O   7,Zr  4)          105.6407         0.455910   
    368. A(Zr  2,O   7,Zr  4)          135.0901         0.449553   
    369. A(Zr  1,O   7,Zr  2)          110.0911         0.472973   
    370. A(Zr  1,O   8,Zr  2)          105.5773         0.435932   
    371. A(Zr  2,O   8,Zr  5)          104.0092         0.431768   
    372. A(Zr  1,O   8,Zr  5)          131.7762         0.428009   
    373. A(Zr  3,O   9,Zr  4)          104.2838         0.433264   
    374. A(Zr  0,O   9,Zr  4)          130.8486         0.428566   
    375. A(Zr  0,O   9,Zr  3)          105.4497         0.436783   
    376. A(Zr  3,O  10,Zr  4)          109.0760         0.473335   
    377. A(Zr  1,O  10,Zr  4)          105.8853         0.457890   
    378. A(Zr  1,O  10,Zr  3)          143.6207         0.468670   
    379. A(Zr  2,O  11,Zr  5)          109.3060         0.476139   
    380. A(Zr  0,O  11,Zr  5)          105.9301         0.461071   
    381. A(Zr  0,O  11,Zr  2)          143.1961         0.474197   
    382. A(Zr  0,O  12,C  36)          125.4534         0.502252   
    383. A(C  36,O  12,Al 61)          124.4302         0.214107   
    384. A(Zr  0,O  12,Al 61)          105.8044         0.226597   
    385. A(Zr  0,O  13,C  37)          128.0075         0.504117   
    386. A(Al 60,O  13,Al 61)           60.5084         0.131702   
    387. A(C  37,O  13,Al 61)          104.0453         0.209783   
    388. A(Zr  0,O  13,Al 61)          104.4990         0.222496   
    389. A(C  37,O  13,Al 60)          124.1000         0.221786   
    390. A(Zr  0,O  13,Al 60)          107.7301         0.235763   
    391. A(Zr  0,O  14,C  38)          136.3286         0.476904   
    392. A(Al 68,O  14,Al 72)           59.5428         0.128601   
    393. A(C  38,O  14,Al 72)           96.3283         0.202493   
    394. A(C  38,O  14,Al 68)          111.0048         0.221068   
    395. A(Zr  0,O  14,Al 72)          106.3904         0.205313   
    396. A(Zr  0,O  14,Al 68)          112.6514         0.224350   
    397. A(Zr  0,O  15,C  39)          138.9188         0.507412   
    398. A(Al 60,O  15,Al 72)           59.9139         0.129550   
    399. A(C  39,O  15,Al 60)          101.5247         0.209880   
    400. A(Zr  0,O  15,Al 60)          103.6713         0.222323   
    401. A(C  39,O  15,Al 72)          106.7225         0.216261   
    402. A(Zr  0,O  15,Al 72)          113.9027         0.229360   
    403. A(Zr  1,O  16,C  40)          138.2318         0.506195   
    404. A(Zr  1,O  17,C  41)          135.4501         0.477784   
    405. A(Zr  1,O  18,C  42)          127.6206         0.502688   
    406. A(Zr  1,O  19,C  43)          125.3309         0.502199   
    407. A(Zr  2,O  20,C  44)          132.0805         0.509092   
    408. A(Zr  2,O  21,C  38)          138.7795         0.481679   
    409. A(Zr  2,O  22,C  42)          128.6016         0.505362   
    410. A(Zr  2,O  23,C  45)          137.0093         0.481477   
    411. A(Zr  3,O  24,C  46)          137.2983         0.480293   
    412. A(Zr  3,O  25,C  37)          129.0524         0.505197   
    413. A(Zr  3,O  26,C  41)          139.5350         0.480568   
    414. A(Zr  3,O  27,C  47)          131.9320         0.510352   
    415. A(Zr  4,O  28,C  47)          131.9885         0.508114   
    416. A(Zr  4,O  29,C  39)          139.0011         0.493348   
    417. A(Zr  4,O  30,C  43)          128.2192         0.503926   
    418. A(Zr  4,O  31,C  45)          128.6294         0.476754   
    419. A(Zr  5,O  32,C  46)          128.8241         0.477447   
    420. A(Zr  5,O  33,C  36)          127.6780         0.503023   
    421. A(Zr  5,O  34,C  40)          140.1713         0.493543   
    422. A(Zr  5,O  35,C  44)          131.8051         0.508758   
    423. A(O  12,C  36,O  33)          126.6487         0.464359   
    424. A(O  33,C  36,H  58)          116.7077         0.363590   
    425. A(O  12,C  36,H  58)          116.6431         0.363869   
    426. A(O  13,C  37,O  25)          127.3628         0.464556   
    427. A(O  25,C  37,H  51)          116.3062         0.364027   
    428. A(O  13,C  37,H  51)          116.3306         0.364047   
    429. A(O  14,C  38,O  21)          130.0353         0.467453   
    430. A(O  21,C  38,H  50)          114.9173         0.366549   
    431. A(O  14,C  38,H  50)          115.0411         0.366583   
    432. A(O  15,C  39,O  29)          128.8946         0.468322   
    433. A(O  29,C  39,H  54)          115.4701         0.366585   
    434. A(O  15,C  39,H  54)          115.6319         0.366613   
    435. A(O  16,C  40,O  34)          128.9529         0.468376   
    436. A(O  34,C  40,H  56)          115.5227         0.366557   
    437. A(O  16,C  40,H  56)          115.5178         0.366686   
    438. A(O  17,C  41,O  26)          130.0428         0.467261   
    439. A(O  26,C  41,H  48)          114.9389         0.366449   
    440. A(O  17,C  41,H  48)          115.0126         0.366524   
    441. A(O  18,C  42,O  22)          127.3484         0.464366   
    442. A(O  22,C  42,H  49)          116.3240         0.363899   
    443. A(O  18,C  42,H  49)          116.3276         0.363889   
    444. A(O  30,C  43,H  52)          116.6654         0.363666   
    445. A(O  19,C  43,H  52)          116.6313         0.363799   
    446. A(O  19,C  43,O  30)          126.7015         0.464325   
    447. A(O  35,C  44,H  59)          116.1923         0.364995   
    448. A(O  20,C  44,H  59)          116.2245         0.364989   
    449. A(O  20,C  44,O  35)          127.5831         0.466296   
    450. A(O  31,C  45,H  55)          115.1096         0.365667   
    451. A(O  23,C  45,H  55)          115.1961         0.365217   
    452. A(O  23,C  45,O  31)          129.6913         0.465724   
    453. A(O  32,C  46,H  57)          115.0738         0.365692   
    454. A(O  24,C  46,H  57)          115.1414         0.365255   
    455. A(O  24,C  46,O  32)          129.7831         0.465718   
    456. A(O  28,C  47,H  53)          116.2096         0.365001   
    457. A(O  27,C  47,H  53)          116.2500         0.365007   
    458. A(O  27,C  47,O  28)          127.5403         0.466342   
    459. A(O  13,Al 60,O  15)           48.2748         0.131523   
    460. A(O  15,Al 60,Al 72)           59.1174         0.158935   
    461. A(O  15,Al 60,H  66)           57.9765         0.188966   
    462. A(O  15,Al 60,H  65)          154.5932         0.195285   
    463. A(O  15,Al 60,H  64)           94.5087         0.188927   
    464. A(O  15,Al 60,Al 61)           92.3616         0.158964   
    465. A(O  15,Al 60,H  71)           60.8683         0.195172   
    466. A(O  13,Al 60,Al 72)           96.7122         0.166209   
    467. A(O  13,Al 60,H  71)           57.3243         0.206215   
    468. A(O  13,Al 60,H  66)           98.8023         0.199363   
    469. A(O  13,Al 60,H  65)          151.0416         0.206340   
    470. A(O  13,Al 60,H  64)           59.4431         0.199320   
    471. A(O  13,Al 60,Al 61)           61.4462         0.166240   
    472. A(H  71,Al 60,Al 72)          114.9460         0.281774   
    473. A(H  66,Al 60,Al 72)            6.3961         0.270505   
    474. A(H  65,Al 60,Al 72)          111.8164         0.281980   
    475. A(H  64,Al 60,Al 72)           96.2678         0.270436   
    476. A(Al 61,Al 60,Al 72)           89.8216         0.216031   
    477. A(H  66,Al 60,H  71)          110.9539         0.364553   
    478. A(H  65,Al 60,H  71)          111.2501         0.381973   
    479. A(H  64,Al 60,H  71)          111.1658         0.364447   
    480. A(Al 61,Al 60,H  71)          115.4495         0.281853   
    481. A(H  65,Al 60,H  66)          110.0967         0.364847   
    482. A(H  64,Al 60,H  66)          102.5515         0.348345   
    483. A(Al 61,Al 60,H  66)           96.1328         0.270579   
    484. A(H  64,Al 60,H  65)          110.5115         0.364741   
    485. A(Al 61,Al 60,H  65)          112.0034         0.282059   
    486. A(Al 61,Al 60,H  64)            6.5840         0.270509   
    487. A(O  12,Al 61,O  13)           45.9832         0.129224   
    488. A(O  13,Al 61,Al 68)           96.1160         0.159324   
    489. A(O  13,Al 61,H  67)           62.8288         0.195649   
    490. A(O  13,Al 61,H  64)           56.0704         0.189342   
    491. A(O  13,Al 61,H  63)          151.4718         0.195728   
    492. A(O  13,Al 61,H  62)           97.9128         0.189396   
    493. A(O  13,Al 61,Al 60)           58.0455         0.159258   
    494. A(O  12,Al 61,Al 68)           66.0325         0.161826   
    495. A(O  12,Al 61,H  67)           56.5186         0.199444   
    496. A(O  12,Al 61,H  64)           94.5950         0.192913   
    497. A(O  12,Al 61,H  63)          155.9906         0.199526   
    498. A(O  12,Al 61,H  62)           64.0054         0.192968   
    499. A(O  12,Al 61,Al 60)           93.2897         0.161758   
    500. A(H  67,Al 61,Al 68)          116.1576         0.282088   
    501. A(H  64,Al 61,Al 68)           96.5940         0.270670   
    502. A(H  63,Al 61,Al 68)          110.6982         0.282232   
    503. A(H  62,Al 61,Al 68)            6.5665         0.270767   
    504. A(Al 60,Al 61,Al 68)           90.1634         0.216202   
    505. A(H  64,Al 61,H  67)          112.5383         0.364509   
    506. A(H  63,Al 61,H  67)          110.6285         0.382043   
    507. A(H  62,Al 61,H  67)          111.3208         0.364657   
    508. A(Al 60,Al 61,H  67)          117.0511         0.281907   
    509. A(H  63,Al 61,H  64)          109.3916         0.364714   
    510. A(H  62,Al 61,H  64)          102.8583         0.348356   
    511. A(Al 60,Al 61,H  64)            6.5838         0.270500   
    512. A(H  62,Al 61,H  63)          109.8353         0.364862   
    513. A(Al 60,Al 61,H  63)          110.6590         0.282051   
    514. A(Al 60,Al 61,H  62)           96.4780         0.270597   
    515. A(Al 61,H  62,Al 68)          166.8668         0.348501   
    516. A(Al 60,H  64,Al 61)          166.8322         0.348231   
    517. A(Al 60,H  66,Al 72)          167.2086         0.348394   
    518. A(O  14,Al 68,H  75)           59.8734         0.205195   
    519. A(O  14,Al 68,Al 72)           62.9632         0.165569   
    520. A(O  14,Al 68,H  70)          158.5429         0.205244   
    521. A(O  14,Al 68,H  69)           62.0913         0.198303   
    522. A(O  14,Al 68,H  62)           91.5226         0.198355   
    523. A(O  14,Al 68,Al 61)           90.1853         0.165598   
    524. A(Al 72,Al 68,H  75)          115.7108         0.282068   
    525. A(H  70,Al 68,H  75)          110.7323         0.382109   
    526. A(H  69,Al 68,H  75)          111.4709         0.364607   
    527. A(H  62,Al 68,H  75)          111.9048         0.364739   
    528. A(Al 61,Al 68,H  75)          116.5701         0.282141   
    529. A(H  70,Al 68,Al 72)          111.5621         0.282149   
    530. A(H  69,Al 68,Al 72)            6.6199         0.270616   
    531. A(H  62,Al 68,Al 72)           96.1955         0.270703   
    532. A(Al 61,Al 68,Al 72)           89.8610         0.216273   
    533. A(H  69,Al 68,H  70)          109.8745         0.364723   
    534. A(H  62,Al 68,H  70)          109.8896         0.364855   
    535. A(Al 61,Al 68,H  70)          110.9259         0.282222   
    536. A(H  62,Al 68,H  69)          102.6978         0.348383   
    537. A(Al 61,Al 68,H  69)           96.3993         0.270685   
    538. A(Al 61,Al 68,H  62)            6.5666         0.270771   
    539. A(Al 68,H  69,Al 72)          166.7590         0.348324   
    540. A(O  14,Al 72,O  15)           43.9101         0.127116   
    541. A(O  14,Al 72,H  74)           63.2505         0.188813   
    542. A(O  14,Al 72,H  73)          156.3366         0.188898   
    543. A(O  14,Al 72,H  69)           56.6700         0.182953   
    544. A(O  14,Al 72,Al 68)           57.4940         0.154800   
    545. A(O  14,Al 72,H  66)           92.2285         0.182945   
    546. A(O  14,Al 72,Al 60)           89.7796         0.154736   
    547. A(O  15,Al 72,H  74)           59.4485         0.200793   
    548. A(O  15,Al 72,H  73)          155.3605         0.200889   
    549. A(O  15,Al 72,H  69)           94.2023         0.194231   
    550. A(O  15,Al 72,Al 68)           92.0167         0.162698   
    551. A(O  15,Al 72,H  66)           59.8129         0.194222   
    552. A(O  15,Al 72,Al 60)           60.9687         0.162627   
    553. A(H  73,Al 72,H  74)          110.7830         0.382000   
    554. A(H  69,Al 72,H  74)          110.5106         0.364565   
    555. A(Al 68,Al 72,H  74)          114.6565         0.281990   
    556. A(H  66,Al 72,H  74)          111.2272         0.364541   
    557. A(Al 60,Al 72,H  74)          115.2178         0.281804   
    558. A(H  69,Al 72,H  73)          110.3749         0.364800   
    559. A(Al 68,Al 72,H  73)          112.2091         0.282155   
    560. A(H  66,Al 72,H  73)          110.7547         0.364776   
    561. A(Al 60,Al 72,H  73)          112.4627         0.281968   
    562. A(Al 68,Al 72,H  69)            6.6211         0.270661   
    563. A(H  66,Al 72,H  69)          102.9487         0.348366   
    564. A(Al 60,Al 72,H  69)           96.6746         0.270486   
    565. A(H  66,Al 72,Al 68)           96.4454         0.270645   
    566. A(Al 60,Al 72,Al 68)           90.1470         0.216102   
    567. A(Al 60,Al 72,H  66)            6.3952         0.270470   
    568. D(Zr  5,Zr  2,Zr  1,O   7)    120.4961         0.010000   
    569. D(O   7,Zr  2,Zr  1,Zr  4)    -17.6282         0.010000   
    570. D(Zr  5,Zr  2,Zr  1,Zr  4)    102.8679         0.010000   
    571. D(Zr  4,Zr  3,Zr  0,O   6)   -120.7278         0.010000   
    572. D(O   6,Zr  3,Zr  0,Zr  5)     17.4180         0.010000   
    573. D(Zr  4,Zr  3,Zr  0,Zr  5)   -103.3098         0.010000   
    574. D(Zr  3,Zr  4,Zr  1,Zr  2)   -104.5408         0.010000   
    575. D(O   7,Zr  4,Zr  3,Zr  0)     74.1051         0.010000   
    576. D(Zr  3,Zr  4,Zr  1,O   7)   -121.0110         0.010000   
    577. D(Zr  1,Zr  4,Zr  3,O   6)     75.4313         0.010000   
    578. D(O   7,Zr  4,Zr  1,Zr  2)     16.4702         0.010000   
    579. D(Zr  1,Zr  4,Zr  3,Zr  0)    104.7093         0.010000   
    580. D(Zr  2,Zr  5,Zr  0,O   6)    121.3094         0.010000   
    581. D(Zr  0,Zr  5,Zr  2,Zr  1)   -104.7798         0.010000   
    582. D(O   6,Zr  5,Zr  0,Zr  3)    -16.2421         0.010000   
    583. D(Zr  2,Zr  5,Zr  0,Zr  3)    105.0673         0.010000   
    584. D(Zr  0,Zr  5,Zr  2,O   7)    -75.3611         0.010000   
    585. D(O   6,Zr  5,Zr  2,Zr  1)    -74.2993         0.010000   
    586. D(Zr  0,O   6,Zr  5,O   8)    -91.8397         0.010000   
    587. D(Zr  0,O   6,Zr  5,Zr  2)    -54.2575         0.010000   
    588. D(Zr  3,O   6,Zr  0,Zr  5)   -152.6523         0.010000   
    589. D(Zr  5,O   6,Zr  3,Zr  0)   -141.2018         0.010000   
    590. D(Zr  0,O   6,Zr  3,Zr  4)     54.0926         0.010000   
    591. D(Zr  0,O   6,Zr  3,O   9)     21.7804         0.010000   
    592. D(Zr  3,O   6,Zr  5,Zr  0)    142.3747         0.010000   
    593. D(Zr  3,O   6,Zr  0,O   9)    -21.6007         0.010000   
    594. D(Zr  5,O   6,Zr  0,Zr  3)    152.6523         0.010000   
    595. D(Zr  1,O   7,Zr  2,Zr  5)    -54.4290         0.010000   
    596. D(Zr  4,O   7,Zr  1,Zr  2)   -152.3143         0.010000   
    597. D(Zr  2,O   7,Zr  1,O   8)     22.0612         0.010000   
    598. D(Zr  2,O   7,Zr  1,Zr  4)    152.3143         0.010000   
    599. D(Zr  1,O   7,Zr  4,O   9)     92.0901         0.010000   
    600. D(Zr  1,O   7,Zr  4,Zr  3)     54.6704         0.010000   
    601. D(Zr  2,O   7,Zr  4,Zr  1)   -141.8253         0.010000   
    602. D(Zr  4,O   7,Zr  2,Zr  1)    140.6734         0.010000   
    603. D(Zr  1,O   7,Zr  2,O   8)    -22.2245         0.010000   
    604. D(Zr  1,O   8,Zr  5,Zr  2)   -126.4427         0.010000   
    605. D(Zr  2,O   8,Zr  5,Zr  0)     48.4947         0.010000   
    606. D(Zr  1,O   8,Zr  5,Zr  0)    -77.9480         0.010000   
    607. D(Zr  1,O   8,Zr  2,Zr  5)    141.4793         0.010000   
    608. D(Zr  1,O   8,Zr  2,O   7)     20.8201         0.010000   
    609. D(Zr  2,O   8,Zr  1,O   7)    -21.0213         0.010000   
    610. D(Zr  5,O   8,Zr  1,Zr  2)    125.8760         0.010000   
    611. D(Zr  5,O   8,Zr  2,Zr  1)   -141.4793         0.010000   
    612. D(Zr  2,O   8,Zr  1,Zr  4)    -49.1100         0.010000   
    613. D(Zr  0,O   9,Zr  3,O   6)    -20.3175         0.010000   
    614. D(Zr  3,O   9,Zr  4,Zr  1)    -48.1221         0.010000   
    615. D(Zr  0,O   9,Zr  4,Zr  3)    125.6998         0.010000   
    616. D(Zr  0,O   9,Zr  4,Zr  1)     77.5777         0.010000   
    617. D(Zr  4,O   9,Zr  3,Zr  0)    140.4074         0.010000   
    618. D(Zr  0,O   9,Zr  3,Zr  4)   -140.4074         0.010000   
    619. D(Zr  4,O   9,Zr  0,Zr  3)   -125.2656         0.010000   
    620. D(Zr  3,O   9,Zr  0,O   6)     20.5108         0.010000   
    621. D(Zr  3,O   9,Zr  0,Zr  5)     48.2303         0.010000   
    622. D(Zr  1,O  10,Zr  4,O   7)    -31.4792         0.010000   
    623. D(Zr  1,O  10,Zr  4,Zr  3)   -169.7772         0.010000   
    624. D(Zr  4,O  10,Zr  3,Zr  0)    -61.7469         0.010000   
    625. D(Zr  1,O  10,Zr  3,Zr  4)    163.2741         0.010000   
    626. D(Zr  1,O  10,Zr  3,Zr  0)    101.5272         0.010000   
    627. D(Zr  4,O  10,Zr  1,Zr  2)     62.1900         0.010000   
    628. D(Zr  3,O  10,Zr  1,Zr  2)   -101.3833         0.010000   
    629. D(Zr  3,O  10,Zr  4,Zr  1)    169.7772         0.010000   
    630. D(Zr  3,O  10,Zr  1,Zr  4)   -163.5733         0.010000   
    631. D(Zr  2,O  11,Zr  5,Zr  0)   -169.1947         0.010000   
    632. D(Zr  0,O  11,Zr  5,Zr  2)    169.1947         0.010000   
    633. D(Zr  5,O  11,Zr  2,Zr  1)     61.5698         0.010000   
    634. D(Zr  0,O  11,Zr  2,Zr  5)   -162.4873         0.010000   
    635. D(Zr  0,O  11,Zr  2,Zr  1)   -100.9174         0.010000   
    636. D(Zr  5,O  11,Zr  0,Zr  3)    -61.4705         0.010000   
    637. D(Zr  0,O  11,Zr  5,O   6)     31.1462         0.010000   
    638. D(Zr  2,O  11,Zr  0,Zr  5)    162.8222         0.010000   
    639. D(Zr  2,O  11,Zr  0,Zr  3)    101.3517         0.010000   
    640. D(Al 61,O  12,Zr  0,Zr  3)   -109.3056         0.010000   
    641. D(C  36,O  12,Zr  0,Zr  5)     29.7070         0.010000   
    642. D(C  36,O  12,Zr  0,Zr  3)     93.3377         0.010000   
    643. D(Al 60,O  13,Zr  0,Zr  3)   -147.8670         0.010000   
    644. D(C  37,O  13,Zr  0,Zr  5)    -20.1041         0.010000   
    645. D(C  37,O  13,Zr  0,Zr  3)     27.6036         0.010000   
    646. D(Al 68,O  14,Zr  0,Zr  3)   -149.1114         0.010000   
    647. D(C  38,O  14,Zr  0,Zr  5)     62.5623         0.010000   
    648. D(C  38,O  14,Zr  0,Zr  3)     29.2924         0.010000   
    649. D(Al 72,O  15,Zr  0,Zr  3)    164.1030         0.010000   
    650. D(C  39,O  15,Zr  0,Zr  5)     60.5019         0.010000   
    651. D(C  39,O  15,Zr  0,Zr  3)    -25.0281         0.010000   
    652. D(C  40,O  16,Zr  1,Zr  4)    -58.0108         0.010000   
    653. D(C  40,O  16,Zr  1,Zr  2)     27.5301         0.010000   
    654. D(C  41,O  17,Zr  1,Zr  4)    -65.9465         0.010000   
    655. D(C  41,O  17,Zr  1,Zr  2)    -32.1411         0.010000   
    656. D(C  42,O  18,Zr  1,Zr  4)     17.8922         0.010000   
    657. D(C  42,O  18,Zr  1,Zr  2)    -29.5561         0.010000   
    658. D(C  43,O  19,Zr  1,Zr  4)    -29.6562         0.010000   
    659. D(C  43,O  19,Zr  1,Zr  2)    -93.4779         0.010000   
    660. D(C  44,O  20,Zr  2,Zr  5)      4.0007         0.010000   
    661. D(C  44,O  20,Zr  2,Zr  1)    -57.9572         0.010000   
    662. D(C  38,O  21,Zr  2,Zr  5)    -39.3123         0.010000   
    663. D(C  38,O  21,Zr  2,Zr  1)      8.9173         0.010000   
    664. D(C  42,O  22,Zr  2,Zr  5)     20.5926         0.010000   
    665. D(C  42,O  22,Zr  2,Zr  1)    -28.2677         0.010000   
    666. D(C  45,O  23,Zr  2,Zr  5)    -76.0422         0.010000   
    667. D(C  45,O  23,Zr  2,Zr  1)     -0.0441         0.010000   
    668. D(C  46,O  24,Zr  3,Zr  4)     71.3438         0.010000   
    669. D(C  46,O  24,Zr  3,Zr  0)     -3.0794         0.010000   
    670. D(C  37,O  25,Zr  3,Zr  4)    -22.8240         0.010000   
    671. D(C  37,O  25,Zr  3,Zr  0)     27.0872         0.010000   
    672. D(C  41,O  26,Zr  3,Zr  4)     35.8332         0.010000   
    673. D(C  41,O  26,Zr  3,Zr  0)    -15.5205         0.010000   
    674. D(C  47,O  27,Zr  3,Zr  4)     -5.7132         0.010000   
    675. D(C  47,O  27,Zr  3,Zr  0)     55.0548         0.010000   
    676. D(C  47,O  28,Zr  4,Zr  1)     46.0464         0.010000   
    677. D(C  47,O  28,Zr  4,Zr  3)     -5.5113         0.010000   
    678. D(C  39,O  29,Zr  4,Zr  3)     37.1755         0.010000   
    679. D(C  39,O  29,Zr  4,Zr  1)    -48.4484         0.010000   
    680. D(C  43,O  30,Zr  4,Zr  3)    -97.5833         0.010000   
    681. D(C  43,O  30,Zr  4,Zr  1)    -34.0671         0.010000   
    682. D(C  45,O  31,Zr  4,Zr  3)    -27.7797         0.010000   
    683. D(C  45,O  31,Zr  4,Zr  1)    -75.2969         0.010000   
    684. D(C  46,O  32,Zr  5,Zr  2)     30.8968         0.010000   
    685. D(C  46,O  32,Zr  5,Zr  0)     74.9801         0.010000   
    686. D(C  36,O  33,Zr  5,Zr  2)     98.3549         0.010000   
    687. D(C  36,O  33,Zr  5,Zr  0)     34.6235         0.010000   
    688. D(C  40,O  34,Zr  5,Zr  2)    -32.3401         0.010000   
    689. D(C  40,O  34,Zr  5,Zr  0)     52.6573         0.010000   
    690. D(C  44,O  35,Zr  5,Zr  2)      4.9273         0.010000   
    691. D(C  44,O  35,Zr  5,Zr  0)    -45.6243         0.010000   
    692. D(H  58,C  36,O  12,Zr  0)    161.3175         0.067715   
    693. D(O  33,C  36,O  12,Al 61)   -171.7173         0.067715   
    694. D(O  33,C  36,O  12,Zr  0)    -18.4043         0.067715   
    695. D(H  58,C  36,O  33,Zr  5)    152.2082         0.050480   
    696. D(O  12,C  36,O  33,Zr  5)    -28.0701         0.050480   
    697. D(H  51,C  37,O  25,Zr  3)    160.4577         0.059640   
    698. D(O  13,C  37,O  25,Zr  3)    -19.3068         0.059640   
    699. D(H  51,C  37,O  13,Zr  0)    159.3231         0.078233   
    700. D(O  25,C  37,O  13,Al 60)    153.8758         0.078233   
    701. D(O  25,C  37,O  13,Zr  0)    -20.9124         0.078233   
    702. D(H  50,C  38,O  21,Zr  2)    175.0551         0.061943   
    703. D(O  14,C  38,O  21,Zr  2)     -3.9758         0.061943   
    704. D(H  50,C  38,O  14,Zr  0)    168.8540         0.081314   
    705. D(O  21,C  38,O  14,Al 68)    166.3059         0.081314   
    706. D(O  21,C  38,O  14,Zr  0)    -12.1161         0.081314   
    707. D(H  54,C  39,O  29,Zr  4)   -178.6952         0.062660   
    708. D(O  15,C  39,O  29,Zr  4)      2.0095         0.062660   
    709. D(H  54,C  39,O  15,Zr  0)    170.5538         0.082244   
    710. D(O  29,C  39,O  15,Al 72)    161.1348         0.082244   
    711. D(O  29,C  39,O  15,Zr  0)    -10.1519         0.082244   
    712. D(H  56,C  40,O  34,Zr  5)    175.1392         0.048234   
    713. D(O  16,C  40,O  34,Zr  5)     -5.8462         0.048234   
    714. D(H  56,C  40,O  16,Zr  1)   -171.9550         0.048456   
    715. D(O  34,C  40,O  16,Zr  1)      9.0304         0.048456   
    716. D(H  48,C  41,O  26,Zr  3)   -174.0777         0.047584   
    717. D(O  17,C  41,O  26,Zr  3)      4.9991         0.047584   
    718. D(H  48,C  41,O  17,Zr  1)   -164.8877         0.047711   
    719. D(O  26,C  41,O  17,Zr  1)     16.0360         0.047711   
    720. D(H  49,C  42,O  22,Zr  2)   -160.3169         0.045885   
    721. D(O  18,C  42,O  22,Zr  2)     19.5852         0.045885   
    722. D(H  49,C  42,O  18,Zr  1)   -157.1505         0.045870   
    723. D(O  22,C  42,O  18,Zr  1)     22.9474         0.045870   
    724. D(H  52,C  43,O  30,Zr  4)   -153.3176         0.045744   
    725. D(O  19,C  43,O  30,Zr  4)     27.1924         0.045744   
    726. D(H  52,C  43,O  19,Zr  1)   -160.5202         0.045963   
    727. D(O  30,C  43,O  19,Zr  1)     18.9700         0.045963   
    728. D(H  59,C  44,O  35,Zr  5)    175.7525         0.047056   
    729. D(O  20,C  44,O  35,Zr  5)     -4.3156         0.047056   
    730. D(H  59,C  44,O  20,Zr  2)    177.6568         0.047046   
    731. D(O  35,C  44,O  20,Zr  2)     -2.2751         0.047046   
    732. D(H  55,C  45,O  31,Zr  4)   -162.6815         0.047077   
    733. D(O  23,C  45,O  31,Zr  4)     16.6526         0.047077   
    734. D(H  55,C  45,O  23,Zr  2)   -146.8259         0.046327   
    735. D(O  31,C  45,O  23,Zr  2)     33.8405         0.046327   
    736. D(H  57,C  46,O  32,Zr  5)    162.7832         0.047062   
    737. D(O  24,C  46,O  32,Zr  5)    -16.7106         0.047062   
    738. D(H  57,C  46,O  24,Zr  3)    149.0651         0.046335   
    739. D(O  32,C  46,O  24,Zr  3)    -31.4414         0.046335   
    740. D(H  53,C  47,O  28,Zr  4)   -176.0309         0.047075   
    741. D(O  27,C  47,O  28,Zr  4)      3.9340         0.047075   
    742. D(H  53,C  47,O  27,Zr  3)   -175.6744         0.047084   
    743. D(O  28,C  47,O  27,Zr  3)      4.3606         0.047084   
    744. D(H  64,Al 60,O  15,Zr  0)     15.3239         0.010000   
    745. D(Al 61,Al 60,O  15,C  39)    168.8391         0.010000   
    746. D(Al 61,Al 60,O  15,Zr  0)     21.5596         0.010000   
    747. D(H  64,Al 60,O  13,Zr  0)   -104.1705         0.010000   
    748. D(Al 61,Al 60,O  13,C  37)     87.3511         0.010000   
    749. D(Al 61,Al 60,O  13,Zr  0)    -96.9584         0.010000   
    750. D(H  62,Al 61,Al 60,H  65)   -115.9907         0.010000   
    751. D(H  62,Al 61,Al 60,H  64)    165.8402         0.010000   
    752. D(H  62,Al 61,O  13,Zr  0)      9.6968         0.010000   
    753. D(Al 60,Al 61,O  13,C  37)   -121.4971         0.010000   
    754. D(Al 60,Al 61,O  13,Zr  0)    102.4224         0.010000   
    755. D(H  62,Al 61,O  12,Zr  0)   -101.3043         0.010000   
    756. D(Al 60,Al 61,O  12,C  36)    151.9552         0.010000   
    757. D(H  63,Al 61,Al 60,H  64)    -80.0944         0.010000   
    758. D(Al 60,Al 61,O  12,Zr  0)     -5.6976         0.010000   
    759. D(Al 68,H  62,Al 61,H  63)    -98.7445         0.010000   
    760. D(Al 68,H  62,Al 61,Al 60)     15.9906         0.010000   
    761. D(Al 60,H  64,Al 61,H  63)    102.2632         0.010000   
    762. D(Al 60,H  64,Al 61,H  62)    -14.4371         0.010000   
    763. D(Al 61,H  64,Al 60,H  66)     13.0027         0.010000   
    764. D(Al 61,H  64,Al 60,H  65)   -104.3288         0.010000   
    765. D(Al 72,H  66,Al 60,H  64)    -10.8677         0.010000   
    766. D(Al 72,H  66,Al 60,Al 61)     -9.3809         0.010000   
    767. D(H  69,Al 68,H  62,Al 61)    -16.6031         0.010000   
    768. D(H  69,Al 68,Al 61,Al 60)     -0.4041         0.010000   
    769. D(H  62,Al 68,Al 61,H  63)     83.6620         0.010000   
    770. D(H  62,Al 68,Al 61,Al 60)   -164.1141         0.010000   
    771. D(H  62,Al 68,O  14,Zr  0)     -0.0966         0.010000   
    772. D(Al 61,Al 68,O  14,C  38)    174.6541         0.010000   
    773. D(H  70,Al 68,H  62,Al 61)    100.2760         0.010000   
    774. D(Al 61,Al 68,O  14,Zr  0)     -6.5265         0.010000   
    775. D(Al 72,H  69,Al 68,H  62)     10.9276         0.010000   
    776. D(Al 72,H  69,Al 68,Al 61)      9.0432         0.010000   
    777. D(H  66,Al 72,H  69,Al 68)    -10.9445         0.010000   
    778. D(Al 60,Al 72,H  69,Al 68)     -9.6868         0.010000   
    779. D(Al 60,Al 72,Al 68,H  62)      1.1000         0.010000   
    780. D(Al 60,Al 72,Al 68,Al 61)     -0.6341         0.010000   
    781. D(H  69,Al 72,H  66,Al 60)     11.2869         0.010000   
    782. D(Al 68,Al 72,H  66,Al 60)     10.0246         0.010000   
    783. D(Al 68,Al 72,Al 60,Al 61)      0.6339         0.010000   
    784. D(H  66,Al 72,Al 60,H  64)    169.3306         0.010000   
    785. D(H  66,Al 72,Al 60,Al 61)    170.6733         0.010000   
    786. D(H  66,Al 72,O  15,Zr  0)    -99.6437         0.010000   
    787. D(Al 60,Al 72,O  15,C  39)     93.8436         0.010000   
    788. D(Al 60,Al 72,O  15,Zr  0)    -92.4076         0.010000   
    789. D(H  66,Al 72,Al 68,Al 61)     -1.7451         0.010000   
    790. D(H  66,Al 72,O  14,Zr  0)     10.7980         0.010000   
    791. D(Al 60,Al 72,O  14,C  38)    159.0043         0.010000   
    792. D(Al 60,Al 72,O  14,Zr  0)     16.7072         0.010000   
    -----------------------------------------------------------------

Number of atoms                         .... 76
Number of degrees of freedom            .... 792


         *************************************************************
         *                GEOMETRY OPTIMIZATION CYCLE   1            *
         *************************************************************
---------------------------------
CARTESIAN COORDINATES (ANGSTROEM)
---------------------------------
  Zr    -0.170728    2.094478    1.575358
  Zr     0.279595   -2.123369   -1.511731
  Zr     1.880762   -1.300810    1.411031
  Zr    -1.792468    1.283757   -1.333183
  Zr     1.575150    0.987497   -1.782446
  Zr    -1.485590   -1.000052    1.849696
  O     -1.558974    0.818992    0.699468
  O      1.660478   -0.836332   -0.629779
  O      0.008448   -2.007758    0.629759
  O      0.080637    1.998542   -0.569677
  O     -0.247172   -0.068235   -1.640796
  O      0.341825    0.046450    1.718072
  O     -1.586970    2.201518    2.973002
  O     -1.094920    3.730756    0.929974
  O      0.969598    1.760490    3.274218
  O      1.507506    3.084723    1.205027
  O     -1.396094   -3.127794   -1.147715
  O     -0.859258   -1.787413   -3.207604
  O      1.215965   -3.749030   -0.845757
  O      1.709071   -2.224730   -2.895948
  O      1.401981   -2.585786    2.832888
  O      2.339919   -0.135508    3.044390
  O      2.800151   -2.872682    0.625917
  O      3.568465   -0.311904    0.780289
  O     -3.505916    0.355106   -0.669223
  O     -2.672783    2.888045   -0.567279
  O     -2.276810    0.067056   -2.925063
  O     -1.334019    2.522688   -2.797124
  O      0.983995    2.425577   -3.005518
  O      2.498145    2.520162   -0.835069
  O      1.839739    0.019171   -3.497026
  O      3.530727    0.380146   -1.467594
  O     -3.435699   -0.366118    1.569633
  O     -1.720885   -0.040909    3.576401
  O     -2.417171   -2.498589    0.858655
  O     -0.914325   -2.461185    3.051653
  C     -1.948313    1.228432    3.757224
  C     -2.171438    3.809053    0.203269
  C      1.911508    0.941655    3.625434
  C      2.374758    3.213952    0.251784
  C     -2.278447   -3.224932   -0.204991
  C     -1.840095   -0.999113   -3.520887
  C      2.307198   -3.803671   -0.138433
  C      2.069380   -1.249410   -3.678487
  C      0.259739   -2.932527    3.343865
  C      4.101776    0.030547   -0.355156
  C     -4.021691    0.003693    0.471548
  C     -0.194450    2.880022   -3.306517
  H     -2.369677   -1.264649   -4.429750
  H      2.872039   -4.736247   -0.191063
  H      2.409804    1.187430    4.557211
  H     -2.713431    4.755415    0.241458
  H      2.613736   -1.524295   -4.584594
  H     -0.231018    3.650458   -4.076532
  H      3.105849    4.005857    0.385916
  H      5.188598    0.034172   -0.373547
  H     -3.012351   -4.015596   -0.330716
  H     -5.107800    0.013871    0.509955
  H     -2.494541    1.505329    4.661673
  H      0.289574   -3.710714    4.106305
  Al     0.690852    6.280469    1.805383
  Al    -1.874202    5.408736    3.719850
  H     -0.998695    4.482291    4.797321
  H     -2.477546    6.682848    4.466999
  H     -0.713045    5.904975    2.627434
  H      0.955581    7.853411    1.840529
  H      1.856441    5.482680    2.694811
  H     -3.036481    4.556969    3.032771
  Al     0.175154    3.737841    5.721193
  H      1.574452    4.068060    4.872368
  H      0.242552    4.416963    7.163434
  H      0.644191    5.734837    0.305496
  Al     2.745259    4.638856    3.828344
  H      3.749246    5.611347    4.597740
  H      3.535487    3.425118    3.156519
  H     -0.074341    2.166481    5.847699

----------------------------
CARTESIAN COORDINATES (A.U.)
----------------------------
  NO LB      ZA    FRAG     MASS         X           Y           Z
   0 Zr   12.0000*   0    91.220   -0.322630    3.957990    2.976995
   1 Zr   12.0000*   0    91.220    0.528358   -4.012585   -2.856758
   2 Zr   12.0000*   0    91.220    3.554125   -2.458176    2.666462
   3 Zr   12.0000*   0    91.220   -3.387274    2.425950   -2.519350
   4 Zr   12.0000*   0    91.220    2.976603    1.866099   -3.368336
   5 Zr   12.0000*   0    91.220   -2.807359   -1.889823    3.495420
   6 O     8.0000    0    15.999   -2.946035    1.547671    1.321803
   7 O     8.0000    0    15.999    3.137848   -1.580439   -1.190109
   8 O     8.0000    0    15.999    0.015964   -3.794114    1.190072
   9 O     8.0000    0    15.999    0.152383    3.776698   -1.076534
  10 O     8.0000    0    15.999   -0.467087   -0.128946   -3.100655
  11 O     8.0000    0    15.999    0.645955    0.087777    3.246685
  12 O     8.0000    0    15.999   -2.998938    4.160267    5.618160
  13 O     8.0000    0    15.999   -2.069098    7.050107    1.757397
  14 O     8.0000    0    15.999    1.832274    3.326844    6.187375
  15 O     8.0000    0    15.999    2.848773    5.829282    2.277170
  16 O     8.0000    0    15.999   -2.638236   -5.910675   -2.168868
  17 O     8.0000    0    15.999   -1.623763   -3.377720   -6.061492
  18 O     8.0000    0    15.999    2.297840   -7.084640   -1.598248
  19 O     8.0000    0    15.999    3.229677   -4.204131   -5.472548
  20 O     8.0000    0    15.999    2.649360   -4.886427    5.353382
  21 O     8.0000    0    15.999    4.421807   -0.256072    5.753063
  22 O     8.0000    0    15.999    5.291519   -5.428582    1.182812
  23 O     8.0000    0    15.999    6.743421   -0.589412    1.474533
  24 O     8.0000    0    15.999   -6.625221    0.671053   -1.264648
  25 O     8.0000    0    15.999   -5.050828    5.457614   -1.072003
  26 O     8.0000    0    15.999   -4.302547    0.126718   -5.527569
  27 O     8.0000    0    15.999   -2.520931    4.767190   -5.285799
  28 O     8.0000    0    15.999    1.859480    4.583676   -5.679606
  29 O     8.0000    0    15.999    4.720810    4.762417   -1.578051
  30 O     8.0000    0    15.999    3.476603    0.036228   -6.608421
  31 O     8.0000    0    15.999    6.672108    0.718371   -2.773351
  32 O     8.0000    0    15.999   -6.492530   -0.691862    2.966176
  33 O     8.0000    0    15.999   -3.252002   -0.077306    6.758418
  34 O     8.0000    0    15.999   -4.567791   -4.721648    1.622622
  35 O     8.0000    0    15.999   -1.727824   -4.650965    5.766788
  36 C     6.0000    0    12.011   -3.681777    2.321399    7.100124
  37 C     6.0000    0    12.011   -4.103423    7.198066    0.384123
  38 C     6.0000    0    12.011    3.612227    1.779469    6.851078
  39 C     6.0000    0    12.011    4.487642    6.073489    0.475803
  40 C     6.0000    0    12.011   -4.305642   -6.094238   -0.387376
  41 C     6.0000    0    12.011   -3.477275   -1.888051   -6.653512
  42 C     6.0000    0    12.011    4.359973   -7.187897   -0.261601
  43 C     6.0000    0    12.011    3.910561   -2.361043   -6.951333
  44 C     6.0000    0    12.011    0.490836   -5.541673    6.318989
  45 C     6.0000    0    12.011    7.751233    0.057725   -0.671147
  46 C     6.0000    0    12.011   -7.599894    0.006979    0.891097
  47 C     6.0000    0    12.011   -0.367457    5.442453   -6.248412
  48 H     1.0000    0     1.008   -4.478041   -2.389840   -8.371015
  49 H     1.0000    0     1.008    5.427367   -8.950209   -0.361057
  50 H     1.0000    0     1.008    4.553870    2.243918    8.611880
  51 H     1.0000    0     1.008   -5.127641    8.986433    0.456289
  52 H     1.0000    0     1.008    4.939245   -2.880499   -8.663628
  53 H     1.0000    0     1.008   -0.436560    6.898366   -7.703528
  54 H     1.0000    0     1.008    5.869203    7.569972    0.729275
  55 H     1.0000    0     1.008    9.805029    0.064576   -0.705901
  56 H     1.0000    0     1.008   -5.692518   -7.588377   -0.624962
  57 H     1.0000    0     1.008   -9.652343    0.026212    0.963675
  58 H     1.0000    0     1.008   -4.713999    2.844659    8.809285
  59 H     1.0000    0     1.008    0.547215   -7.012234    7.759791
  60 Al   13.0000    0    26.982    1.305521   11.868367    3.411679
  61 Al   13.0000    0    26.982   -3.541728   10.221030    7.029498
  62 H     1.0000    0     1.008   -1.887260    8.470302    9.065623
  63 H     1.0000    0     1.008   -4.681883   12.628753    8.441405
  64 H     1.0000    0     1.008   -1.347460   11.158785    4.965131
  65 H     1.0000    0     1.008    1.805786   14.840795    3.478096
[...]
Total Mass          ...  1303.54 AMU
Quasi RRHO          ...     True
Cut-Off Frequency   ...     1.00 cm^-1

Throughout the following assumptions are being made:
  (1) The electronic state is orbitally nondegenerate
  (2) There are no thermally accessible electronically excited states
  (3) Hindered rotations indicated by low frequency modes are not
      treated as such but are treated as vibrations and this may
      cause some error
  (4) All equations used are the standard statistical mechanics
      equations for an ideal gas
  (5) All vibrations are strictly harmonic

freq.      17.59  E(vib)   ...       0.57 
freq.      25.76  E(vib)   ...       0.56 
freq.      30.71  E(vib)   ...       0.55 
freq.      32.61  E(vib)   ...       0.55 
freq.      35.27  E(vib)   ...       0.54 
freq.      40.60  E(vib)   ...       0.54 
freq.      43.96  E(vib)   ...       0.53 
freq.      54.00  E(vib)   ...       0.52 
freq.      60.01  E(vib)   ...       0.51 
freq.      68.00  E(vib)   ...       0.50 
freq.      71.61  E(vib)   ...       0.50 
freq.      79.06  E(vib)   ...       0.49 
freq.      81.09  E(vib)   ...       0.48 
freq.      90.88  E(vib)   ...       0.47 
freq.      95.10  E(vib)   ...       0.47 
freq.      97.47  E(vib)   ...       0.46 
freq.      99.66  E(vib)   ...       0.46 
freq.     101.11  E(vib)   ...       0.46 
freq.     103.22  E(vib)   ...       0.46 
freq.     105.80  E(vib)   ...       0.45 
freq.     109.22  E(vib)   ...       0.45 
freq.     109.57  E(vib)   ...       0.45 
freq.     116.31  E(vib)   ...       0.44 
freq.     118.03  E(vib)   ...       0.44 
freq.     123.62  E(vib)   ...       0.43 
freq.     126.96  E(vib)   ...       0.43 
freq.     130.92  E(vib)   ...       0.42 
freq.     144.56  E(vib)   ...       0.41 
freq.     144.97  E(vib)   ...       0.41 
freq.     148.02  E(vib)   ...       0.41 
freq.     149.93  E(vib)   ...       0.40 
freq.     151.91  E(vib)   ...       0.40 
freq.     152.84  E(vib)   ...       0.40 
freq.     154.38  E(vib)   ...       0.40 
freq.     156.28  E(vib)   ...       0.40 
freq.     158.70  E(vib)   ...       0.39 
freq.     163.05  E(vib)   ...       0.39 
freq.     164.37  E(vib)   ...       0.39 
freq.     166.57  E(vib)   ...       0.39 
freq.     168.70  E(vib)   ...       0.38 
freq.     170.57  E(vib)   ...       0.38 
freq.     171.89  E(vib)   ...       0.38 
freq.     185.18  E(vib)   ...       0.37 
freq.     188.44  E(vib)   ...       0.36 
freq.     189.11  E(vib)   ...       0.36 
freq.     192.52  E(vib)   ...       0.36 
freq.     195.46  E(vib)   ...       0.36 
freq.     197.90  E(vib)   ...       0.35 
freq.     203.39  E(vib)   ...       0.35 
freq.     209.39  E(vib)   ...       0.34 
freq.     211.30  E(vib)   ...       0.34 
freq.     211.79  E(vib)   ...       0.34 
freq.     228.49  E(vib)   ...       0.32 
freq.     230.40  E(vib)   ...       0.32 
freq.     231.80  E(vib)   ...       0.32 
freq.     235.20  E(vib)   ...       0.32 
freq.     242.00  E(vib)   ...       0.31 
freq.     258.86  E(vib)   ...       0.30 
freq.     259.61  E(vib)   ...       0.30 
freq.     261.54  E(vib)   ...       0.30 
freq.     262.71  E(vib)   ...       0.29 
freq.     263.94  E(vib)   ...       0.29 
freq.     265.12  E(vib)   ...       0.29 
freq.     267.73  E(vib)   ...       0.29 
freq.     268.90  E(vib)   ...       0.29 
freq.     271.05  E(vib)   ...       0.29 
freq.     271.34  E(vib)   ...       0.29 
freq.     272.78  E(vib)   ...       0.29 
freq.     273.74  E(vib)   ...       0.28 
freq.     275.49  E(vib)   ...       0.28 
freq.     276.21  E(vib)   ...       0.28 
freq.     278.39  E(vib)   ...       0.28 
freq.     278.85  E(vib)   ...       0.28 
freq.     282.68  E(vib)   ...       0.28 
freq.     286.56  E(vib)   ...       0.27 
freq.     287.35  E(vib)   ...       0.27 
freq.     290.85  E(vib)   ...       0.27 
freq.     292.01  E(vib)   ...       0.27 
freq.     293.35  E(vib)   ...       0.27 
freq.     301.13  E(vib)   ...       0.26 
freq.     304.90  E(vib)   ...       0.26 
freq.     306.16  E(vib)   ...       0.26 
freq.     307.46  E(vib)   ...       0.26 
freq.     308.92  E(vib)   ...       0.26 
freq.     312.73  E(vib)   ...       0.25 
freq.     314.32  E(vib)   ...       0.25 
freq.     316.65  E(vib)   ...       0.25 
freq.     320.12  E(vib)   ...       0.25 
freq.     324.38  E(vib)   ...       0.25 
freq.     328.74  E(vib)   ...       0.24 
freq.     336.80  E(vib)   ...       0.24 
freq.     341.09  E(vib)   ...       0.23 
freq.     349.87  E(vib)   ...       0.23 
freq.     351.72  E(vib)   ...       0.23 
freq.     359.73  E(vib)   ...       0.22 
freq.     369.47  E(vib)   ...       0.21 
freq.     384.11  E(vib)   ...       0.20 
freq.     394.76  E(vib)   ...       0.20 
freq.     398.71  E(vib)   ...       0.19 
freq.     400.66  E(vib)   ...       0.19 
freq.     403.28  E(vib)   ...       0.19 
freq.     406.64  E(vib)   ...       0.19 
freq.     416.35  E(vib)   ...       0.18 
freq.     417.03  E(vib)   ...       0.18 
freq.     418.34  E(vib)   ...       0.18 
freq.     420.52  E(vib)   ...       0.18 
freq.     430.46  E(vib)   ...       0.18 
freq.     431.59  E(vib)   ...       0.18 
freq.     438.73  E(vib)   ...       0.17 
freq.     470.98  E(vib)   ...       0.15 
freq.     474.62  E(vib)   ...       0.15 
freq.     476.58  E(vib)   ...       0.15 
freq.     478.25  E(vib)   ...       0.15 
freq.     482.16  E(vib)   ...       0.15 
freq.     499.54  E(vib)   ...       0.14 
freq.     521.21  E(vib)   ...       0.13 
freq.     538.73  E(vib)   ...       0.12 
freq.     625.12  E(vib)   ...       0.09 
freq.     671.89  E(vib)   ...       0.08 
freq.     676.44  E(vib)   ...       0.08 
freq.     683.05  E(vib)   ...       0.08 
freq.     684.17  E(vib)   ...       0.07 
freq.     686.18  E(vib)   ...       0.07 
freq.     687.49  E(vib)   ...       0.07 
freq.     689.82  E(vib)   ...       0.07 
freq.     692.03  E(vib)   ...       0.07 
freq.     700.34  E(vib)   ...       0.07 
freq.     702.41  E(vib)   ...       0.07 
freq.     703.89  E(vib)   ...       0.07 
freq.     722.71  E(vib)   ...       0.07 
freq.     724.79  E(vib)   ...       0.06 
freq.     730.97  E(vib)   ...       0.06 
freq.     733.00  E(vib)   ...       0.06 
freq.     734.09  E(vib)   ...       0.06 
freq.     734.32  E(vib)   ...       0.06 
freq.     735.87  E(vib)   ...       0.06 
freq.     737.65  E(vib)   ...       0.06 
freq.     738.29  E(vib)   ...       0.06 
freq.     738.51  E(vib)   ...       0.06 
freq.     739.23  E(vib)   ...       0.06 
freq.     740.18  E(vib)   ...       0.06 
freq.     740.83  E(vib)   ...       0.06 
freq.     741.11  E(vib)   ...       0.06 
freq.     742.38  E(vib)   ...       0.06 
freq.     746.22  E(vib)   ...       0.06 
freq.     774.61  E(vib)   ...       0.05 
freq.     994.79  E(vib)   ...       0.02 
freq.     995.92  E(vib)   ...       0.02 
freq.     999.13  E(vib)   ...       0.02 
freq.     999.69  E(vib)   ...       0.02 
freq.    1000.78  E(vib)   ...       0.02 
freq.    1001.35  E(vib)   ...       0.02 
freq.    1001.55  E(vib)   ...       0.02 
freq.    1002.66  E(vib)   ...       0.02 
freq.    1006.03  E(vib)   ...       0.02 
freq.    1006.19  E(vib)   ...       0.02 
freq.    1006.63  E(vib)   ...       0.02 
freq.    1007.18  E(vib)   ...       0.02 
freq.    1349.29  E(vib)   ...       0.01 
freq.    1350.48  E(vib)   ...       0.01 
freq.    1352.33  E(vib)   ...       0.01 
freq.    1354.71  E(vib)   ...       0.01 
freq.    1355.34  E(vib)   ...       0.01 
freq.    1355.66  E(vib)   ...       0.01 
freq.    1355.85  E(vib)   ...       0.01 
freq.    1356.72  E(vib)   ...       0.01 
freq.    1357.55  E(vib)   ...       0.01 
freq.    1358.10  E(vib)   ...       0.01 
freq.    1358.55  E(vib)   ...       0.01 
freq.    1358.99  E(vib)   ...       0.01 
freq.    1361.72  E(vib)   ...       0.01 
freq.    1361.79  E(vib)   ...       0.01 
freq.    1362.99  E(vib)   ...       0.01 
freq.    1364.84  E(vib)   ...       0.01 
freq.    1365.20  E(vib)   ...       0.01 
freq.    1365.56  E(vib)   ...       0.01 
freq.    1367.02  E(vib)   ...       0.01 
freq.    1367.18  E(vib)   ...       0.01 
freq.    1367.89  E(vib)   ...       0.01 
freq.    1371.46  E(vib)   ...       0.01 
freq.    1372.05  E(vib)   ...       0.01 
freq.    1380.39  E(vib)   ...       0.01 
freq.    1538.38  E(vib)   ...       0.00 
freq.    1546.78  E(vib)   ...       0.00 
freq.    1563.14  E(vib)   ...       0.00 
freq.    1564.48  E(vib)   ...       0.00 
freq.    1568.37  E(vib)   ...       0.00 
freq.    1576.52  E(vib)   ...       0.00 
freq.    1577.32  E(vib)   ...       0.00 
freq.    1631.46  E(vib)   ...       0.00 
freq.    1632.77  E(vib)   ...       0.00 
freq.    1636.49  E(vib)   ...       0.00 
freq.    1637.63  E(vib)   ...       0.00 
freq.    1639.01  E(vib)   ...       0.00 
freq.    1831.51  E(vib)   ...       0.00 
freq.    1862.46  E(vib)   ...       0.00 
freq.    1865.33  E(vib)   ...       0.00 
freq.    1866.84  E(vib)   ...       0.00 
freq.    1882.28  E(vib)   ...       0.00 
freq.    1898.31  E(vib)   ...       0.00 
freq.    1898.85  E(vib)   ...       0.00 
freq.    1903.55  E(vib)   ...       0.00 
freq.    1909.03  E(vib)   ...       0.00 
freq.    1961.21  E(vib)   ...       0.00 
freq.    1961.92  E(vib)   ...       0.00 
freq.    1991.57  E(vib)   ...       0.00 
freq.    2880.90  E(vib)   ...       0.00 
freq.    2887.21  E(vib)   ...       0.00 
freq.    2891.07  E(vib)   ...       0.00 
freq.    2891.41  E(vib)   ...       0.00 
freq.    2895.41  E(vib)   ...       0.00 
freq.    2898.06  E(vib)   ...       0.00 
freq.    2905.37  E(vib)   ...       0.00 
freq.    2906.72  E(vib)   ...       0.00 
freq.    2906.99  E(vib)   ...       0.00 
freq.    2907.88  E(vib)   ...       0.00 
freq.    2909.23  E(vib)   ...       0.00 
freq.    2910.54  E(vib)   ...       0.00 

------------
INNER ENERGY
------------

The inner energy is: U= E(el) + E(ZPE) + E(vib) + E(rot) + E(trans)
    E(el)   - is the total energy from the electronic structure calculation
              = E(kin-el) + E(nuc-el) + E(el-el) + E(nuc-nuc)
    E(ZPE)  - the the zero temperature vibrational energy from the frequency calculation
    E(vib)  - the the finite temperature correction to E(ZPE) due to population
              of excited vibrational states
    E(rot)  - is the rotational thermal energy
    E(trans)- is the translational thermal energy

Summary of contributions to the inner energy U:
Electronic energy                ...  -3976.49800283 Eh
Zero point energy                ...      0.38904466 Eh     244.13 kcal/mol
Thermal vibrational correction   ...      0.06465557 Eh      40.57 kcal/mol
Thermal rotational correction    ...      0.00141627 Eh       0.89 kcal/mol
Thermal translational correction ...      0.00141627 Eh       0.89 kcal/mol
-----------------------------------------------------------------------
Total thermal energy                  -3976.04147006 Eh


Summary of corrections to the electronic energy:
(perhaps to be used in another calculation)
Total thermal correction                  0.06748811 Eh      42.35 kcal/mol
Non-thermal (ZPE) correction              0.38904466 Eh     244.13 kcal/mol
-----------------------------------------------------------------------
Total correction                          0.45653277 Eh     286.48 kcal/mol


--------
ENTHALPY
--------

The enthalpy is H = U + kB*T
                kB is Boltzmann's constant
Total thermal energy              ...  -3976.04147006 Eh 
Thermal Enthalpy correction       ...      0.00094421 Eh       0.59 kcal/mol
-----------------------------------------------------------------------
Total Enthalpy                    ...  -3976.04052585 Eh


Note: Only C1 symmetry has been detected, increase convergence thresholds 
      if your molecule has a higher symmetry. Symmetry factor of 1.0 is   
      used for the rotational entropy correction. 
 

Note: Rotational entropy computed according to Herzberg 
Infrared and Raman Spectra, Chapter V,1, Van Nostrand Reinhold, 1945 
Point Group:  C1, Symmetry Number:   1  
Rotational constants in cm-1:     0.001705     0.001162     0.001137 

Vibrational entropy computed according to the QRRHO of S. Grimme
Chem.Eur.J. 2012 18 9955 using a reference frequency of 100.0 cm-1


-------
ENTROPY
-------

The entropy contributions are T*S = T*(S(el)+S(vib)+S(rot)+S(trans))
     S(el)   - electronic entropy
     S(vib)  - vibrational entropy
     S(rot)  - rotational entropy
     S(trans)- translational entropy
The entropies will be listed as multiplied by the temperature to get
units of energy

Electronic entropy                ...      0.00000000 Eh      0.00 kcal/mol
Vibrational entropy               ...      0.11629804 Eh     72.98 kcal/mol
Rotational entropy                ...      0.01891082 Eh     11.87 kcal/mol
Translational entropy             ...      0.02250776 Eh     14.12 kcal/mol
-----------------------------------------------------------------------
Final entropy term                ...      0.15771662 Eh     98.97 kcal/mol

In case the symmetry of your molecule has not been determined correctly
or in case you have a reason to use a different symmetry number we print 
out the resulting rotational entropy values for sn=1,12:

 non-linear molecules -----------------------------------
|  sn= 1 | S(rot)=       0.01891082 Eh     11.87 kcal/mol|
|  sn= 2 | S(rot)=       0.01825636 Eh     11.46 kcal/mol|
|  sn= 3 | S(rot)=       0.01787353 Eh     11.22 kcal/mol|
|  sn= 4 | S(rot)=       0.01760191 Eh     11.05 kcal/mol|
|  sn= 5 | S(rot)=       0.01739122 Eh     10.91 kcal/mol|
|  sn= 6 | S(rot)=       0.01721908 Eh     10.81 kcal/mol|
|  sn= 7 | S(rot)=       0.01707353 Eh     10.71 kcal/mol|
|  sn= 8 | S(rot)=       0.01694745 Eh     10.63 kcal/mol|
|  sn= 9 | S(rot)=       0.01683624 Eh     10.56 kcal/mol|
|  sn=10 | S(rot)=       0.01673676 Eh     10.50 kcal/mol|
|  sn=11 | S(rot)=       0.01664677 Eh     10.45 kcal/mol|
|  sn=12 | S(rot)=       0.01656462 Eh     10.39 kcal/mol|
 linear molecules ---------------------------------------
|  Dinfh | S(rot)=       0.01172716 Eh      7.36 kcal/mol|
|  Cinfv | S(rot)=       0.01238162 Eh      7.77 kcal/mol|
 --------------------------------------------------------


-------------------
GIBBS FREE ENERGY
-------------------

The Gibbs free energy is G = H - T*S

Total enthalpy                    ...  -3976.04052585 Eh 
Total entropy correction          ...     -0.15771662 Eh    -98.97 kcal/mol
-----------------------------------------------------------------------
Final Gibbs free energy         ...  -3976.19824247 Eh

For completeness - the Gibbs free energy minus the electronic energy
G-E(el)                           ...      0.29976036 Eh    188.10 kcal/mol


Maximum memory used throughout the entire PROP-calculation: 151.8 MB

--------------------------------
SUGGESTED CITATIONS FOR THIS RUN
--------------------------------

Below you find a list of papers that are relevant to this ORCA run
We neither can nor want to force you to cite these papers, but we appreciate if you do
You receive ORCA, which is the product of decades of hard work by many enthusiastic individuals, for free
The only thing we kindly ask in return is that you cite our papers,
We deeply appreciate it, if you show your appreciation for ORCA by not just citing the generic ORCA reference.

Please note that relegating all ORCA citations to the supporting information does *not* help us.
SI sections are not indexed - citations you put there will not count into any citation statistics
But we need these citations in order to attract the funding resources that allow us to do what we are doing

Therefore, if you are a happy ORCA user, please consider citing a few of the papers listed below in the main body of your paper

In addition to the list printed below, the program has created the file run.bibtex that contains the list in bibtex format
You can import this file easily into all common literature databanks and citation aid programs


List of essential papers. We consider these as the minimum necessary citations

  1. Neese, F.
     Software update: the ORCA program system, version 6.0
     WIRES Comput. Molec. Sci. 2025 15(1), e70019
     doi.org/10.1002/wcms.7019

List of papers to cite with high priority. The work reported in these papers was absolutely
necessary for this run to complete.
Our perspective: the developers of density functionals and basis sets usually get cited in chemistry papers
Good! But without the algorithms to do something with them, the functionals or basis sets would not do anything.
Hence, in our opinion, the algorithm design and method developments papers are equally worthy of getting cited

  1. Neese, F.
     An improvement of the resolution of the identity approximation for the formation of the Coulomb matrix
     J. Comp. Chem. 2003 24(14), 1740-1747
     doi.org/10.1002/jcc.10318
  2. Grimme, S.; Antony, J.; Ehrlich, S.; Krieg, H.
     A consistent and accurate ab initio parametrization of density functional dispersion correction (DFT-D) for the 94 elements H-Pu
     J. Chem. Phys. 2010 132 , 154104
     doi.org/10.1063/1.3382344
  3. Grimme, S.; Ehrlich, S.; Goerigk, L.
     Effect of the damping function in dispersion corrected density functional theory
     J. Comput. Chem. 2011 32(7), 1456-1465
     doi.org/10.1002/jcc.21759
  4. Bykov, D.; Petrenko, T.; Izsak, R.; Kossmann, S.; Becker, U.; Valeev, E.; Neese, F.
     Efficient implementation of the analytic second derivatives of Hartree-Fock and hybrid DFT energies: a detailed analysis of different approximations
     Molec. Phys. 2015 113 , 1961-1977
     doi.org/10.1080/00268976.2015.1025114
  5. Helmich-Paris, B.
     A trust-region augmented Hessian implementation for restricted and unrestricted Hartree–Fock and Kohn–Sham methods
     J. Chem. Phys. 2021 154 , 164104
     doi.org/10.1063/5.0040798
  6. Neese, F.
     The SHARK Integral Generation and Digestion System
     J. Comp. Chem. 2022 44(3), 381
     doi.org/10.1002/jcc.26942

List of suggested additional citations. These are papers that are important in the 'surrounding' of 
of this run, or papers that preceded the highly important papers. If you like your results we are grateful for a citation.

  1. Neese, F.
     The ORCA program system
     WIRES Comput. Molec. Sci. 2012 2(1), 73-78
     doi.org/10.1002/wcms.81
  2. Neese, F.
     Software update: the ORCA program system, version 4.0
     WIRES Comput. Molec. Sci. 2018 8(1), 1-6
     doi.org/10.1002/wcms.1327
  3. Neese, F.; Wennmohs, F.; Becker, U.; Riplinger, C.
     The ORCA quantum chemistry program package
     J. Chem. Phys. 2020 152(22), 224108
     doi.org/10.1063/5.0004608
  4. Neese, F.
     Software update: The ORCA program system—Version 5.0
     WIRES Comput. Molec. Sci. 2022 12(1), e1606
     doi.org/10.1002/wcms.1606

List of optional additional citations

  1. Neese, F.
     Approximate second-order SCF convergence for spin unrestricted wavefunctions
     Chem. Phys. Lett. 2000 325(1-3), 93-98
     doi.org/10.1016/s0009-2614(00)00662-x

Timings for individual modules:

Sum of individual times          ...     8819.634 sec (= 146.994 min)
Startup calculation              ...      338.090 sec (=   5.635 min)   3.8 %
SCF iterations                   ...     1881.015 sec (=  31.350 min)  21.3 %
Property integrals               ...     2218.749 sec (=  36.979 min)  25.2 %
SCF Response                     ...     1521.632 sec (=  25.361 min)  17.3 %
Property calculations            ...     2019.881 sec (=  33.665 min)  22.9 %
SCF Gradient evaluation          ...      827.092 sec (=  13.785 min)   9.4 %
Geometry relaxation              ...       13.175 sec (=   0.220 min)   0.1 %
                             ****ORCA TERMINATED NORMALLY****
TOTAL RUN TIME: 0 days 2 hours 27 minutes 22 seconds 587 msec
