
                                 *****************
                                 * O   R   C   A *
                                 *****************

                                            #,                                       
                                            ###                                      
                                            ####                                     
                                            #####                                    
                                            ######                                   
                                           ########,                                 
                                     ,,################,,,,,                         
                               ,,#################################,,                 
                          ,,##########################################,,             
                       ,#########################################, ''#####,          
                    ,#############################################,,   '####,        
                  ,##################################################,,,,####,       
                ,###########''''           ''''###############################       
              ,#####''   ,,,,##########,,,,          '''####'''          '####       
            ,##' ,,,,###########################,,,                        '##       
           ' ,,###''''                  '''############,,,                           
         ,,##''                                '''############,,,,        ,,,,,,###''
      ,#''                                            '''#######################'''  
     '                                                          ''''####''''         
             ,#######,   #######,   ,#######,      ##                                
            ,#'     '#,  ##    ##  ,#'     '#,    #''#        ,####,    ,#,          
            ##       ##  ##   ,#'  ##            #'  '#       #'       ,# #          
            ##       ##  #######   ##           ,######,      #####,      #          
            '#,     ,#'  ##    ##  '#,     ,#' ,#      #,     #,   #      #          
             '#######'   ##     ##  '#######'  #'      '#     '####' #    #          



                #########################################################
                #                        -***-                          #
                #          Department of theory and spectroscopy        #
                #                                                       #
                #                      Frank Neese                      #
                #                                                       #
                #     Directorship, Architecture, Infrastructure        #
                #                    SHARK, DRIVERS                     #
                #        Core code/Algorithms in most modules           #
                #                                                       #
                #        Max Planck Institute fuer Kohlenforschung      #
                #                Kaiser Wilhelm Platz 1                 #
                #                 D-45470 Muelheim/Ruhr                 #
                #                      Germany                          #
                #                                                       #
                #                  All rights reserved                  #
                #                        -***-                          #
                #########################################################


                         Program Version 6.1.0  -  RELEASE   -
                                (GIT: $679e74b$)
                          ($2025-06-10 18:02:51 +0200$)


 With contributions from (in alphabetic order):
[Max-Planck-Institut fuer Kohlenforschung]                               
  Daniel Aravena         : Magnetic Suceptibility                        
  Michael Atanasov       : Ab Initio Ligand Field Theory (pilot matlab implementation)
  Alexander A. Auer      : GIAO ZORA, VPT2 properties, NMR spectrum      
  Ute Becker             : All parallelization in ORCA, NUMFREQ, NUMCALC 
  Giovanni Bistoni       : ED, misc. LED, open-shell LED, HFLD           
  Dmytro Bykov           : pre 5.0 version of the SCF Hessian            
  Marcos Casanova-Páez   : Triplet and SCS-CIS(D). UHF-(DLPNO)-IP/EA/STEOM-CCSD. UHF-CVS-IP/STEOM-CCSD   
  Vijay G. Chilkuri      : MRCI spin determinant printing, contributions to CSF-ICE 
  Pauline Colinet        : FMM embedding                                 
  Dipayan Datta          : RHF DLPNO-CCSD density                        
  Achintya Kumar Dutta   : EOM-CC, STEOM-CC                              
  Nicolas Foglia         : Exact transition moments, OPA infrastructure, MCD improvements    
  Dmitry Ganyushin       : Spin-Orbit,Spin-Spin,Magnetic field MRCI      
  Miquel Garcia-Rates    : C-PCM and meta-GGA Hessian, CCSD/C-PCM, Gaussian charge scheme 
  Tiago L. C. Gouveia    : GS-ROHF, GS-ROCIS                             
  Yang Guo               : DLPNO-NEVPT2, F12-NEVPT2, CIM, IAO-localization        
  Andreas Hansen         : Spin unrestricted coupled pair/coupled cluster methods 
  Ingolf Harden          : AUTO-CI MPn and infrastructure                
  Benjamin Helmich-Paris : MC-RPA, TRAH-(SCF,CASSCF), AVAS, COSX integrals, SCF dyn. polar., MC-PDFT, srDFT 
  Lee Huntington         : MR-EOM, pCC                                   
  Robert Izsak           : Overlap fitted RIJCOSX, COSX-SCS-MP3, EOM     
  Riya Kayal             : Wick's Theorem for AUTO-CI, AUTO-CI UHF-CCSDT 
  Emily Kempfer          : AUTO-CI RHF CISDT and CCSDT, approximate NEVPT4
  Christian Kollmar      : KDIIS, OOCD, Brueckner-CCSD(T), CCSD density, CASPT2, CASPT2-K, improved NEVPT2 
  Axel Koslowski         : Symmetry handling                             
  Simone Kossmann        : meta-GGA functionals, TD-DFT gradient, OOMP2, (MP2 Hessian; deprecated post 5.0) 
  Lucas Lang             : DCDCAS, Hyperfine gauge corrections, ICE-SOC+SSC
  Marvin Lechner         : AUTO-CI (C++ implementation), FIC-MRCC        
  Spencer Leger          : CASSCF response                               
  Dagmar Lenk            : GEPOL surface, SMD, ORCA-2-JSON               
  Dimitrios Liakos       : Extrapolation schemes; Compound Job, Property file
  Dimitrios Manganas     : Further ROCIS development; embedding schemes. LFT, Crystal Embedding 
  Dimitrios Pantazis     : SARC Basis sets                               
  Anastasios Papadopoulos: AUTO-CI, single reference methods and gradients 
  Taras Petrenko         : pre 6.0 DFT Hessian and TD-DFT gradient,  ECA, NRVS 
  Petra Pikulova         : Analytic Raman intensities                    
  Peter Pinski           : DLPNO-MP2, DLPNO-MP2 Gradient                 
  Shashank Vittal Rao    : ES-AILFT, MagRelax                            
  Christoph Reimann      : Effective Core Potentials                     
  Marius Retegan         : Local ZFS, SOC                                
  Christoph Riplinger    : Optimizer, TS searches, QM/MM, DLPNO-CCSD(T), (RO)-DLPNO pert. Triples 
  Michael Roemelt        : Original ROCIS implementation, recursive CI coupling coefficients
  Masaaki Saitow         : Open-shell DLPNO-CCSD energy and density      
  Barbara Sandhoefer     : DKH picture change effects                    
  Yorick L. A. Schmerwitz: GMF and freeze-and-release deltaSCF, NEB S-IDPP initial path                    
  Kantharuban Sivalingam : CASSCF convergence/infrastructure, NEVPT2, NEVPT3, NEVPT4(SD), FIC-MRCI and CEPA variants
  Bernardo de Souza      : ESD, SOC TD-DFT                               
  Georgi L. Stoychev     : AutoAux, RI-MP2 NMR, DLPNO-MP2 response, X2C  
  Van Anh Tran           : RI-MP2 g-tensors                              
  Willem Van den Heuvel  : Paramagnetic NMR                              
  Zikuan Wang            : NOTCH, Electric field optimization            
  Frank Wennmohs         : Technical directorship and infrastructure     
  Hang Xu                : AUTO-CI-Response properties                   
                                                                         
[FACCTs GmbH]                                                            
  Markus Bursch, Nicolas Foglia, Miquel Garcia-Rates, Ingolf Harden, Hagen Neugebauer, Anastasios Papadopoulos, 
  Christoph Riplinger, Bernardo de Souza, Georgi L. Stoychev                                                    
                                                                 
  APM, various basis sets, CI-OPT, improved COSX, DLPNO-Multilevel,           
  DOCKER, DRACO, updates on ESD, Fragmentator, GOAT, IRC, LR-CPCM, L-BFGS, MBIS, meta-GGA TD-DFT gradient, ML-optimized integration grids, 
  MM, NACMEs, nearIR, NEB, NEB-TS, NL-DFT gradient (VV10), 2- and 3-layer-ONIOM, interface openCOSMO-RS, QMMM,   
  Crystal-QMMM, RESP, rigid body optimization, SF, symmetry and pop. for TD-DFT, various functionals, SOLVATOR                                   
                                                                         
[Other institutions]                                                     
  V. Asgeirsson          : NEB                                           
  Christoph Bannwarth    : sTDA-DFT, sTD-DFT, PBEh-3c, B97-3c, D3        
  Giovanni Bistoni       : ETS/NOCV, ADLD/ADEX, COVALED                  
  Martin Brehm           : Molecular dynamics                            
  Ronald Cardenas        : ETS/NOCV                                      
  Martina Colucci        : COVALED                                       
  Sebastian Ehlert       : rSCAN, r2SCAN, r2SCAN-3c, D4, dhf basis sets  
  Marvin Friede          : D4 for Fr, Ra, Ac-Lr                          
  Lars Goerigk           : TD-DFT with DH, B97 family of functionals     
  Stefan Grimme          : VdW corrections, initial TS optimization, DFT functionals, gCP, sTDA/sTD-DF 
  Waldemar Hujo          : DFT-NL                                        
  H. Jonsson             : NEB                                           
  Holger Kruse           : gCP                                           
  Marcel Mueller         : wB97X-3c, vDZP basis set                      
  Hagen Neugebauer       : wr2SCAN, Native XTB                           
  Gianluca Regni         : ADLD/ADEX                                     
  Tobias Risthaus        : pre 6.0 range-separated hybrid DFT and stability analysis
  Lukas Wittmann         : regularized MP2, r2SCAN double-hybrids, wr2SCAN        
                                                                         
We gratefully acknowledge several colleagues who have allowed us to      
interface, adapt or use parts of their codes:                            
  Ed Valeev, F. Pavosevic, A. Kumar             : LibInt (2-el integral package), F12 methods 
  Garnet Chan, S. Sharma, J. Yang, R. Olivares  : DMRG                   
  Ulf Ekstrom                                   : XCFun DFT Library      
  Mihaly Kallay                                 : mrcc  (arbitrary order and MRCC methods)
  Frank Weinhold                                : gennbo (NPA and NBO analysis)           
  Simon Mueller                                 : openCOSMO-RS                            
  Christopher J. Cramer and Donald G. Truhlar   : smd solvation model                     
  S Lehtola, MJT Oliveira, MAL Marques          : LibXC Library                           
  Liviu Ungur et al                             : ANISO software                          


 Your calculation uses the libint2 library for the computation of 2-el integrals
 For citations please refer to: http://libint.valeyev.net

 Your ORCA version has been built with support for libXC version: 7.0.0
 For citations please refer to: https://libxc.gitlab.io

 This ORCA versions uses:
   CBLAS   interface :  Fast vector & matrix operations
   LAPACKE interface :  Fast linear algebra routines
   SCALAPACK package :  Parallel linear algebra routines
   Shared memory     :  Shared parallel matrices
   BLAS/LAPACK       :  OpenBLAS 0.3.29  USE64BITINT DYNAMIC_ARCH NO_AFFINITY Bulldozer SINGLE_THREADED
        Core in use  :  Bulldozer
   Copyright (c) 2011-2014, The OpenBLAS Project


  ***********************************
  * Starting time: Mon Aug 18 17:24:16 2025
  * Host name:     chromium04
  * Process ID:    523906
  * Working dir.:  /local/scratch/mehlhorn/62138
  ***********************************



***************************************
The coordinates will be read from file: start.xyz
***************************************


Your calculation utilizes the geometrical counterpoise correction gCP
Please cite in your paper:
H.Kruse, S. Grimme J.Chem.Phys., 136, (2012), 154101 
   

Your calculation utilizes the atom-pairwise dispersion correction
with the Becke-Johnson damping scheme (D3BJ)


Warning: RI is on but no J-basis has been assigned. Assigning Def2/J (nothing to worry about!)
================================================================================

cite the ECPs for Zr [Def2-ECP] as follows:
Ce-Yb(ecp-28): M. Dolg, H. Stoll, H.Preuss, J. Chem. Phys., 1989, 90, 1730-1734.
Y-Cd(ecp-28), Hf-Hg(ecp-46): D. Andrae,U. Haeussermann, M. Dolg, H. Stoll, H. Preuss, Theor. Chim. Acta, 1990, 77, 123-141.
In-Sb(ecp-28), Tl-Bi(ecp-46): B. Metz, H. Stoll, M. Dolg, J. Chem. Phys., 2000, 113, 2563-2569.
Te-Xe(ecp-28), Po-Rn(ecp-46): K. A. Peterson, D. Figgen, E. Goll, H. Stoll, M. Dolg, J. Chem. Phys., 2003, 119, 11113-11123.
Rb(ecp-28), Cs(ecp-46): T. Leininger, A. Nicklass, W. Kuechle, H. Stoll, M. Dolg, A. Bergner, Chem. Phys. Lett., 1996, 255, 274-280.
Sr(ecp-28), Ba(ecp-46): M. Kaupp, P. V. Schleyer, H. Stoll and H. Preuss, J. Chem. Phys., 1991, 94, 1360-1366.
La(ecp-46): M. Dolg, H. Stoll, A. Savin, H. Preuss, Theor. Chim. Acta, 1989, 75, 173-194.
Lu(ecp-28): X. Cao, M. Dolg, J. Chem. Phys., 2001, 115, 7348-7355.

ECP parameters for Zr [Def2-ECP] have been obtained from:
TURBOMOLE (7.0.2)

----- Orbital basis set information -----
Your calculation utilizes the basis: def2-SV(P)
   F. Weigend and R. Ahlrichs, Phys. Chem. Chem. Phys. 7, 3297 (2005).

----- AuxJ basis set information -----
Your calculation utilizes the auxiliary basis: def2/J
   H-Rn: F. Weigend, Phys. Chem. Chem. Phys. 8, 1057 (2006).
   Fr-Lr: K. Eichkorn, F. Weigend, O. Treutler, R. Ahlrichs; Theor. Chem. Acc. 97, 119 (1997).

================================================================================
                                        WARNINGS
                       Please study these warnings very carefully!
================================================================================


WARNING: Geometry Optimization
  ===> : Switching off AutoStart
         For restart on a previous wavefunction, please use MOREAD

================================================================================
                                       INPUT FILE
================================================================================
NAME = run_pre.inp
|  1> # Geometry optimization for (AlH3)n cluster
|  2> 
|  3> %pal nprocs 24  end
|  4> 
|  5> %geom MaxIter 500 end
|  6> 
|  7> 
|  8> ! PBE def2-SV(P)
|  9> ! RKS	# closed shell for AlH3
| 10> ! D3    #  dispersion correction
| 11> ! gCP(DFT/SV(P))
| 12> 
| 13> ! NoPop # population analysis not necessary	
| 14> 
| 15> ! DEFGRID3
| 16> ! TightSCF
| 17> ! NormalOpt
| 18> 
| 19> ! SmallPrint
| 20> 
| 21> 
| 22> * xyzFile 0 1 start.xyz # only maingroup elements H and Al so there should be no net spin
| 23> 
| 24>                          ****END OF INPUT****
================================================================================

                       *****************************
                       * Geometry Optimization Run *
                       *****************************

Geometry optimization settings:
Update method            Update   .... BFGS
Choice of coordinates    CoordSys .... (2022) Redundant Internals
Initial Hessian          InHess   .... Almloef's Model
Max. no of cycles        MaxIter  .... 500

Convergence Tolerances:
Energy Change            TolE     ....  5.0000e-06 Eh
Max. Gradient            TolMAXG  ....  3.0000e-04 Eh/bohr
RMS Gradient             TolRMSG  ....  1.0000e-04 Eh/bohr
Max. Displacement        TolMAXD  ....  4.0000e-03 bohr
RMS Displacement         TolRMSD  ....  2.0000e-03 bohr
Strict Convergence                .... False

------------------------------------------------------------------------------
                        ORCA OPTIMIZATION COORDINATE SETUP
------------------------------------------------------------------------------

The optimization will be done in redundant internal coordinates (2022)
Making redundant internal coordinates   ...  (2022 redundants) done
Evaluating the initial hessian          ...  (Almloef) done
Evaluating the coordinates              ...  done
Calculating the B-matrix                .... done
Calculating the G-matrix                .... done
The number of degrees of freedom        ....  601

    -----------------------------------------------------------------
                    Redundant Internal Coordinates


    -----------------------------------------------------------------
         Definition                    Initial Value    Approx d2E/dq
    -----------------------------------------------------------------
      1. B(Zr  2,Zr  1)                  3.4735         0.030335   
      2. B(Zr  3,Zr  0)                  3.4815         0.029457   
      3. B(Zr  4,Zr  3)                  3.4661         0.031171   
      4. B(Zr  4,Zr  1)                  3.4513         0.032908   
      5. B(Zr  5,Zr  2)                  3.4614         0.031709   
      6. B(Zr  5,Zr  0)                  3.4813         0.029479   
      7. B(O   6,Zr  0)                  2.2278         0.260836   
      8. B(O   6,Zr  3)                  2.0855         0.439919   
      9. B(O   6,Zr  5)                  2.0738         0.459315   
     10. B(O   7,Zr  4)                  2.0564         0.489525   
     11. B(O   7,Zr  2)                  2.0994         0.418061   
     12. B(O   7,Zr  1)                  2.2321         0.256736   
     13. B(O   8,Zr  5)                  2.0905         0.431855   
     14. B(O   8,Zr  2)                  2.2027         0.286030   
     15. B(O   8,Zr  1)                  2.0728         0.460901   
     16. B(O   9,Zr  4)                  2.0849         0.440833   
     17. B(O   9,Zr  3)                  2.2343         0.254692   
     18. B(O   9,Zr  0)                  2.0784         0.451522   
     19. B(O  10,Zr  4)                  2.2024         0.286348   
     20. B(O  10,Zr  3)                  2.0759         0.455720   
     21. B(O  10,Zr  1)                  2.0935         0.427258   
     22. B(O  11,Zr  5)                  2.2184         0.269981   
     23. B(O  11,Zr  2)                  2.0599         0.483254   
     24. B(O  11,Zr  0)                  2.0846         0.441320   
     25. B(O  12,Zr  0)                  2.2245         0.264030   
     26. B(O  13,Zr  0)                  2.2293         0.259358   
     27. B(O  14,Zr  0)                  2.2327         0.256135   
     28. B(O  15,Zr  0)                  2.2873         0.209628   
     29. B(O  16,Zr  1)                  2.2632         0.229056   
     30. B(O  17,Zr  1)                  2.2309         0.257867   
     31. B(O  18,Zr  1)                  2.2400         0.249367   
     32. B(O  19,Zr  1)                  2.2227         0.265734   
     33. B(O  20,Zr  2)                  2.2245         0.263970   
     34. B(O  21,Zr  2)                  2.2834         0.212614   
     35. B(O  22,Zr  2)                  2.2184         0.269985   
     36. B(O  23,Zr  2)                  2.2772         0.217559   
     37. B(O  24,Zr  3)                  2.2362         0.252896   
     38. B(O  25,Zr  3)                  2.2218         0.266654   
     39. B(O  26,Zr  3)                  2.2741         0.220028   
     40. B(O  27,Zr  3)                  2.2316         0.257216   
     41. B(O  28,Zr  4)                  2.2263         0.262262   
     42. B(O  29,Zr  4)                  2.2205         0.267878   
     43. B(O  30,Zr  4)                  2.2090         0.279437   
     44. B(O  31,Zr  4)                  2.4439         0.117894   
     45. B(O  32,Zr  5)                  2.2662         0.226488   
     46. B(O  33,Zr  5)                  2.2285         0.260197   
     47. B(O  34,Zr  5)                  2.2442         0.245591   
     48. B(O  35,Zr  5)                  2.2265         0.262072   
     49. B(C  36,O  33)                  1.2678         0.876520   
     50. B(C  36,O  12)                  1.2710         0.866522   
     51. B(C  37,O  25)                  1.2703         0.868812   
     52. B(C  37,O  13)                  1.2680         0.876049   
     53. B(C  38,O  21)                  1.2639         0.889423   
     54. B(C  38,O  14)                  1.2778         0.845031   
     55. B(C  39,O  29)                  1.2818         0.832702   
     56. B(C  39,O  15)                  1.2605         0.900593   
     57. B(C  40,O  34)                  1.2765         0.849039   
     58. B(C  40,O  16)                  1.2651         0.885323   
     59. B(C  41,O  26)                  1.2636         0.890249   
     60. B(C  41,O  17)                  1.2779         0.844756   
     61. B(C  42,O  22)                  1.2740         0.856807   
     62. B(C  42,O  18)                  1.2674         0.877947   
     63. B(C  43,O  19)                  1.2687         0.873829   
     64. B(C  43,O  30)                  1.2721         0.862818   
     65. B(C  44,O  35)                  1.2704         0.868183   
     66. B(C  44,O  20)                  1.2686         0.874200   
     67. B(C  45,O  31)                  1.2875         0.815520   
     68. B(C  45,O  23)                  1.2640         0.888874   
     69. B(C  46,O  32)                  1.2643         0.888075   
     70. B(C  46,O  24)                  1.2758         0.851199   
     71. B(C  47,O  28)                  1.2702         0.868997   
     72. B(C  47,O  27)                  1.2680         0.876163   
     73. B(H  48,C  41)                  1.1290         0.312035   
     74. B(H  49,C  42)                  1.1288         0.312264   
     75. B(H  50,C  38)                  1.1291         0.311896   
     76. B(H  51,C  37)                  1.1279         0.313335   
     77. B(H  52,C  43)                  1.1256         0.315967   
     78. B(H  53,C  47)                  1.1278         0.313389   
     79. B(H  54,C  39)                  1.1286         0.312492   
     80. B(H  55,C  45)                  1.1282         0.312965   
     81. B(H  56,C  40)                  1.1290         0.312015   
     82. B(H  57,C  46)                  1.1290         0.312047   
     83. B(H  58,C  36)                  1.1278         0.313388   
     84. B(H  59,C  44)                  1.1279         0.313322   
     85. B(Al 61,Al 60)                  2.6965         0.252656   
     86. B(Al 61,O  31)                  2.2032         0.197724   
     87. B(H  62,Al 61)                  1.9242         0.117771   
     88. B(H  62,Al 60)                  1.7024         0.266090   
     89. B(H  63,Al 61)                  1.6103         0.373177   
     90. B(H  64,Al 61)                  1.7895         0.193226   
     91. B(H  64,Al 60)                  1.7409         0.230973   
     92. B(H  65,Al 60)                  1.6206         0.359345   
     93. B(H  66,Al 60)                  1.6205         0.359487   
     94. B(H  67,Al 61)                  1.6211         0.358625   
     95. A(O  12,Zr  0,O  14)           85.6857         0.395990   
     96. A(Zr  5,Zr  0,O  14)          109.2030         0.298243   
     97. A(O  14,Zr  0,O  15)           70.5820         0.380370   
     98. A(Zr  5,Zr  0,O  12)           74.3834         0.299686   
     99. A(Zr  3,Zr  0,O  15)          106.6559         0.288932   
    100. A(Zr  3,Zr  0,O  14)          153.8157         0.298208   
    101. A(Zr  5,Zr  0,O   6)           34.5083         0.299106   
    102. A(Zr  5,Zr  0,O   9)           91.3032         0.326891   
    103. A(O  12,Zr  0,O  13)           76.4104         0.396860   
    104. A(Zr  5,Zr  0,O  11)           37.3142         0.325664   
    105. A(O   6,Zr  0,O   9)           70.2316         0.437060   
    106. A(O   6,Zr  0,O  14)          143.5471         0.395146   
    107. A(Zr  3,Zr  0,O   9)           37.7132         0.326850   
    108. A(O  12,Zr  0,O  15)          123.3410         0.382378   
    109. A(Zr  3,Zr  0,O   6)           34.8212         0.299071   
    110. A(Zr  3,Zr  0,Zr  5)           64.9775         0.232578   
    111. A(Zr  3,Zr  0,O  13)           74.1221         0.298800   
    112. A(O   6,Zr  0,O  12)           85.3456         0.397256   
    113. A(O  11,Zr  0,O  14)           74.1917         0.433842   
    114. A(O  11,Zr  0,O  13)          147.3736         0.434819   
    115. A(O   9,Zr  0,O  15)           74.4267         0.420261   
    116. A(O   9,Zr  0,O  14)          121.8210         0.435630   
    117. A(O   9,Zr  0,O  11)           99.1113         0.481055   
    118. A(Zr  5,Zr  0,O  15)          161.6295         0.288966   
    119. A(Zr  3,Zr  0,O  11)           91.4851         0.325623   
    120. A(O   6,Zr  0,O  13)           82.7504         0.396013   
    121. A(O  13,Zr  0,O  14)          128.8525         0.394752   
    122. A(Zr  3,Zr  0,O  12)          115.0404         0.299650   
    123. A(O  13,Zr  0,O  15)           80.2086         0.381195   
    124. A(O  11,Zr  0,O  15)          132.3739         0.418552   
    125. A(O  11,Zr  0,O  12)           83.9572         0.436220   
    126. A(O   6,Zr  0,O  15)          141.2607         0.381571   
    127. A(Zr  5,Zr  0,O  13)          111.1732         0.298836   
    128. A(O   9,Zr  0,O  12)          152.2335         0.438020   
    129. A(O   9,Zr  0,O  13)           87.2763         0.436613   
    130. A(O   6,Zr  0,O  11)           69.7635         0.435265   
    131. A(Zr  2,Zr  1,O  18)           73.9754         0.298331   
    132. A(O  17,Zr  1,O  18)          131.9363         0.392508   
    133. A(O  10,Zr  1,O  17)           74.5833         0.431846   
    134. A(O   7,Zr  1,O  18)           79.3230         0.392206   
    135. A(O  16,Zr  1,O  17)           71.1675         0.386727   
    136. A(O   7,Zr  1,O   8)           70.2648         0.437432   
    137. A(O   7,Zr  1,O  16)          139.9596         0.386432   
    138. A(Zr  2,Zr  1,O  10)           90.3748         0.325463   
    139. A(O   8,Zr  1,O  10)           96.9728         0.480007   
    140. A(Zr  2,Zr  1,O   8)           36.9366         0.329555   
    141. A(O  16,Zr  1,O  19)          120.8493         0.388760   
    142. A(O  10,Zr  1,O  16)          134.7222         0.422775   
    143. A(O   7,Zr  1,O  17)          144.4301         0.394515   
    144. A(Zr  2,Zr  1,Zr  4)           65.0336         0.237182   
    145. A(Zr  4,Zr  1,O  17)          110.0833         0.303848   
    146. A(O  16,Zr  1,O  18)           80.9944         0.384477   
    147. A(Zr  4,Zr  1,O   7)           34.7137         0.303635   
    148. A(Zr  4,Zr  1,O  10)           37.6341         0.329861   
    149. A(Zr  4,Zr  1,O  19)           75.3149         0.305315   
    150. A(Zr  2,Zr  1,O  19)          119.2235         0.301365   
    151. A(Zr  2,Zr  1,O   7)           35.3981         0.299716   
    152. A(O   8,Zr  1,O  16)           75.0603         0.428550   
    153. A(O   7,Zr  1,O  19)           87.7208         0.396601   
    154. A(Zr  2,Zr  1,O  17)          150.4072         0.299925   
    155. A(O   8,Zr  1,O  18)           89.4988         0.435143   
    156. A(O  18,Zr  1,O  19)           76.5921         0.394580   
    157. A(Zr  4,Zr  1,O   8)           90.6956         0.334029   
    158. A(O  10,Zr  1,O  19)           83.9287         0.434186   
    159. A(O  10,Zr  1,O  18)          144.1816         0.429255   
    160. A(O   8,Zr  1,O  17)          118.5404         0.437779   
    161. A(O  17,Zr  1,O  19)           84.9841         0.396907   
    162. A(Zr  2,Zr  1,O  16)          105.3627         0.294344   
    163. A(Zr  4,Zr  1,O  18)          107.4666         0.302224   
    164. A(O   7,Zr  1,O  10)           70.0406         0.431506   
    165. A(Zr  4,Zr  1,O  16)          163.5769         0.298163   
    166. A(O   8,Zr  1,O  19)          155.9423         0.440159   
    167. A(O  21,Zr  2,O  22)          119.8227         0.384809   
    168. A(Zr  1,Zr  2,O   7)           38.0155         0.324301   
    169. A(O   7,Zr  2,O   8)           70.3830         0.438260   
    170. A(O  20,Zr  2,O  22)           77.3932         0.399655   
    171. A(Zr  5,Zr  2,O   8)           35.1846         0.307108   
    172. A(O  20,Zr  2,O  23)          132.7308         0.384840   
    173. A(O  11,Zr  2,O  23)          114.2417         0.428232   
    174. A(O  21,Zr  2,O  23)           69.5189         0.370701   
    175. A(Zr  5,Zr  2,O   7)           92.6908         0.326673   
    176. A(Zr  1,Zr  2,O  22)           74.7152         0.302129   
    177. A(O  22,Zr  2,O  23)           88.9627         0.386352   
    178. A(O   7,Zr  2,O  21)          136.5278         0.415582   
    179. A(O   8,Zr  2,O  23)          143.9458         0.390263   
    180. A(O   7,Zr  2,O  23)           73.6889         0.417286   
    181. A(Zr  1,Zr  2,O  23)          110.9129         0.291965   
    182. A(Zr  5,Zr  2,O  23)          146.8175         0.294010   
    183. A(Zr  5,Zr  2,O  22)          119.3012         0.304277   
    184. A(O  20,Zr  2,O  21)           78.6231         0.383304   
    185. A(Zr  1,Zr  2,Zr  5)           65.4941         0.235943   
    186. A(Zr  1,Zr  2,O   8)           34.4370         0.304932   
    187. A(O   7,Zr  2,O  22)           81.1258         0.433726   
    188. A(Zr  5,Zr  2,O  11)           37.5678         0.334598   
    189. A(O   7,Zr  2,O  11)          100.9525         0.482279   
    190. A(O  11,Zr  2,O  21)           74.7123         0.426472   
    191. A(O   8,Zr  2,O  21)          140.1239         0.388699   
    192. A(O  11,Zr  2,O  20)           88.6255         0.443409   
    193. A(Zr  1,Zr  2,O  21)          165.2935         0.290911   
    194. A(Zr  1,Zr  2,O  11)           92.3825         0.332147   
    195. A(O   8,Zr  2,O  11)           70.6049         0.449906   
    196. A(Zr  5,Zr  2,O  21)          105.6388         0.292946   
    197. A(O   8,Zr  2,O  20)           81.4495         0.403741   
    198. A(O   7,Zr  2,O  20)          144.8235         0.431973   
    199. A(O   8,Zr  2,O  22)           88.4669         0.405350   
    200. A(O  11,Zr  2,O  22)          156.4671         0.445221   
    201. A(Zr  1,Zr  2,O  20)          108.6115         0.301045   
    202. A(Zr  5,Zr  2,O  20)           74.4490         0.303182   
    203. A(O   6,Zr  3,O  10)           97.8413         0.481594   
    204. A(O   9,Zr  3,O  10)           69.9196         0.435913   
    205. A(Zr  4,Zr  3,O  10)           37.1334         0.330420   
    206. A(O  24,Zr  3,O  25)           85.9970         0.395793   
    207. A(O  26,Zr  3,O  27)           79.5975         0.383861   
    208. A(O   9,Zr  3,O  25)           85.6113         0.396285   
    209. A(Zr  0,Zr  3,O  27)          110.7391         0.298407   
    210. A(O  25,Zr  3,O  27)           76.2486         0.396971   
    211. A(O  24,Zr  3,O  27)          128.7404         0.393301   
    212. A(O   9,Zr  3,O  27)           82.3620         0.393789   
    213. A(O   6,Zr  3,O  27)          147.3645         0.433922   
    214. A(Zr  4,Zr  3,O  27)           74.3148         0.301105   
    215. A(O  10,Zr  3,O  27)           88.2014         0.436688   
    216. A(O   9,Zr  3,O  26)          140.6435         0.383204   
    217. A(O  25,Zr  3,O  26)          122.8724         0.386276   
    218. A(O  24,Zr  3,O  26)           70.6307         0.382733   
    219. A(O  10,Zr  3,O  26)           74.8112         0.424614   
    220. A(O   6,Zr  3,O  26)          132.9674         0.421944   
    221. A(Zr  4,Zr  3,O  26)          105.8127         0.293739   
    222. A(Zr  0,Zr  3,O  26)          162.3781         0.291135   
    223. A(O   6,Zr  3,O   9)           69.9790         0.433154   
    224. A(O  10,Zr  3,O  25)          152.6501         0.439536   
    225. A(O   6,Zr  3,O  25)           84.4735         0.436747   
    226. A(Zr  4,Zr  3,O   9)           35.1841         0.300632   
    227. A(Zr  4,Zr  3,O  25)          115.8613         0.302842   
    228. A(Zr  0,Zr  3,O  25)           74.3190         0.300122   
    229. A(O  10,Zr  3,O  24)          121.0073         0.435358   
    230. A(Zr  0,Zr  3,O   9)           34.6831         0.297940   
    231. A(Zr  0,Zr  3,O   6)           37.5877         0.325453   
    232. A(O   6,Zr  3,O  24)           74.7142         0.432603   
    233. A(O   9,Zr  3,O  24)          144.3079         0.392623   
    234. A(Zr  4,Zr  3,O  24)          153.1904         0.300294   
    235. A(Zr  0,Zr  3,Zr  4)           65.3827         0.234403   
    236. A(Zr  4,Zr  3,O   6)           91.3376         0.328500   
    237. A(Zr  0,Zr  3,O  24)          109.8378         0.297606   
    238. A(Zr  0,Zr  3,O  10)           90.8900         0.327349   
    239. A(Zr  1,Zr  4,Zr  3)           66.1623         0.238096   
    240. A(O   9,Zr  4,O  10)           70.3977         0.442567   
    241. A(O   7,Zr  4,O  10)           71.2962         0.451052   
    242. A(Zr  3,Zr  4,O  10)           34.6807         0.306319   
    243. A(O  10,Zr  4,O  28)           87.6708         0.403358   
    244. A(O   9,Zr  4,O  29)           75.5366         0.437272   
    245. A(O  28,Zr  4,O  30)           76.0032         0.401624   
    246. A(O   7,Zr  4,O  31)           73.0151         0.385169   
    247. A(O  29,Zr  4,O  31)           70.0303         0.347390   
    248. A(O  30,Zr  4,O  31)           78.7933         0.349873   
    249. A(O  28,Zr  4,O  31)          120.7871         0.346154   
    250. A(O  10,Zr  4,O  31)          139.0167         0.351319   
    251. A(O   9,Zr  4,O  31)          136.1526         0.378229   
    252. A(Zr  3,Zr  4,O  31)          164.5949         0.266774   
    253. A(Zr  1,Zr  4,O  31)          104.1493         0.268969   
    254. A(O  29,Zr  4,O  30)          130.1688         0.403127   
    255. A(O  10,Zr  4,O  30)           80.9220         0.407904   
    256. A(O   9,Zr  4,O  30)          145.0463         0.440618   
    257. A(O   7,Zr  4,O  30)           88.7302         0.449055   
    258. A(Zr  3,Zr  4,O  30)          108.2533         0.305121   
    259. A(Zr  1,Zr  4,O  30)           73.6188         0.307790   
    260. A(O  28,Zr  4,O  29)           87.5717         0.398649   
    261. A(O  10,Zr  4,O  29)          145.9260         0.404869   
    262. A(O   7,Zr  4,O  29)          116.4868         0.445629   
    263. A(Zr  3,Zr  4,O  29)          112.0404         0.303064   
    264. A(Zr  1,Zr  4,O  29)          150.5635         0.305708   
    265. A(O   9,Zr  4,O  28)           83.1166         0.435605   
    266. A(O   7,Zr  4,O  28)          155.8492         0.443923   
    267. A(Zr  3,Zr  4,O  28)           74.5668         0.302040   
    268. A(O   7,Zr  4,O   9)          100.1476         0.488192   
    269. A(Zr  1,Zr  4,O  28)          118.1918         0.304671   
    270. A(Zr  3,Zr  4,O   9)           38.1321         0.328612   
    271. A(Zr  1,Zr  4,O   9)           92.6844         0.331572   
    272. A(Zr  3,Zr  4,O   7)           93.1408         0.334362   
    273. A(Zr  1,Zr  4,O   7)           38.1795         0.337393   
    274. A(Zr  1,Zr  4,O  10)           35.4797         0.309004   
    275. A(O  11,Zr  5,O  35)           85.6596         0.399147   
    276. A(O   6,Zr  5,O   8)           98.2629         0.480650   
    277. A(O  34,Zr  5,O  35)           85.3368         0.392571   
    278. A(O  33,Zr  5,O  35)           76.9248         0.396567   
    279. A(O  32,Zr  5,O  35)          121.9930         0.387058   
    280. A(O   8,Zr  5,O  35)           84.0191         0.433938   
    281. A(O   6,Zr  5,O  35)          152.8845         0.438785   
    282. A(Zr  2,Zr  5,O  35)           74.5048         0.302832   
    283. A(O  33,Zr  5,O  34)          129.9402         0.392078   
    284. A(O  32,Zr  5,O  34)           70.9979         0.382708   
    285. A(O  11,Zr  5,O  34)          143.5154         0.394621   
    286. A(Zr  0,Zr  5,O  35)          115.8408         0.299331   
    287. A(O  32,Zr  5,O  33)           79.6310         0.386574   
    288. A(O   6,Zr  5,O  34)          121.4028         0.433680   
    289. A(Zr  2,Zr  5,O  34)          109.2035         0.299712   
    290. A(Zr  0,Zr  5,O  34)          152.8849         0.296262   
    291. A(O  11,Zr  5,O  33)           81.7586         0.398643   
    292. A(O   8,Zr  5,O  33)          146.7688         0.433378   
    293. A(O   6,Zr  5,O  33)           87.3624         0.438217   
    294. A(Zr  0,Zr  5,O  33)           74.0754         0.298990   
    295. A(O  11,Zr  5,O  32)          141.4015         0.389071   
    296. A(O   8,Zr  5,O  32)          133.5338         0.422732   
    297. A(O   6,Zr  5,O  32)           75.4832         0.427421   
    298. A(Zr  2,Zr  5,O  32)          163.0131         0.295885   
    299. A(Zr  0,Zr  5,O  32)          107.1499         0.292498   
    300. A(Zr  2,Zr  5,O   6)           90.8865         0.331789   
    301. A(Zr  0,Zr  5,O   6)           37.4887         0.327814   
    302. A(Zr  0,Zr  5,Zr  2)           64.5034         0.234993   
    303. A(O   8,Zr  5,O  34)           74.1813         0.428905   
    304. A(O   8,Zr  5,O  11)           69.7517         0.436268   
    305. A(O   6,Zr  5,O  11)           70.1395         0.441147   
    306. A(Zr  2,Zr  5,O  11)           34.4818         0.304276   
    307. A(Zr  0,Zr  5,O  11)           34.7246         0.300752   
    308. A(Zr  2,Zr  5,O  33)          110.3059         0.302485   
    309. A(Zr  2,Zr  5,O   8)           37.3819         0.328425   
    310. A(Zr  0,Zr  5,O   8)           90.6086         0.324505   
    311. A(Zr  3,O   6,Zr  5)          128.1008         0.482293   
    312. A(Zr  0,O   6,Zr  5)          108.0030         0.438411   
    313. A(Zr  0,O   6,Zr  3)          107.5911         0.435015   
    314. A(Zr  2,O   7,Zr  4)          127.1998         0.483428   
    315. A(Zr  1,O   7,Zr  4)          107.1068         0.442216   
    316. A(Zr  1,O   7,Zr  2)          106.5864         0.429823   
    317. A(Zr  1,O   8,Zr  2)          108.6264         0.446058   
    318. A(Zr  2,O   8,Zr  5)          107.4335         0.440836   
    319. A(Zr  1,O   8,Zr  5)          128.5870         0.480955   
    320. A(Zr  3,O   9,Zr  4)          106.6838         0.433315   
    321. A(Zr  0,O   9,Zr  4)          128.6623         0.480957   
    322. A(Zr  0,O   9,Zr  3)          107.6038         0.435188   
    323. A(Zr  3,O  10,Zr  4)          108.1860         0.445235   
    324. A(Zr  1,O  10,Zr  4)          106.8862         0.440073   
    325. A(Zr  1,O  10,Zr  3)          129.8045         0.479008   
    326. A(Zr  2,O  11,Zr  5)          107.9504         0.445220   
    327. A(Zr  0,O  11,Zr  5)          107.9611         0.437976   
    328. A(Zr  0,O  11,Zr  2)          126.7401         0.487128   
    329. A(Zr  0,O  12,C  36)          131.9687         0.438400   
    330. A(Zr  0,O  13,C  37)          132.2544         0.437854   
    331. A(Zr  0,O  14,C  38)          136.7178         0.434041   
    332. A(Zr  0,O  15,C  39)          128.0849         0.423529   
    333. A(Zr  1,O  16,C  40)          127.7742         0.428990   
    334. A(Zr  1,O  17,C  41)          136.5547         0.434542   
    335. A(Zr  1,O  18,C  42)          132.2123         0.434935   
    336. A(Zr  1,O  19,C  43)          130.7052         0.439575   
    337. A(Zr  2,O  20,C  44)          131.9436         0.439081   
    338. A(Zr  2,O  21,C  38)          126.8212         0.423656   
    339. A(Zr  2,O  22,C  42)          131.8582         0.439274   
    340. A(Zr  2,O  23,C  45)          136.3641         0.425355   
    341. A(Zr  3,O  24,C  46)          136.9348         0.433616   
    342. A(Zr  3,O  25,C  37)          132.2350         0.439393   
    343. A(Zr  3,O  26,C  41)          128.2851         0.426333   
    344. A(Zr  3,O  27,C  47)          132.1771         0.437210   
    345. A(Zr  4,O  28,C  47)          132.0128         0.438095   
    346. A(Zr  4,O  29,C  39)          135.4020         0.436402   
    347. A(Zr  4,O  30,C  43)          133.9611         0.442572   
    348. A(C  45,O  31,Al 61)          112.2617         0.405377   
    349. A(Zr  4,O  31,Al 61)          125.4792         0.325428   
    350. A(Zr  4,O  31,C  45)          118.9080         0.376148   
    351. A(Zr  5,O  32,C  46)          129.0602         0.428362   
    352. A(Zr  5,O  33,C  36)          132.3819         0.438151   
    353. A(Zr  5,O  34,C  40)          136.4677         0.431140   
    354. A(Zr  5,O  35,C  44)          131.6245         0.437964   
    355. A(O  12,C  36,O  33)          127.0318         0.484974   
    356. A(O  33,C  36,H  58)          116.5649         0.363311   
    357. A(O  12,C  36,H  58)          116.4032         0.362599   
    358. A(O  13,C  37,O  25)          126.9975         0.485162   
    359. A(O  25,C  37,H  51)          116.4323         0.362752   
    360. A(O  13,C  37,H  51)          116.5702         0.363267   
    361. A(O  14,C  38,O  21)          127.4411         0.484034   
    362. A(O  21,C  38,H  50)          116.6336         0.363922   
    363. A(O  14,C  38,H  50)          115.9199         0.360755   
    364. A(O  15,C  39,O  29)          127.2916         0.483836   
    365. A(O  29,C  39,H  54)          115.8630         0.359969   
    366. A(O  15,C  39,H  54)          116.8397         0.364819   
    367. A(O  16,C  40,O  34)          127.4285         0.484044   
    368. A(O  34,C  40,H  56)          116.1874         0.361070   
    369. A(O  16,C  40,H  56)          116.3772         0.363659   
    370. A(O  17,C  41,O  26)          127.3894         0.484088   
    371. A(O  26,C  41,H  48)          116.6227         0.364008   
    372. A(O  17,C  41,H  48)          115.9803         0.360762   
    373. A(O  18,C  42,O  22)          126.6236         0.484110   
    374. A(O  22,C  42,H  49)          116.4957         0.361680   
    375. A(O  18,C  42,H  49)          116.8802         0.363189   
    376. A(O  30,C  43,H  52)          116.4584         0.362842   
    377. A(O  19,C  43,H  52)          117.3236         0.363629   
    378. A(O  19,C  43,O  30)          126.2172         0.484315   
    379. A(O  35,C  44,H  59)          116.4893         0.362705   
    380. A(O  20,C  44,H  59)          116.3677         0.363133   
    381. A(O  20,C  44,O  35)          127.1430         0.484908   
    382. A(O  31,C  45,H  55)          115.7265         0.358786   
    383. A(O  23,C  45,H  55)          117.6478         0.364097   
    384. A(O  23,C  45,O  31)          126.6250         0.480814   
    385. A(O  32,C  46,H  57)          116.5721         0.363858   
    386. A(O  24,C  46,H  57)          116.0995         0.361232   
    387. A(O  24,C  46,O  32)          127.3206         0.484549   
    388. A(O  28,C  47,H  53)          116.4989         0.362776   
    389. A(O  27,C  47,H  53)          116.6124         0.363286   
    390. A(O  27,C  47,O  28)          126.8887         0.485193   
    391. A(H  65,Al 60,H  66)          124.6987         0.370311   
    392. A(H  64,Al 60,H  66)          107.4786         0.343531   
    393. A(H  62,Al 60,H  66)          111.6021         0.351817   
    394. A(H  64,Al 60,H  65)          105.3271         0.343508   
    395. A(H  62,Al 60,H  65)          113.9033         0.351793   
    396. A(Al 61,Al 60,H  65)          116.8709         0.405822   
    397. A(H  62,Al 60,H  64)           86.0951         0.326777   
    398. A(Al 61,Al 60,H  64)           40.8709         0.375661   
    399. A(Al 61,Al 60,H  66)          117.1958         0.405850   
    400. A(Al 61,Al 60,H  62)           45.2245         0.384993   
    401. A(H  64,Al 61,H  67)          114.4649         0.333323   
    402. A(H  63,Al 61,H  67)          128.7662         0.372572   
    403. A(H  62,Al 61,H  67)           93.5851         0.307422   
    404. A(Al 60,Al 61,H  67)          107.7235         0.405678   
    405. A(O  31,Al 61,H  67)           92.2683         0.359567   
    406. A(H  63,Al 61,H  64)          116.7590         0.335533   
    407. A(H  62,Al 61,H  64)           78.4422         0.278892   
    408. A(Al 60,Al 61,H  64)           39.5383         0.364315   
    409. A(O  31,Al 61,H  64)           77.7392         0.324227   
    410. A(H  62,Al 61,H  63)           97.2515         0.309397   
    411. A(Al 60,Al 61,H  63)          111.8554         0.408542   
    412. A(O  31,Al 61,H  63)           97.3048         0.362014   
    413. A(Al 60,Al 61,H  62)           38.9041         0.335127   
    414. A(O  31,Al 61,H  62)          155.7787         0.299290   
    415. A(O  31,Al 61,Al 60)          117.1487         0.393888   
    416. A(Al 60,H  62,Al 61)           95.8714         0.293155   
    417. A(Al 60,H  64,Al 61)           99.5908         0.310165   
    418. D(Zr  5,Zr  2,Zr  1,O   7)    131.8288         0.010000   
    419. D(O   7,Zr  2,Zr  1,Zr  4)    -24.4735         0.010000   
    420. D(Zr  5,Zr  2,Zr  1,Zr  4)    107.3554         0.010000   
    421. D(Zr  4,Zr  3,Zr  0,O   6)   -129.5941         0.010000   
    422. D(O   6,Zr  3,Zr  0,Zr  5)     22.8525         0.010000   
    423. D(Zr  4,Zr  3,Zr  0,Zr  5)   -106.7416         0.010000   
    424. D(O   7,Zr  4,Zr  3,Zr  0)     79.3730         0.010000   
    425. D(O   7,Zr  4,Zr  1,Zr  2)     24.9220         0.010000   
    426. D(Zr  3,Zr  4,Zr  1,Zr  2)   -106.2860         0.010000   
    427. D(Zr  1,Zr  4,Zr  3,O   6)     79.0857         0.010000   
    428. D(Zr  1,Zr  4,Zr  3,Zr  0)    107.1305         0.010000   
    429. D(Zr  3,Zr  4,Zr  1,O   7)   -131.2080         0.010000   
    430. D(Zr  0,Zr  5,Zr  2,Zr  1)   -107.9451         0.010000   
    431. D(Zr  2,Zr  5,Zr  0,O   6)    130.5364         0.010000   
    432. D(O   6,Zr  5,Zr  0,Zr  3)    -23.0441         0.010000   
    433. D(Zr  2,Zr  5,Zr  0,Zr  3)    107.4923         0.010000   
    434. D(O   6,Zr  5,Zr  2,Zr  1)    -80.3907         0.010000   
    435. D(Zr  0,Zr  5,Zr  2,O   7)    -80.5954         0.010000   
    436. D(Zr  5,O   6,Zr  3,Zr  0)   -131.3475         0.010000   
    437. D(Zr  0,O   6,Zr  5,Zr  2)    -43.3191         0.010000   
    438. D(Zr  5,O   6,Zr  0,Zr  3)    141.5983         0.010000   
    439. D(Zr  0,O   6,Zr  3,O   9)     15.9620         0.010000   
    440. D(Zr  0,O   6,Zr  3,Zr  4)     44.4858         0.010000   
    441. D(Zr  3,O   6,Zr  5,Zr  0)    131.1969         0.010000   
    442. D(Zr  3,O   6,Zr  0,O   9)    -17.1666         0.010000   
    443. D(Zr  0,O   6,Zr  5,O   8)    -80.1134         0.010000   
    444. D(Zr  3,O   6,Zr  0,Zr  5)   -141.5983         0.010000   
    445. D(Zr  1,O   7,Zr  2,Zr  5)    -42.7473         0.010000   
    446. D(Zr  2,O   7,Zr  1,O   8)     16.0234         0.010000   
    447. D(Zr  4,O   7,Zr  1,Zr  2)   -138.7395         0.010000   
    448. D(Zr  2,O   7,Zr  1,Zr  4)    138.7395         0.010000   
    449. D(Zr  1,O   7,Zr  4,O   9)     81.3358         0.010000   
    450. D(Zr  1,O   7,Zr  4,Zr  3)     43.5653         0.010000   
    451. D(Zr  4,O   7,Zr  2,Zr  1)    127.6915         0.010000   
    452. D(Zr  1,O   7,Zr  2,O   8)    -15.0441         0.010000   
    453. D(Zr  2,O   7,Zr  4,Zr  1)   -127.4868         0.010000   
    454. D(Zr  2,O   8,Zr  5,Zr  0)     43.7012         0.010000   
    455. D(Zr  5,O   8,Zr  2,Zr  1)   -142.7220         0.010000   
    456. D(Zr  1,O   8,Zr  5,Zr  2)   -132.7537         0.010000   
    457. D(Zr  1,O   8,Zr  2,Zr  5)    142.7220         0.010000   
    458. D(Zr  5,O   8,Zr  1,Zr  2)    132.3306         0.010000   
    459. D(Zr  1,O   8,Zr  5,Zr  0)    -89.0525         0.010000   
    460. D(Zr  2,O   8,Zr  1,O   7)    -15.4307         0.010000   
    461. D(Zr  2,O   8,Zr  1,Zr  4)    -44.0618         0.010000   
    462. D(Zr  1,O   8,Zr  2,O   7)     16.4205         0.010000   
    463. D(Zr  3,O   9,Zr  4,Zr  1)    -44.3601         0.010000   
    464. D(Zr  0,O   9,Zr  4,Zr  3)    130.0999         0.010000   
    465. D(Zr  0,O   9,Zr  4,Zr  1)     85.7399         0.010000   
    466. D(Zr  4,O   9,Zr  3,Zr  0)    141.1983         0.010000   
    467. D(Zr  0,O   9,Zr  3,O   6)    -17.1446         0.010000   
    468. D(Zr  0,O   9,Zr  3,Zr  4)   -141.1983         0.010000   
    469. D(Zr  4,O   9,Zr  0,Zr  3)   -129.7609         0.010000   
    470. D(Zr  3,O   9,Zr  0,O   6)     15.9928         0.010000   
    471. D(Zr  3,O   9,Zr  0,Zr  5)     43.8579         0.010000   
    472. D(Zr  1,O  10,Zr  4,O   7)    -17.2813         0.010000   
    473. D(Zr  1,O  10,Zr  4,Zr  3)   -143.5056         0.010000   
    474. D(Zr  4,O  10,Zr  3,Zr  0)    -44.7136         0.010000   
    475. D(Zr  1,O  10,Zr  3,Zr  4)    132.2010         0.010000   
    476. D(Zr  1,O  10,Zr  3,Zr  0)     87.4874         0.010000   
    477. D(Zr  4,O  10,Zr  1,Zr  2)     45.5934         0.010000   
    478. D(Zr  3,O  10,Zr  1,Zr  4)   -132.6504         0.010000   
    479. D(Zr  3,O  10,Zr  4,Zr  1)    143.5056         0.010000   
    480. D(Zr  3,O  10,Zr  1,Zr  2)    -87.0570         0.010000   
    481. D(Zr  2,O  11,Zr  5,Zr  0)   -139.9984         0.010000   
    482. D(Zr  0,O  11,Zr  5,Zr  2)    139.9984         0.010000   
    483. D(Zr  5,O  11,Zr  2,Zr  1)     42.6936         0.010000   
    484. D(Zr  0,O  11,Zr  2,Zr  5)   -130.2654         0.010000   
    485. D(Zr  0,O  11,Zr  2,Zr  1)    -87.5717         0.010000   
    486. D(Zr  5,O  11,Zr  0,Zr  3)    -42.9448         0.010000   
    487. D(Zr  0,O  11,Zr  5,O   6)     16.2885         0.010000   
    488. D(Zr  2,O  11,Zr  0,Zr  5)    130.2612         0.010000   
    489. D(Zr  2,O  11,Zr  0,Zr  3)     87.3164         0.010000   
    490. D(C  36,O  12,Zr  0,Zr  5)      4.2202         0.010000   
    491. D(C  36,O  12,Zr  0,Zr  3)     56.2443         0.010000   
    492. D(C  37,O  13,Zr  0,Zr  5)    -55.2024         0.010000   
    493. D(C  37,O  13,Zr  0,Zr  3)     -0.7768         0.010000   
    494. D(C  38,O  14,Zr  0,Zr  5)      9.5677         0.010000   
    495. D(C  38,O  14,Zr  0,Zr  3)    -62.5710         0.010000   
    496. D(C  39,O  15,Zr  0,Zr  5)      2.9254         0.010000   
    497. D(C  39,O  15,Zr  0,Zr  3)    -57.0773         0.010000   
    498. D(C  40,O  16,Zr  1,Zr  4)      5.8678         0.010000   
    499. D(C  40,O  16,Zr  1,Zr  2)     57.8350         0.010000   
    500. D(C  41,O  17,Zr  1,Zr  4)     -5.7358         0.010000   
    501. D(C  41,O  17,Zr  1,Zr  2)     68.8222         0.010000   
    502. D(C  42,O  18,Zr  1,Zr  4)     53.5129         0.010000   
    503. D(C  42,O  18,Zr  1,Zr  2)     -3.0686         0.010000   
    504. D(C  43,O  19,Zr  1,Zr  4)     -4.4093         0.010000   
    505. D(C  43,O  19,Zr  1,Zr  2)    -54.1249         0.010000   
    506. D(C  44,O  20,Zr  2,Zr  5)     -3.6853         0.010000   
    507. D(C  44,O  20,Zr  2,Zr  1)    -60.4540         0.010000   
    508. D(C  38,O  21,Zr  2,Zr  5)    -59.0132         0.010000   
    509. D(C  38,O  21,Zr  2,Zr  1)     -8.0722         0.010000   
    510. D(C  42,O  22,Zr  2,Zr  5)     55.8154         0.010000   
    511. D(C  42,O  22,Zr  2,Zr  1)      6.0898         0.010000   
    512. D(C  45,O  23,Zr  2,Zr  5)    -92.5227         0.010000   
    513. D(C  45,O  23,Zr  2,Zr  1)    -15.6421         0.010000   
    514. D(C  46,O  24,Zr  3,Zr  4)     60.9165         0.010000   
    515. D(C  46,O  24,Zr  3,Zr  0)    -13.5421         0.010000   
    516. D(C  37,O  25,Zr  3,Zr  4)    -54.7547         0.010000   
    517. D(C  37,O  25,Zr  3,Zr  0)     -2.8440         0.010000   
    518. D(C  41,O  26,Zr  3,Zr  4)     56.6418         0.010000   
    519. D(C  41,O  26,Zr  3,Zr  0)     -0.7780         0.010000   
    520. D(C  47,O  27,Zr  3,Zr  4)     -1.7987         0.010000   
    521. D(C  47,O  27,Zr  3,Zr  0)     53.5226         0.010000   
    522. D(C  47,O  28,Zr  4,Zr  3)      0.3910         0.010000   
    523. D(C  47,O  28,Zr  4,Zr  1)     51.8062         0.010000   
    524. D(C  39,O  29,Zr  4,Zr  3)      3.1282         0.010000   
    525. D(C  39,O  29,Zr  4,Zr  1)    -77.0980         0.010000   
    526. D(C  43,O  30,Zr  4,Zr  3)    -58.0898         0.010000   
    527. D(C  43,O  30,Zr  4,Zr  1)     -0.8088         0.010000   
    528. D(Al 61,O  31,Zr  4,Zr  1)     85.2557         0.010000   
    529. D(C  45,O  31,Zr  4,Zr  3)    -23.2659         0.010000   
    530. D(C  45,O  31,Zr  4,Zr  1)    -72.4160         0.010000   
    531. D(C  46,O  32,Zr  5,Zr  2)     -4.4944         0.010000   
    532. D(C  46,O  32,Zr  5,Zr  0)     53.3809         0.010000   
    533. D(C  36,O  33,Zr  5,Zr  2)     56.2132         0.010000   
    534. D(C  36,O  33,Zr  5,Zr  0)      1.8663         0.010000   
    535. D(C  40,O  34,Zr  5,Zr  2)     -7.5544         0.010000   
    536. D(C  40,O  34,Zr  5,Zr  0)     63.7897         0.010000   
    537. D(C  44,O  35,Zr  5,Zr  2)     -5.9232         0.010000   
    538. D(C  44,O  35,Zr  5,Zr  0)    -56.8299         0.010000   
    539. D(H  58,C  36,O  33,Zr  5)   -179.6390         0.060597   
    540. D(O  12,C  36,O  33,Zr  5)      0.4488         0.060597   
    541. D(H  58,C  36,O  12,Zr  0)    175.4386         0.059042   
    542. D(O  33,C  36,O  12,Zr  0)     -4.6490         0.059042   
    543. D(H  51,C  37,O  13,Zr  0)    179.0567         0.060523   
    544. D(O  25,C  37,O  13,Zr  0)     -0.9757         0.060523   
    545. D(H  51,C  37,O  25,Zr  3)   -176.5533         0.059396   
    546. D(O  13,C  37,O  25,Zr  3)      3.4791         0.059396   
    547. D(H  50,C  38,O  21,Zr  2)    175.1323         0.062640   
    548. D(O  14,C  38,O  21,Zr  2)     -5.7484         0.062640   
    549. D(H  50,C  38,O  14,Zr  0)   -144.6486         0.055785   
    550. D(O  21,C  38,O  14,Zr  0)     36.2267         0.055785   
    551. D(H  54,C  39,O  29,Zr  4)   -140.4928         0.053968   
    552. D(O  15,C  39,O  29,Zr  4)     40.4084         0.053968   
    553. D(H  54,C  39,O  15,Zr  0)    174.1388         0.064443   
    554. D(O  29,C  39,O  15,Zr  0)     -6.7701         0.064443   
    555. D(H  56,C  40,O  34,Zr  5)    142.9367         0.056384   
    556. D(O  16,C  40,O  34,Zr  5)    -38.0534         0.056384   
    557. D(H  56,C  40,O  16,Zr  1)   -174.5434         0.061987   
    558. D(O  34,C  40,O  16,Zr  1)      6.4483         0.061987   
    559. D(H  48,C  41,O  26,Zr  3)   -174.6290         0.062773   
    560. D(O  17,C  41,O  26,Zr  3)      6.4183         0.062773   
    561. D(H  48,C  41,O  17,Zr  1)    142.4772         0.055744   
    562. D(O  26,C  41,O  17,Zr  1)    -38.5643         0.055744   
    563. D(H  49,C  42,O  22,Zr  2)    168.8527         0.057556   
    564. D(O  18,C  42,O  22,Zr  2)    -10.8906         0.057556   
    565. D(H  49,C  42,O  18,Zr  1)   -170.9255         0.060821   
    566. D(O  22,C  42,O  18,Zr  1)      8.8169         0.060821   
    567. D(H  52,C  43,O  30,Zr  4)    178.1790         0.058473   
    568. D(O  19,C  43,O  30,Zr  4)     -2.1497         0.058473   
    569. D(H  52,C  43,O  19,Zr  1)   -174.6678         0.060176   
    570. D(O  30,C  43,O  19,Zr  1)      5.6635         0.060176   
    571. D(H  59,C  44,O  35,Zr  5)   -174.2889         0.059299   
    572. D(O  20,C  44,O  35,Zr  5)      5.7380         0.059299   
    573. D(H  59,C  44,O  20,Zr  2)   -179.1120         0.060234   
    574. D(O  35,C  44,O  20,Zr  2)      0.8611         0.060234   
    575. D(H  55,C  45,O  31,Zr  4)   -177.0996         0.056972   
    576. D(O  23,C  45,O  31,Al 61)   -157.2507         0.056972   
    577. D(O  23,C  45,O  31,Zr  4)      3.2199         0.056972   
    578. D(H  55,C  45,O  23,Zr  2)   -130.1868         0.062553   
    579. D(O  31,C  45,O  23,Zr  2)     49.4882         0.062553   
    580. D(H  57,C  46,O  32,Zr  5)   -172.7519         0.062425   
    581. D(O  24,C  46,O  32,Zr  5)      8.3080         0.062425   
    582. D(H  57,C  46,O  24,Zr  3)    147.8749         0.056708   
    583. D(O  32,C  46,O  24,Zr  3)    -33.1807         0.056708   
    584. D(H  53,C  47,O  28,Zr  4)    178.1942         0.059425   
    585. D(O  27,C  47,O  28,Zr  4)     -1.8749         0.059425   
    586. D(H  53,C  47,O  27,Zr  3)   -177.2248         0.060541   
    587. D(O  28,C  47,O  27,Zr  3)      2.8444         0.060541   
    588. D(H  62,Al 61,Al 60,H  64)   -179.7419         0.010000   
    589. D(O  31,Al 61,Al 60,H  64)      5.0486         0.010000   
    590. D(O  31,Al 61,Al 60,H  62)   -175.2094         0.010000   
    591. D(H  62,Al 61,O  31,Zr  4)    -88.4159         0.010000   
    592. D(Al 60,Al 61,O  31,C  45)     77.8681         0.010000   
    593. D(Al 60,Al 61,O  31,Zr  4)    -81.0710         0.010000   
    594. D(Al 60,H  62,Al 61,H  63)   -116.0956         0.010000   
    595. D(Al 60,H  62,Al 61,O  31)     10.4359         0.010000   
    596. D(Al 61,H  62,Al 60,H  65)   -104.8740         0.010000   
    597. D(Al 61,H  62,Al 60,H  64)      0.1692         0.010000   
    598. D(Al 60,H  64,Al 61,H  62)      0.1654         0.010000   
    599. D(Al 60,H  64,Al 61,O  31)   -175.4037         0.010000   
    600. D(Al 61,H  64,Al 60,H  65)    113.5451         0.010000   
    601. D(Al 61,H  64,Al 60,H  62)     -0.1836         0.010000   
    -----------------------------------------------------------------

Number of atoms                         .... 68
Number of degrees of freedom            .... 601


         *************************************************************
         *                GEOMETRY OPTIMIZATION CYCLE   1            *
         *************************************************************
---------------------------------
CARTESIAN COORDINATES (ANGSTROEM)
---------------------------------
  Zr    -0.165300    2.102571    1.442783
  Zr     0.149076   -2.189493   -1.338318
  Zr     1.623177   -1.136940    1.625486
  Zr    -1.685453    1.105223   -1.526233
  Zr     1.771309    0.851499   -1.517873
  Zr    -1.833016   -0.949424    1.595253
  O     -1.759139    0.834414    0.540297
  O      1.752394   -0.910424   -0.457628
  O     -0.213241   -1.905441    0.682725
  O      0.198406    1.856259   -0.588683
  O     -0.120766   -0.198761   -1.927136
  O      0.052523    0.123202    2.059515
  O     -1.528194    2.251764    3.194508
  O     -1.556166    3.753198    0.885248
  O      1.488890    2.111254    2.942346
  O      1.353506    3.721068    0.890205
  O     -1.238094   -3.878553   -0.751213
  O     -1.587040   -2.215483   -2.739084
  O      1.682149   -3.740096   -0.825452
  O      1.387071   -2.319136   -3.179798
  O      0.939233   -2.468852    3.270715
  O      2.287514    0.041729    3.464900
  O      2.610401   -3.061444    1.132561
  O      3.593342   -0.069753    1.219201
  O     -3.743868    0.339666   -1.105001
  O     -2.510515    3.118375   -1.075902
  O     -2.395079   -0.155317   -3.280938
  O     -0.984293    2.359894   -3.233327
  O      1.280830    2.206623   -3.214778
  O      2.732197    2.592091   -0.529032
  O      2.385701   -0.288967   -3.307199
  O      4.093679    0.323000   -0.969995
  O     -3.977623   -0.571103    0.968125
  O     -2.558708    0.231710    3.340043
  O     -2.665668   -2.818920    0.674377
  O     -1.322946   -2.248442    3.330094
  C     -2.306249    1.407920    3.740332
  C     -2.338294    3.912949   -0.099924
  C      2.053584    1.259459    3.709390
  C      2.315859    3.640205    0.080188
  C     -2.196511   -3.843006    0.073845
  C     -2.172044   -1.378344   -3.507189
  C      2.529090   -3.822211    0.113837
  C      2.117853   -1.451745   -3.748262
  C     -0.214627   -2.720029    3.734166
  C      4.395217    0.031985    0.247379
  C     -4.414954   -0.014176   -0.079245
  C      0.174899    2.642250   -3.662592
  H     -2.544283   -1.786812   -4.491683
  H      3.292963   -4.650116    0.041329
  H      2.392403    1.648217    4.713871
  H     -2.946649    4.862600   -0.112277
  H      2.580961   -1.732842   -4.734907
  H      0.230875    3.354717   -4.535080
  H      2.889204    4.590119   -0.126397
  H      5.489524   -0.153056    0.450012
  H     -2.706054   -4.826275    0.293445
  H     -5.526550    0.178481   -0.122268
  H     -2.829013    1.743437    4.681675
  H     -0.260516   -3.440985    4.600323
  Al     5.598009   -3.005544   -3.020441
  Al     5.615908   -0.381907   -2.398274
  H      6.608283   -1.689617   -3.402148
  H      5.166206    0.532871   -3.644863
  H      4.659052   -1.864387   -2.100226
  H      6.228560   -4.021940   -1.927008
  H      4.702570   -3.458902   -4.292667
  H      6.817614   -0.134149   -1.338774

----------------------------
CARTESIAN COORDINATES (A.U.)
----------------------------
  NO LB      ZA    FRAG     MASS         X           Y           Z
   0 Zr   12.0000*   0    91.220   -0.312372    3.973283    2.726465
   1 Zr   12.0000*   0    91.220    0.281714   -4.137542   -2.529054
   2 Zr   12.0000*   0    91.220    3.067361   -2.148505    3.071723
   3 Zr   12.0000*   0    91.220   -3.185044    2.088569   -2.884162
   4 Zr   12.0000*   0    91.220    3.347288    1.609101   -2.868364
   5 Zr   12.0000*   0    91.220   -3.463897   -1.794151    3.014590
   6 O     8.0000    0    15.999   -3.324292    1.576814    1.021014
   7 O     8.0000    0    15.999    3.311544   -1.720452   -0.864792
   8 O     8.0000    0    15.999   -0.402968   -3.600762    1.290163
   9 O     8.0000    0    15.999    0.374933    3.507821   -1.112450
  10 O     8.0000    0    15.999   -0.228215   -0.375605   -3.641759
  11 O     8.0000    0    15.999    0.099253    0.232819    3.891919
  12 O     8.0000    0    15.999   -2.887868    4.255217    6.036745
  13 O     8.0000    0    15.999   -2.940727    7.092517    1.672876
  14 O     8.0000    0    15.999    2.813595    3.989692    5.560228
  15 O     8.0000    0    15.999    2.557755    7.031800    1.682244
  16 O     8.0000    0    15.999   -2.339659   -7.329404   -1.419588
  17 O     8.0000    0    15.999   -2.999071   -4.186656   -5.176119
  18 O     8.0000    0    15.999    3.178801   -7.067758   -1.559879
  19 O     8.0000    0    15.999    2.621184   -4.382532   -6.008947
  20 O     8.0000    0    15.999    1.774893   -4.665455    6.180757
  21 O     8.0000    0    15.999    4.322776    0.078856    6.547712
  22 O     8.0000    0    15.999    4.932944   -5.785291    2.140230
  23 O     8.0000    0    15.999    6.790433   -0.131814    2.303956
  24 O     8.0000    0    15.999   -7.074886    0.641876   -2.088150
  25 O     8.0000    0    15.999   -4.744185    5.892875   -2.033159
  26 O     8.0000    0    15.999   -4.526044   -0.293507   -6.200075
  27 O     8.0000    0    15.999   -1.860045    4.459553   -6.110103
  28 O     8.0000    0    15.999    2.420418    4.169914   -6.075051
  29 O     8.0000    0    15.999    5.163104    4.898341   -0.999726
  30 O     8.0000    0    15.999    4.508322   -0.546069   -6.249701
  31 O     8.0000    0    15.999    7.735932    0.610382   -1.833024
  32 O     8.0000    0    15.999   -7.516619   -1.079229    1.829491
  33 O     8.0000    0    15.999   -4.835258    0.437868    6.311767
  34 O     8.0000    0    15.999   -5.037383   -5.326986    1.274388
  35 O     8.0000    0    15.999   -2.500005   -4.248939    6.292966
  36 C     6.0000    0    12.011   -4.358180    2.660584    7.068203
  37 C     6.0000    0    12.011   -4.418736    7.394402   -0.188829
  38 C     6.0000    0    12.011    3.880711    2.380033    7.009731
  39 C     6.0000    0    12.011    4.376339    6.878990    0.151533
  40 C     6.0000    0    12.011   -4.150804   -7.262229    0.139547
  41 C     6.0000    0    12.011   -4.104567   -2.604692   -6.627627
  42 C     6.0000    0    12.011    4.779287   -7.222932    0.215120
  43 C     6.0000    0    12.011    4.002162   -2.743400   -7.083189
  44 C     6.0000    0    12.011   -0.405585   -5.140111    7.056551
  45 C     6.0000    0    12.011    8.305756    0.060443    0.467478
  46 C     6.0000    0    12.011   -8.343053   -0.026789   -0.149752
  47 C     6.0000    0    12.011    0.330510    4.993130   -6.921295
  48 H     1.0000    0     1.008   -4.807999   -3.376586   -8.488051
  49 H     1.0000    0     1.008    6.222798   -8.787446    0.078101
  50 H     1.0000    0     1.008    4.520986    3.114679    8.907924
  51 H     1.0000    0     1.008   -5.568359    9.188982   -0.212172
  52 H     1.0000    0     1.008    4.877310   -3.274596   -8.947677
  53 H     1.0000    0     1.008    0.436291    6.339497   -8.570059
  54 H     1.0000    0     1.008    5.459804    8.674068   -0.238856
  55 H     1.0000    0     1.008   10.373697   -0.289234    0.850399
  56 H     1.0000    0     1.008   -5.113702   -9.120338    0.554531
  57 H     1.0000    0     1.008  -10.443666    0.337280   -0.231053
  58 H     1.0000    0     1.008   -5.346059    3.294618    8.847084
  59 H     1.0000    0     1.008   -0.492305   -6.502519    8.693350
  60 Al   13.0000    0    26.982   10.578703   -5.679655   -5.707807
  61 Al   13.0000    0    26.982   10.612528   -0.721699   -4.532081
  62 H     1.0000    0     1.008   12.487845   -3.192913   -6.429128
  63 H     1.0000    0     1.008    9.762714    1.006980   -6.887792
  64 H     1.0000    0     1.008    8.804333   -3.523181   -3.968852
  65 H     1.0000    0     1.008   11.770272   -7.600366   -3.641517
  66 H     1.0000    0     1.008    8.886570   -6.536378   -8.111966
  67 H     1.0000    0     1.008   12.883422   -0.253505   -2.529916
* core charge reduced due to ECP

--------------------------------
INTERNAL COORDINATES (ANGSTROEM)
--------------------------------
 Zr     0   0   0     0.000000000000     0.00000000     0.00000000
 Zr     1   0   0     5.123979760601     0.00000000     0.00000000
 Zr     2   1   0     3.473467215179    46.29763009     0.00000000
 Zr     1   2   3     3.481468510575    47.46479563   180.24048978
 Zr     2   1   3     3.451306043993    47.07953492   264.75317435
 Zr     3   2   1     3.461408132386    65.49414015    53.80321265
 O      6   3   2     2.073756235138    90.88654203   279.60933153
 O      5   2   1     2.056416846733    38.17948173    77.49380283
 O      2   1   3     2.072817938938    49.10181509    50.58636457
 O      1   2   3     2.078414349266    50.17038020   129.49581396
 O      4   1   2     2.075895357660    90.88995328   334.81491873
 O      3   2   1     2.059926202681    92.38249466    26.77991371
 O      1   2   3     2.224472360389   121.41167832   276.71526116
 O      1   2   3     2.229332491093   121.51625415   183.76252101
 O      1   2   3     2.232735812111   108.80416230    13.30888877
 O      1   2   3     2.287279308513   114.88876231    90.06001642
 O      2   1   3     2.263152534110   116.53533317    86.12256005
 O      2   1   3     2.230901755469   107.62634936   163.41768966
 O      2   1   3     2.240025493458   119.83871821   351.26211168
 O      2   1   3     2.222720599200   122.18783215   258.67264251
 O      3   2   1     2.224534269181   108.61154564   116.13122347
 O     15   1   2     2.278990789786   114.21066113   336.19120431
 O      3   2   1     2.218400851953    74.71524583   186.81511050
 O      3   2   1     2.277170356510   110.91289060   269.66215786
 O      4   1   2     2.236199725035   109.83775183    98.40974239
 O      4   1   2     2.221780395661    74.31904886   178.13556121
 O      4   1   2     2.274098122469   162.37809252    10.06441633
 O      4   1   2     2.231589781202   110.73908515   246.40130047
 O      5   2   1     2.226301288174   118.19176252   250.82161967
 O      5   2   1     2.220533767131   150.56346277    39.25532199
 O      5   2   1     2.209033942847    73.61884385   187.15525087
 O     24   3   2     2.279730089285   116.22854223     6.94841170
 O      6   3   2     2.266220931523   163.01307336   315.76329567
 O      6   3   2     2.228452713035   110.30592774   192.09374473
 O      6   3   2     2.244178828497   109.20349077    43.47228150
 O      6   3   2     2.226498336454    74.50480081   122.75874069
 C     34   6   3     1.267847519221   132.38189840    56.21321855
 C     14   1   2     1.267994032092   132.25435965   356.52569534
 C     22  15   1     1.263869721432    26.43456726   206.37520099
 C     16   1   2     1.260472449138   128.08487500   353.19841138
 C     17   2   1     1.265127297559   127.77418475     9.41660826
 C     27   4   1     1.263616874052   128.28514062   359.22199776
 C     19   2   1     1.267404914068   132.21226086     3.49266074
 C     20   2   1     1.268684598095   130.70523641     0.19017867
 C     21   3   2     1.268569041239   131.94358034   299.54604973
 C     24   3   2     1.264037755401   136.36413419   344.35789979
 C     33   6   3     1.264282583452   129.06024181   355.50555144
 C     28   4   1     1.267958621615   132.17709007    53.52264510
 H     42  27   4     1.128998764652   116.62268374   185.37103176
 H     43  19   2     1.128798856094   116.88020597   189.07452062
 H     39  22  15     1.129120108808   116.63359044   180.88071159
 H     38  14   1     1.127867302265   116.57022091   179.05670393
 H     44  20   2     1.125589537076   117.32359211   185.33220854
 H     48  28   4     1.127819919933   116.61242059   182.77520193
 H     40  16   1     1.128600568826   116.83971583   174.13875289
 H     46  24   3     1.128188344610   117.64780011   229.81316248
 H     41  17   2     1.129015847430   116.37722275   185.45657642
 H     47  33   6     1.128988369035   116.57207942   187.24813107
 H     37  34   6     1.127820960387   116.56494231   180.36103960
 H     45  21   3     1.127878548556   116.36773162   180.88798047
 Al    53  44  20     3.696178954469    90.87322801   268.71443985
 Al    32  24   3     2.203192181995   135.97600858   246.78794676
 H     61  53  44     1.702356961606    96.55992856   255.66578980
 H     62  32  24     1.610289883998    97.30483814   182.70952952
 H     61  53  44     1.740883130237    65.11620803   338.25951113
 H     61  53  44     1.620571585135   147.83582139    57.29282027
 H     61  53  44     1.620463858338    44.03752065   141.19732058
 H     62  32  24     1.621117036708    92.26832514   312.26609342

---------------------------
INTERNAL COORDINATES (A.U.)
---------------------------
 Zr     0   0   0     0.000000000000     0.00000000     0.00000000
 Zr     1   0   0     9.682918463291     0.00000000     0.00000000
 Zr     2   1   0     6.563901771843    46.29763009     0.00000000
 Zr     1   2   3     6.579022028858    47.46479563   180.24048978
 Zr     2   1   3     6.522023227494    47.07953492   264.75317435
 Zr     3   2   1     6.541113407938    65.49414015    53.80321265
 O      6   3   2     3.918831352922    90.88654203   279.60933153
 O      5   2   1     3.886064657507    38.17948173    77.49380283
 O      2   1   3     3.917058230072    49.10181509    50.58636457
 O      1   2   3     3.927633912925    50.17038020   129.49581396
 O      4   1   2     3.922873708655    90.88995328   334.81491873
 O      3   2   1     3.892696379156    92.38249466    26.77991371
 O      1   2   3     4.203643553612   121.41167832   276.71526116
 O      1   2   3     4.212827869619   121.51625415   183.76252101
 O      1   2   3     4.219259214289   108.80416230    13.30888877
 O      1   2   3     4.322331484875   114.88876231    90.06001642
 O      2   1   3     4.276738488758   116.53533317    86.12256005
 O      2   1   3     4.215793349520   107.62634936   163.41768966
 O      2   1   3     4.233034715637   119.83871821   351.26211168
 O      2   1   3     4.200333204714   122.18783215   258.67264251
 O      3   2   1     4.203760544275   108.61154564   116.13122347
 O     15   1   2     4.306668454424   114.21066113   336.19120431
 O      3   2   1     4.192170065450    74.71524583   186.81511050
 O      3   2   1     4.303228334088   110.91289060   269.66215786
 O      4   1   2     4.225805061066   109.83775183    98.40974239
 O      4   1   2     4.198556477514    74.31904886   178.13556121
 O      4   1   2     4.297422653131   162.37809252    10.06441633
 O      4   1   2     4.217093529730   110.73908515   246.40130047
 O      5   2   1     4.207099726245   118.19176252   250.82161967
 O      5   2   1     4.196200691003   150.56346277    39.25532199
 O      5   2   1     4.174469172517    73.61884385   187.15525087
 O     24   3   2     4.308065528008   116.22854223     6.94841170
 O      6   3   2     4.282536919538   163.01307336   315.76329567
 O      6   3   2     4.211165330030   110.30592774   192.09374473
 O      6   3   2     4.240883381403   109.20349077    43.47228150
 O      6   3   2     4.207472093530    74.50480081   122.75874069
 C     34   6   3     2.395884590899   132.38189840    56.21321855
 C     14   1   2     2.396161460100   132.25435965   356.52569534
 C     22  15   1     2.388367642463    26.43456726   206.37520099
 C     16   1   2     2.381947728224   128.08487500   353.19841138
 C     17   2   1     2.390744116933   127.77418475     9.41660826
 C     27   4   1     2.387889830160   128.28514062   359.22199776
 C     19   2   1     2.395048188375   132.21226086     3.49266074
 C     20   2   1     2.397466440723   130.70523641     0.19017867
 C     21   3   2     2.397248069913   131.94358034   299.54604973
 C     24   3   2     2.388685180645   136.36413419   344.35789979
 C     33   6   3     2.389147838611   129.06024181   355.50555144
 C     28   4   1     2.396094543996   132.17709007    53.52264510
 H     42  27   4     2.133498470728   116.62268374   185.37103176
 H     43  19   2     2.133120698302   116.88020597   189.07452062
 H     39  22  15     2.133727777950   116.63359044   180.88071159
 H     38  14   1     2.131360316686   116.57022091   179.05670393
 H     44  20   2     2.127055964281   117.32359211   185.33220854
 H     48  28   4     2.131270777055   116.61242059   182.77520193
 H     40  16   1     2.132745989669   116.83971583   174.13875289
 H     46  24   3     2.131966998794   117.64780011   229.81316248
 H     41  17   2     2.133530752500   116.37722275   185.45657642
 H     47  33   6     2.133478825859   116.57207942   187.24813107
 H     37  34   6     2.131272743227   116.56494231   180.36103960
 H     45  21   3     2.131381569095   116.36773162   180.88798047
 Al    53  44  20     6.984765965910    90.87322801   268.71443985
 Al    32  24   3     4.163429844368   135.97600858   246.78794676
 H     61  53  44     3.216988439610    96.55992856   255.66578980
 H     62  32  24     3.043006876980    97.30483814   182.70952952
 H     61  53  44     3.289792347312    65.11620803   338.25951113
 H     61  53  44     3.062436476319   147.83582139    57.29282027
 H     61  53  44     3.062232902176    44.03752065   141.19732058
 H     62  32  24     3.063467230412    92.26832514   312.26609342

---------------------
BASIS SET INFORMATION
---------------------
There are 5 groups of distinct atoms

 Group   1 Type Zr  : 7s6p5d contracted to 5s3p2d pattern {31111/411/41}
 Group   2 Type O   : 7s4p1d contracted to 3s2p1d pattern {511/31/1}
 Group   3 Type C   : 7s4p1d contracted to 3s2p1d pattern {511/31/1}
 Group   4 Type H   : 4s contracted to 2s pattern {31}
 Group   5 Type Al  : 10s7p1d contracted to 4s3p1d pattern {5311/511/1}

Atom   0Zr   basis set group =>   1
Atom   1Zr   basis set group =>   1
Atom   2Zr   basis set group =>   1
Atom   3Zr   basis set group =>   1
Atom   4Zr   basis set group =>   1
Atom   5Zr   basis set group =>   1
Atom   6O    basis set group =>   2
Atom   7O    basis set group =>   2
Atom   8O    basis set group =>   2
Atom   9O    basis set group =>   2
Atom  10O    basis set group =>   2
Atom  11O    basis set group =>   2
Atom  12O    basis set group =>   2
Atom  13O    basis set group =>   2
Atom  14O    basis set group =>   2
Atom  15O    basis set group =>   2
Atom  16O    basis set group =>   2
Atom  17O    basis set group =>   2
Atom  18O    basis set group =>   2
Atom  19O    basis set group =>   2
Atom  20O    basis set group =>   2
Atom  21O    basis set group =>   2
Atom  22O    basis set group =>   2
Atom  23O    basis set group =>   2
Atom  24O    basis set group =>   2
Atom  25O    basis set group =>   2
Atom  26O    basis set group =>   2
Atom  27O    basis set group =>   2
Atom  28O    basis set group =>   2
Atom  29O    basis set group =>   2
Atom  30O    basis set group =>   2
Atom  31O    basis set group =>   2
Atom  32O    basis set group =>   2
Atom  33O    basis set group =>   2
Atom  34O    basis set group =>   2
Atom  35O    basis set group =>   2
Atom  36C    basis set group =>   3
Atom  37C    basis set group =>   3
Atom  38C    basis set group =>   3
Atom  39C    basis set group =>   3
Atom  40C    basis set group =>   3
Atom  41C    basis set group =>   3
Atom  42C    basis set group =>   3
Atom  43C    basis set group =>   3
Atom  44C    basis set group =>   3
Atom  45C    basis set group =>   3
Atom  46C    basis set group =>   3
Atom  47C    basis set group =>   3
Atom  48H    basis set group =>   4
Atom  49H    basis set group =>   4
Atom  50H    basis set group =>   4
Atom  51H    basis set group =>   4
Atom  52H    basis set group =>   4
Atom  53H    basis set group =>   4
Atom  54H    basis set group =>   4
Atom  55H    basis set group =>   4
Atom  56H    basis set group =>   4
Atom  57H    basis set group =>   4
Atom  58H    basis set group =>   4
Atom  59H    basis set group =>   4
Atom  60Al   basis set group =>   5
Atom  61Al   basis set group =>   5
Atom  62H    basis set group =>   4
Atom  63H    basis set group =>   4
Atom  64H    basis set group =>   4
Atom  65H    basis set group =>   4
Atom  66H    basis set group =>   4
Atom  67H    basis set group =>   4
---------------------------------
AUXILIARY/J BASIS SET INFORMATION
---------------------------------
There are 5 groups of distinct atoms

 Group   1 Type Zr  : 11s5p5d3f3g contracted to 8s5p5d2f3g pattern {41111111/11111/11111/21/111}
 Group   2 Type O   : 12s5p4d2f1g contracted to 6s4p3d1f1g pattern {711111/2111/211/2/1}
 Group   3 Type C   : 12s5p4d2f1g contracted to 6s4p3d1f1g pattern {711111/2111/211/2/1}
 Group   4 Type H   : 5s2p1d contracted to 3s1p1d pattern {311/2/1}
 Group   5 Type Al  : 14s5p5d2f1g contracted to 8s4p3d1f1g pattern {71111111/2111/311/2/1}

Atom   0Zr   basis set group =>   1
Atom   1Zr   basis set group =>   1
Atom   2Zr   basis set group =>   1
Atom   3Zr   basis set group =>   1
Atom   4Zr   basis set group =>   1
Atom   5Zr   basis set group =>   1
Atom   6O    basis set group =>   2
Atom   7O    basis set group =>   2
Atom   8O    basis set group =>   2
Atom   9O    basis set group =>   2
Atom  10O    basis set group =>   2
Atom  11O    basis set group =>   2
Atom  12O    basis set group =>   2
Atom  13O    basis set group =>   2
Atom  14O    basis set group =>   2
Atom  15O    basis set group =>   2
[...]
  35   2.0000     -10.043362      -273.2938 
  36   2.0000     -10.043164      -273.2884 
  37   2.0000     -10.043105      -273.2868 
  38   2.0000     -10.042951      -273.2826 
  39   2.0000     -10.041491      -273.2429 
  40   2.0000     -10.041471      -273.2423 
  41   2.0000     -10.039419      -273.1865 
  42   2.0000     -10.038990      -273.1748 
  43   2.0000     -10.038762      -273.1686 
  44   2.0000      -3.940819      -107.2351 
  45   2.0000      -3.912353      -106.4606 
  46   2.0000      -2.548633       -69.3518 
  47   2.0000      -2.546865       -69.3037 
  48   2.0000      -2.543938       -69.2241 
  49   2.0000      -2.521310       -68.6083 
  50   2.0000      -2.517589       -68.5071 
  51   2.0000      -2.514178       -68.4142 
  52   2.0000      -2.057044       -55.9750 
  53   2.0000      -2.056741       -55.9668 
  54   2.0000      -2.055886       -55.9435 
  55   2.0000      -2.055687       -55.9381 
  56   2.0000      -2.055276       -55.9269 
  57   2.0000      -2.053736       -55.8850 
  58   2.0000      -1.239196       -33.7202 
  59   2.0000      -1.236303       -33.6415 
  60   2.0000      -1.235027       -33.6068 
  61   2.0000      -1.234127       -33.5823 
  62   2.0000      -1.233127       -33.5551 
  63   2.0000      -1.232595       -33.5406 
  64   2.0000      -1.230251       -33.4768 
  65   2.0000      -1.229187       -33.4479 
  66   2.0000      -1.228971       -33.4420 
  67   2.0000      -1.228172       -33.4203 
  68   2.0000      -1.227789       -33.4099 
  69   2.0000      -1.226798       -33.3829 
  70   2.0000      -1.225421       -33.3454 
  71   2.0000      -1.224961       -33.3329 
  72   2.0000      -1.223938       -33.3050 
  73   2.0000      -1.223369       -33.2896 
  74   2.0000      -1.223162       -33.2839 
  75   2.0000      -1.222245       -33.2590 
  76   2.0000      -1.009062       -27.4580 
  77   2.0000      -1.003953       -27.3190 
  78   2.0000      -1.002978       -27.2924 
  79   2.0000      -1.001427       -27.2502 
  80   2.0000      -1.000781       -27.2326 
  81   2.0000      -0.999989       -27.2111 
  82   2.0000      -0.999740       -27.2043 
  83   2.0000      -0.998494       -27.1704 
  84   2.0000      -0.997362       -27.1396 
  85   2.0000      -0.995609       -27.0919 
  86   2.0000      -0.993612       -27.0376 
  87   2.0000      -0.993245       -27.0276 
  88   2.0000      -0.932063       -25.3627 
  89   2.0000      -0.922701       -25.1080 
  90   2.0000      -0.921593       -25.0778 
  91   2.0000      -0.920169       -25.0391 
  92   2.0000      -0.919584       -25.0232 
  93   2.0000      -0.919261       -25.0144 
  94   2.0000      -0.918478       -24.9930 
  95   2.0000      -0.917355       -24.9625 
  96   2.0000      -0.916754       -24.9462 
  97   2.0000      -0.915851       -24.9216 
  98   2.0000      -0.915194       -24.9037 
  99   2.0000      -0.912543       -24.8316 
 100   2.0000      -0.833111       -22.6701 
 101   2.0000      -0.824730       -22.4420 
 102   2.0000      -0.823471       -22.4078 
 103   2.0000      -0.815227       -22.1834 
 104   2.0000      -0.812890       -22.1199 
 105   2.0000      -0.810977       -22.0678 
 106   2.0000      -0.573277       -15.5997 
 107   2.0000      -0.564202       -15.3527 
 108   2.0000      -0.561933       -15.2910 
 109   2.0000      -0.561174       -15.2703 
 110   2.0000      -0.559694       -15.2301 
 111   2.0000      -0.558116       -15.1871 
 112   2.0000      -0.557677       -15.1752 
 113   2.0000      -0.556220       -15.1355 
 114   2.0000      -0.554674       -15.0935 
 115   2.0000      -0.552699       -15.0397 
 116   2.0000      -0.550571       -14.9818 
 117   2.0000      -0.550466       -14.9789 
 118   2.0000      -0.509229       -13.8568 
 119   2.0000      -0.478280       -13.0147 
 120   2.0000      -0.476306       -12.9610 
 121   2.0000      -0.475445       -12.9375 
 122   2.0000      -0.474266       -12.9054 
 123   2.0000      -0.472957       -12.8698 
 124   2.0000      -0.471568       -12.8320 
 125   2.0000      -0.470759       -12.8100 
 126   2.0000      -0.469264       -12.7693 
 127   2.0000      -0.468898       -12.7594 
 128   2.0000      -0.467560       -12.7229 
 129   2.0000      -0.465911       -12.6781 
 130   2.0000      -0.463704       -12.6180 
 131   2.0000      -0.463318       -12.6075 
 132   2.0000      -0.461220       -12.5504 
 133   2.0000      -0.461031       -12.5453 
 134   2.0000      -0.460199       -12.5226 
 135   2.0000      -0.459830       -12.5126 
 136   2.0000      -0.457540       -12.4503 
 137   2.0000      -0.450721       -12.2647 
 138   2.0000      -0.448469       -12.2035 
 139   2.0000      -0.447749       -12.1839 
 140   2.0000      -0.446789       -12.1578 
 141   2.0000      -0.446094       -12.1388 
 142   2.0000      -0.431492       -11.7415 
 143   2.0000      -0.426107       -11.5949 
 144   2.0000      -0.425678       -11.5833 
 145   2.0000      -0.423566       -11.5258 
 146   2.0000      -0.421376       -11.4662 
 147   2.0000      -0.415123       -11.2961 
 148   2.0000      -0.413266       -11.2455 
 149   2.0000      -0.412048       -11.2124 
 150   2.0000      -0.410661       -11.1747 
 151   2.0000      -0.408859       -11.1256 
 152   2.0000      -0.405603       -11.0370 
 153   2.0000      -0.404594       -11.0096 
 154   2.0000      -0.404192       -10.9986 
 155   2.0000      -0.375597       -10.2205 
 156   2.0000      -0.373352       -10.1594 
 157   2.0000      -0.370252       -10.0751 
 158   2.0000      -0.369506       -10.0548 
 159   2.0000      -0.363382        -9.8881 
 160   2.0000      -0.361923        -9.8484 
 161   2.0000      -0.360830        -9.8187 
 162   2.0000      -0.341360        -9.2889 
 163   2.0000      -0.338549        -9.2124 
 164   2.0000      -0.335996        -9.1429 
 165   2.0000      -0.335626        -9.1329 
 166   2.0000      -0.333125        -9.0648 
 167   2.0000      -0.330329        -8.9887 
 168   2.0000      -0.325675        -8.8621 
 169   2.0000      -0.323281        -8.7969 
 170   2.0000      -0.322526        -8.7764 
 171   2.0000      -0.315528        -8.5860 
 172   2.0000      -0.315194        -8.5769 
 173   2.0000      -0.313694        -8.5360 
 174   2.0000      -0.310050        -8.4369 
 175   2.0000      -0.305818        -8.3217 
 176   2.0000      -0.305032        -8.3004 
 177   2.0000      -0.304425        -8.2838 
 178   2.0000      -0.301945        -8.2163 
 179   2.0000      -0.300972        -8.1899 
 180   2.0000      -0.300248        -8.1702 
 181   2.0000      -0.296441        -8.0666 
 182   2.0000      -0.294757        -8.0207 
 183   2.0000      -0.292345        -7.9551 
 184   2.0000      -0.291977        -7.9451 
 185   2.0000      -0.289708        -7.8834 
 186   2.0000      -0.289479        -7.8771 
 187   2.0000      -0.288213        -7.8427 
 188   2.0000      -0.287930        -7.8350 
 189   2.0000      -0.286878        -7.8064 
 190   2.0000      -0.286531        -7.7969 
 191   2.0000      -0.285731        -7.7751 
 192   2.0000      -0.284046        -7.7293 
 193   2.0000      -0.283702        -7.7199 
 194   2.0000      -0.280611        -7.6358 
 195   2.0000      -0.280113        -7.6223 
 196   2.0000      -0.278863        -7.5883 
 197   2.0000      -0.277348        -7.5470 
 198   2.0000      -0.276845        -7.5333 
 199   2.0000      -0.276108        -7.5133 
 200   2.0000      -0.275857        -7.5064 
 201   2.0000      -0.275339        -7.4923 
 202   2.0000      -0.273692        -7.4475 
 203   2.0000      -0.272599        -7.4178 
 204   2.0000      -0.271791        -7.3958 
 205   2.0000      -0.270711        -7.3664 
 206   2.0000      -0.265398        -7.2219 
 207   2.0000      -0.264878        -7.2077 
 208   2.0000      -0.255846        -6.9619 
 209   2.0000      -0.252014        -6.8576 
 210   2.0000      -0.247566        -6.7366 
 211   2.0000      -0.243472        -6.6252 
 212   2.0000      -0.241699        -6.5770 
 213   2.0000      -0.238705        -6.4955 
 214   0.0000      -0.124104        -3.3770 
 215   0.0000      -0.118036        -3.2119 
 216   0.0000      -0.097579        -2.6553 
 217   0.0000      -0.095567        -2.6005 
 218   0.0000      -0.092460        -2.5160 
 219   0.0000      -0.091363        -2.4861 
 220   0.0000      -0.090619        -2.4659 
 221   0.0000      -0.087411        -2.3786 
 222   0.0000      -0.081068        -2.2060 
 223   0.0000      -0.076498        -2.0816 
 224   0.0000      -0.074510        -2.0275 
*Only the first 10 virtual orbitals were printed.
-------
TIMINGS
-------

Total SCF time: 0 days 0 hours 0 min 52 sec 

Total time                  ....      52.504 sec
Sum of individual times     ....      47.180 sec  ( 89.9%)

SCF preparation             ....       1.578 sec  (  3.0%)
Fock matrix formation       ....      37.172 sec  ( 70.8%)
  Startup                   ....       0.178 sec  (  0.5% of F)
  Split-RI-J                ....      17.801 sec  ( 47.9% of F)
  XC integration            ....      22.366 sec  ( 60.2% of F)
    XC Preparation          ....       0.000 sec  (  0.0% of XC)
    Basis function eval.    ....       6.747 sec  ( 30.2% of XC)
    Density eval.           ....       7.269 sec  ( 32.5% of XC)
    XC-Functional eval.     ....       0.380 sec  (  1.7% of XC)
    XC-Potential eval.      ....       3.862 sec  ( 17.3% of XC)
Diagonalization             ....       0.000 sec  (  0.0%)
Density matrix formation    ....       0.739 sec  (  1.4%)
Total Energy calculation    ....       0.244 sec  (  0.5%)
Population analysis         ....       0.000 sec  (  0.0%)
Orbital Transformation      ....       0.914 sec  (  1.7%)
Orbital Orthonormalization  ....       0.000 sec  (  0.0%)
DIIS solution               ....       1.175 sec  (  2.2%)
SOSCF solution              ....       5.360 sec  ( 10.2%)
Finished LeanSCF after  53.3 sec

Maximum memory used throughout the entire LEANSCF-calculation: 94.3 MB


-------------------------------------------------------------------------------
                          DFT DISPERSION CORRECTION                            
                                                                               
                              DFTD3 V3.1  Rev 1                                
                          USING Becke-Johnson damping                          
-------------------------------------------------------------------------------
The PBE functional is recognized
Active option DFTDOPT                   ...         4   

molecular C6(AA) [au] = 112322.333806 


            DFT-D V3
 parameters
 s6 scaling factor         :     1.0000 
 a1 scaling factor         :     0.4289 
 s8 scaling factor         :     0.7875 
 a2 scaling factor         :     4.4407 
 ad hoc parameters k1-k3   :    16.0000     1.3333    -4.0000 

 Edisp/kcal,au: -89.452183603491  -0.142551113185 
 E6   /kcal   : -55.391568435 
 E8   /kcal   : -34.060615169 
 % E8         :  38.076896277 

-------------------------   ----------------
Dispersion correction           -0.142551113
-------------------------   ----------------

NOTIFICATION: Different basis set in ORCA and otool_gcp:
ORCA: 804  gCP: 846 
If you are NOT using ECPs, check your basis set inputs!
------------------   -----------------
gCP correction             0.361469585
------------------   -----------------

-------------------------   --------------------
FINAL SINGLE POINT ENERGY     -3488.547128943858
-------------------------   --------------------

                                *** OPTIMIZATION RUN DONE ***



           ************************************************************
           *        Program running with 24 parallel MPI-processes    *
           *              working on a common directory               *
           ************************************************************

------------------------------------------------------------------------------
                              ORCA PROPERTY CALCULATIONS
------------------------------------------------------------------------------

GBWName                                 ... run_pre.gbw
Number of atoms                         ...     68
Number of basis functions               ...    804
Max core memory                         ...   4096 MB

Electric properties:
Dipole moment                           ... YES
Quadrupole moment                       ...  NO
Static polarizability (Dipole/Dipole)   ...  NO
Static polarizability (Dipole/Quad.)    ...  NO
Static polarizability (Quad./Quad.)     ...  NO
Static polarizability (Velocity)        ...  NO
Static hyperpolarizability              ...  NO

Atomic electric properties:
Dipole moment                           ...  NO
Quadrupole moment                       ...  NO
Static polarizability                   ...  NO

Choice of electric origin               ... Center of mass
Position of electric origin             ...     0.475978    -0.405806    -0.114014

General magnetic properties:
Magnetizability                         ...  NO

EPR properties:
g-Tensor (aka g-matrix)                 ...  NO
Zero-Field splitting spin-orbit         ...  NO
Zero-field splitting spin-spin          ...  NO
Hyperfine couplings                     ...  NO (   0 nuclei)
Quadrupole couplings                    ...  NO (   0 nuclei)
Contact density                         ...  NO (   0 nuclei)

NMR properties:
Chemical shifts                         ...  NO (   0 nuclei)
Spin-rotation constants                 ...  NO (   0 nuclei)
Spin-spin couplings                     ...  NO (   0 nuclei,    0 pairs)

Choice of magnetic origin               ... GIAO
Position of magnetic origin             ...     0.000000     0.000000     0.000000

Properties with geometric perturbations:
SCF Hessian                             ...  NO
IR spectrum                             ...  NO
VCD spectrum                            ...  NO
X-ray spectroscopy properties:
SCF XES/XAS/RIXS spectra                ...  NO

SCF SOC stabilization energy            ...  NO
Diagonal Born-Oppenheimer correction    ...  NO

-------------
DIPOLE MOMENT
-------------

Method             : SCF
Type of density    : Electron Density
Multiplicity       :   1
Irrep              :   0
Energy             : -3488.7660474160729791 Eh
Basis              : AO
                                X                 Y                 Z
Electronic contribution:   -126.496617852       9.641743617      63.681221283
Nuclear contribution   :    125.183214070      -9.739419493     -62.572898590
                        -----------------------------------------
Total Dipole Moment    :     -1.313403782      -0.097675877       1.108322693
                        -----------------------------------------
Magnitude (a.u.)       :      1.721321952
Magnitude (Debye)      :      4.375252696



--------------------
Rotational spectrum 
--------------------
 
Rotational constants in cm-1:             0.001829             0.001460             0.001421 
Rotational constants in MHz :            54.832309            43.779940            42.606098 

Dipole components along the rotational axes: 
x,y,z [a.u.] :    -1.681013    -0.370329    -0.000758 
x,y,z [Debye]:    -4.272796    -0.941301    -0.001926 

 

Dipole moment calculation done in   0.3 sec 

Maximum memory used throughout the entire PROP-calculation: 76.1 MB

--------------------------------
SUGGESTED CITATIONS FOR THIS RUN
--------------------------------

Below you find a list of papers that are relevant to this ORCA run
We neither can nor want to force you to cite these papers, but we appreciate if you do
You receive ORCA, which is the product of decades of hard work by many enthusiastic individuals, for free
The only thing we kindly ask in return is that you cite our papers,
We deeply appreciate it, if you show your appreciation for ORCA by not just citing the generic ORCA reference.

Please note that relegating all ORCA citations to the supporting information does *not* help us.
SI sections are not indexed - citations you put there will not count into any citation statistics
But we need these citations in order to attract the funding resources that allow us to do what we are doing

Therefore, if you are a happy ORCA user, please consider citing a few of the papers listed below in the main body of your paper

In addition to the list printed below, the program has created the file run_pre.bibtex that contains the list in bibtex format
You can import this file easily into all common literature databanks and citation aid programs


List of essential papers. We consider these as the minimum necessary citations

  1. Neese, F.
     Software update: the ORCA program system, version 6.0
     WIRES Comput. Molec. Sci. 2025 15(1), e70019
     doi.org/10.1002/wcms.7019

List of papers to cite with high priority. The work reported in these papers was absolutely
necessary for this run to complete.
Our perspective: the developers of density functionals and basis sets usually get cited in chemistry papers
Good! But without the algorithms to do something with them, the functionals or basis sets would not do anything.
Hence, in our opinion, the algorithm design and method developments papers are equally worthy of getting cited

  1. Neese, F.
     An improvement of the resolution of the identity approximation for the formation of the Coulomb matrix
     J. Comp. Chem. 2003 24(14), 1740-1747
     doi.org/10.1002/jcc.10318
  2. Grimme, S.; Antony, J.; Ehrlich, S.; Krieg, H.
     A consistent and accurate ab initio parametrization of density functional dispersion correction (DFT-D) for the 94 elements H-Pu
     J. Chem. Phys. 2010 132 , 154104
     doi.org/10.1063/1.3382344
  3. Grimme, S.; Ehrlich, S.; Goerigk, L.
     Effect of the damping function in dispersion corrected density functional theory
     J. Comput. Chem. 2011 32(7), 1456-1465
     doi.org/10.1002/jcc.21759
  4. Helmich-Paris, B.
     A trust-region augmented Hessian implementation for restricted and unrestricted Hartree–Fock and Kohn–Sham methods
     J. Chem. Phys. 2021 154 , 164104
     doi.org/10.1063/5.0040798
  5. Neese, F.
     The SHARK Integral Generation and Digestion System
     J. Comp. Chem. 2022 44(3), 381
     doi.org/10.1002/jcc.26942

List of suggested additional citations. These are papers that are important in the 'surrounding' of 
of this run, or papers that preceded the highly important papers. If you like your results we are grateful for a citation.

  1. Neese, F.
     The ORCA program system
     WIRES Comput. Molec. Sci. 2012 2(1), 73-78
     doi.org/10.1002/wcms.81
  2. Neese, F.
     Software update: the ORCA program system, version 4.0
     WIRES Comput. Molec. Sci. 2018 8(1), 1-6
     doi.org/10.1002/wcms.1327
  3. Neese, F.; Wennmohs, F.; Becker, U.; Riplinger, C.
     The ORCA quantum chemistry program package
     J. Chem. Phys. 2020 152(22), 224108
     doi.org/10.1063/5.0004608
  4. Neese, F.
     Software update: The ORCA program system—Version 5.0
     WIRES Comput. Molec. Sci. 2022 12(1), e1606
     doi.org/10.1002/wcms.1606

List of optional additional citations

  1. Neese, F.
     Approximate second-order SCF convergence for spin unrestricted wavefunctions
     Chem. Phys. Lett. 2000 325(1-3), 93-98
     doi.org/10.1016/s0009-2614(00)00662-x

Timings for individual modules:

Sum of individual times          ...     8657.271 sec (= 144.288 min)
Startup calculation              ...     1758.816 sec (=  29.314 min)  20.3 %
SCF iterations                   ...     4612.858 sec (=  76.881 min)  53.3 %
Property calculations            ...        1.637 sec (=   0.027 min)   0.0 %
SCF Gradient evaluation          ...     2271.470 sec (=  37.858 min)  26.2 %
Geometry relaxation              ...       12.490 sec (=   0.208 min)   0.1 %
                             ****ORCA TERMINATED NORMALLY****
TOTAL RUN TIME: 0 days 2 hours 25 minutes 1 seconds 515 msec
