
                                 *****************
                                 * O   R   C   A *
                                 *****************

                                            #,                                       
                                            ###                                      
                                            ####                                     
                                            #####                                    
                                            ######                                   
                                           ########,                                 
                                     ,,################,,,,,                         
                               ,,#################################,,                 
                          ,,##########################################,,             
                       ,#########################################, ''#####,          
                    ,#############################################,,   '####,        
                  ,##################################################,,,,####,       
                ,###########''''           ''''###############################       
              ,#####''   ,,,,##########,,,,          '''####'''          '####       
            ,##' ,,,,###########################,,,                        '##       
           ' ,,###''''                  '''############,,,                           
         ,,##''                                '''############,,,,        ,,,,,,###''
      ,#''                                            '''#######################'''  
     '                                                          ''''####''''         
             ,#######,   #######,   ,#######,      ##                                
            ,#'     '#,  ##    ##  ,#'     '#,    #''#        ,####,    ,#,          
            ##       ##  ##   ,#'  ##            #'  '#       #'       ,# #          
            ##       ##  #######   ##           ,######,      #####,      #          
            '#,     ,#'  ##    ##  '#,     ,#' ,#      #,     #,   #      #          
             '#######'   ##     ##  '#######'  #'      '#     '####' #    #          



                #########################################################
                #                        -***-                          #
                #          Department of theory and spectroscopy        #
                #                                                       #
                #                      Frank Neese                      #
                #                                                       #
                #     Directorship, Architecture, Infrastructure        #
                #                    SHARK, DRIVERS                     #
                #        Core code/Algorithms in most modules           #
                #                                                       #
                #        Max Planck Institute fuer Kohlenforschung      #
                #                Kaiser Wilhelm Platz 1                 #
                #                 D-45470 Muelheim/Ruhr                 #
                #                      Germany                          #
                #                                                       #
                #                  All rights reserved                  #
                #                        -***-                          #
                #########################################################


                         Program Version 6.1.0  -  RELEASE   -
                                (GIT: $679e74b$)
                          ($2025-06-10 18:02:51 +0200$)


 With contributions from (in alphabetic order):
[Max-Planck-Institut fuer Kohlenforschung]                               
  Daniel Aravena         : Magnetic Suceptibility                        
  Michael Atanasov       : Ab Initio Ligand Field Theory (pilot matlab implementation)
  Alexander A. Auer      : GIAO ZORA, VPT2 properties, NMR spectrum      
  Ute Becker             : All parallelization in ORCA, NUMFREQ, NUMCALC 
  Giovanni Bistoni       : ED, misc. LED, open-shell LED, HFLD           
  Dmytro Bykov           : pre 5.0 version of the SCF Hessian            
  Marcos Casanova-Páez   : Triplet and SCS-CIS(D). UHF-(DLPNO)-IP/EA/STEOM-CCSD. UHF-CVS-IP/STEOM-CCSD   
  Vijay G. Chilkuri      : MRCI spin determinant printing, contributions to CSF-ICE 
  Pauline Colinet        : FMM embedding                                 
  Dipayan Datta          : RHF DLPNO-CCSD density                        
  Achintya Kumar Dutta   : EOM-CC, STEOM-CC                              
  Nicolas Foglia         : Exact transition moments, OPA infrastructure, MCD improvements    
  Dmitry Ganyushin       : Spin-Orbit,Spin-Spin,Magnetic field MRCI      
  Miquel Garcia-Rates    : C-PCM and meta-GGA Hessian, CCSD/C-PCM, Gaussian charge scheme 
  Tiago L. C. Gouveia    : GS-ROHF, GS-ROCIS                             
  Yang Guo               : DLPNO-NEVPT2, F12-NEVPT2, CIM, IAO-localization        
  Andreas Hansen         : Spin unrestricted coupled pair/coupled cluster methods 
  Ingolf Harden          : AUTO-CI MPn and infrastructure                
  Benjamin Helmich-Paris : MC-RPA, TRAH-(SCF,CASSCF), AVAS, COSX integrals, SCF dyn. polar., MC-PDFT, srDFT 
  Lee Huntington         : MR-EOM, pCC                                   
  Robert Izsak           : Overlap fitted RIJCOSX, COSX-SCS-MP3, EOM     
  Riya Kayal             : Wick's Theorem for AUTO-CI, AUTO-CI UHF-CCSDT 
  Emily Kempfer          : AUTO-CI RHF CISDT and CCSDT, approximate NEVPT4
  Christian Kollmar      : KDIIS, OOCD, Brueckner-CCSD(T), CCSD density, CASPT2, CASPT2-K, improved NEVPT2 
  Axel Koslowski         : Symmetry handling                             
  Simone Kossmann        : meta-GGA functionals, TD-DFT gradient, OOMP2, (MP2 Hessian; deprecated post 5.0) 
  Lucas Lang             : DCDCAS, Hyperfine gauge corrections, ICE-SOC+SSC
  Marvin Lechner         : AUTO-CI (C++ implementation), FIC-MRCC        
  Spencer Leger          : CASSCF response                               
  Dagmar Lenk            : GEPOL surface, SMD, ORCA-2-JSON               
  Dimitrios Liakos       : Extrapolation schemes; Compound Job, Property file
  Dimitrios Manganas     : Further ROCIS development; embedding schemes. LFT, Crystal Embedding 
  Dimitrios Pantazis     : SARC Basis sets                               
  Anastasios Papadopoulos: AUTO-CI, single reference methods and gradients 
  Taras Petrenko         : pre 6.0 DFT Hessian and TD-DFT gradient,  ECA, NRVS 
  Petra Pikulova         : Analytic Raman intensities                    
  Peter Pinski           : DLPNO-MP2, DLPNO-MP2 Gradient                 
  Shashank Vittal Rao    : ES-AILFT, MagRelax                            
  Christoph Reimann      : Effective Core Potentials                     
  Marius Retegan         : Local ZFS, SOC                                
  Christoph Riplinger    : Optimizer, TS searches, QM/MM, DLPNO-CCSD(T), (RO)-DLPNO pert. Triples 
  Michael Roemelt        : Original ROCIS implementation, recursive CI coupling coefficients
  Masaaki Saitow         : Open-shell DLPNO-CCSD energy and density      
  Barbara Sandhoefer     : DKH picture change effects                    
  Yorick L. A. Schmerwitz: GMF and freeze-and-release deltaSCF, NEB S-IDPP initial path                    
  Kantharuban Sivalingam : CASSCF convergence/infrastructure, NEVPT2, NEVPT3, NEVPT4(SD), FIC-MRCI and CEPA variants
  Bernardo de Souza      : ESD, SOC TD-DFT                               
  Georgi L. Stoychev     : AutoAux, RI-MP2 NMR, DLPNO-MP2 response, X2C  
  Van Anh Tran           : RI-MP2 g-tensors                              
  Willem Van den Heuvel  : Paramagnetic NMR                              
  Zikuan Wang            : NOTCH, Electric field optimization            
  Frank Wennmohs         : Technical directorship and infrastructure     
  Hang Xu                : AUTO-CI-Response properties                   
                                                                         
[FACCTs GmbH]                                                            
  Markus Bursch, Nicolas Foglia, Miquel Garcia-Rates, Ingolf Harden, Hagen Neugebauer, Anastasios Papadopoulos, 
  Christoph Riplinger, Bernardo de Souza, Georgi L. Stoychev                                                    
                                                                 
  APM, various basis sets, CI-OPT, improved COSX, DLPNO-Multilevel,           
  DOCKER, DRACO, updates on ESD, Fragmentator, GOAT, IRC, LR-CPCM, L-BFGS, MBIS, meta-GGA TD-DFT gradient, ML-optimized integration grids, 
  MM, NACMEs, nearIR, NEB, NEB-TS, NL-DFT gradient (VV10), 2- and 3-layer-ONIOM, interface openCOSMO-RS, QMMM,   
  Crystal-QMMM, RESP, rigid body optimization, SF, symmetry and pop. for TD-DFT, various functionals, SOLVATOR                                   
                                                                         
[Other institutions]                                                     
  V. Asgeirsson          : NEB                                           
  Christoph Bannwarth    : sTDA-DFT, sTD-DFT, PBEh-3c, B97-3c, D3        
  Giovanni Bistoni       : ETS/NOCV, ADLD/ADEX, COVALED                  
  Martin Brehm           : Molecular dynamics                            
  Ronald Cardenas        : ETS/NOCV                                      
  Martina Colucci        : COVALED                                       
  Sebastian Ehlert       : rSCAN, r2SCAN, r2SCAN-3c, D4, dhf basis sets  
  Marvin Friede          : D4 for Fr, Ra, Ac-Lr                          
  Lars Goerigk           : TD-DFT with DH, B97 family of functionals     
  Stefan Grimme          : VdW corrections, initial TS optimization, DFT functionals, gCP, sTDA/sTD-DF 
  Waldemar Hujo          : DFT-NL                                        
  H. Jonsson             : NEB                                           
  Holger Kruse           : gCP                                           
  Marcel Mueller         : wB97X-3c, vDZP basis set                      
  Hagen Neugebauer       : wr2SCAN, Native XTB                           
  Gianluca Regni         : ADLD/ADEX                                     
  Tobias Risthaus        : pre 6.0 range-separated hybrid DFT and stability analysis
  Lukas Wittmann         : regularized MP2, r2SCAN double-hybrids, wr2SCAN        
                                                                         
We gratefully acknowledge several colleagues who have allowed us to      
interface, adapt or use parts of their codes:                            
  Ed Valeev, F. Pavosevic, A. Kumar             : LibInt (2-el integral package), F12 methods 
  Garnet Chan, S. Sharma, J. Yang, R. Olivares  : DMRG                   
  Ulf Ekstrom                                   : XCFun DFT Library      
  Mihaly Kallay                                 : mrcc  (arbitrary order and MRCC methods)
  Frank Weinhold                                : gennbo (NPA and NBO analysis)           
  Simon Mueller                                 : openCOSMO-RS                            
  Christopher J. Cramer and Donald G. Truhlar   : smd solvation model                     
  S Lehtola, MJT Oliveira, MAL Marques          : LibXC Library                           
  Liviu Ungur et al                             : ANISO software                          


 Your calculation uses the libint2 library for the computation of 2-el integrals
 For citations please refer to: http://libint.valeyev.net

 Your ORCA version has been built with support for libXC version: 7.0.0
 For citations please refer to: https://libxc.gitlab.io

 This ORCA versions uses:
   CBLAS   interface :  Fast vector & matrix operations
   LAPACKE interface :  Fast linear algebra routines
   SCALAPACK package :  Parallel linear algebra routines
   Shared memory     :  Shared parallel matrices
   BLAS/LAPACK       :  OpenBLAS 0.3.29  USE64BITINT DYNAMIC_ARCH NO_AFFINITY Bulldozer SINGLE_THREADED
        Core in use  :  Bulldozer
   Copyright (c) 2011-2014, The OpenBLAS Project


  ***********************************
  * Starting time: Mon Aug 18 17:24:17 2025
  * Host name:     chromium08
  * Process ID:    573632
  * Working dir.:  /local/scratch/mehlhorn/62141
  ***********************************



***************************************
The coordinates will be read from file: start.xyz
***************************************


Your calculation utilizes the geometrical counterpoise correction gCP
Please cite in your paper:
H.Kruse, S. Grimme J.Chem.Phys., 136, (2012), 154101 
   

Your calculation utilizes the atom-pairwise dispersion correction
with the Becke-Johnson damping scheme (D3BJ)


Warning: RI is on but no J-basis has been assigned. Assigning Def2/J (nothing to worry about!)
================================================================================

cite the ECPs for Zr [Def2-ECP] as follows:
Ce-Yb(ecp-28): M. Dolg, H. Stoll, H.Preuss, J. Chem. Phys., 1989, 90, 1730-1734.
Y-Cd(ecp-28), Hf-Hg(ecp-46): D. Andrae,U. Haeussermann, M. Dolg, H. Stoll, H. Preuss, Theor. Chim. Acta, 1990, 77, 123-141.
In-Sb(ecp-28), Tl-Bi(ecp-46): B. Metz, H. Stoll, M. Dolg, J. Chem. Phys., 2000, 113, 2563-2569.
Te-Xe(ecp-28), Po-Rn(ecp-46): K. A. Peterson, D. Figgen, E. Goll, H. Stoll, M. Dolg, J. Chem. Phys., 2003, 119, 11113-11123.
Rb(ecp-28), Cs(ecp-46): T. Leininger, A. Nicklass, W. Kuechle, H. Stoll, M. Dolg, A. Bergner, Chem. Phys. Lett., 1996, 255, 274-280.
Sr(ecp-28), Ba(ecp-46): M. Kaupp, P. V. Schleyer, H. Stoll and H. Preuss, J. Chem. Phys., 1991, 94, 1360-1366.
La(ecp-46): M. Dolg, H. Stoll, A. Savin, H. Preuss, Theor. Chim. Acta, 1989, 75, 173-194.
Lu(ecp-28): X. Cao, M. Dolg, J. Chem. Phys., 2001, 115, 7348-7355.

ECP parameters for Zr [Def2-ECP] have been obtained from:
TURBOMOLE (7.0.2)

----- Orbital basis set information -----
Your calculation utilizes the basis: def2-SV(P)
   F. Weigend and R. Ahlrichs, Phys. Chem. Chem. Phys. 7, 3297 (2005).

----- AuxJ basis set information -----
Your calculation utilizes the auxiliary basis: def2/J
   H-Rn: F. Weigend, Phys. Chem. Chem. Phys. 8, 1057 (2006).
   Fr-Lr: K. Eichkorn, F. Weigend, O. Treutler, R. Ahlrichs; Theor. Chem. Acc. 97, 119 (1997).

================================================================================
                                        WARNINGS
                       Please study these warnings very carefully!
================================================================================


WARNING: Geometry Optimization
  ===> : Switching off AutoStart
         For restart on a previous wavefunction, please use MOREAD

================================================================================
                                       INPUT FILE
================================================================================
NAME = run_pre.inp
|  1> # Geometry optimization for (AlH3)n cluster
|  2> 
|  3> %pal nprocs 24  end
|  4> 
|  5> %geom MaxIter 500 end
|  6> 
|  7> 
|  8> ! PBE def2-SV(P)
|  9> ! RKS	# closed shell for AlH3
| 10> ! D3    #  dispersion correction
| 11> ! gCP(DFT/SV(P))
| 12> 
| 13> ! NoPop # population analysis not necessary	
| 14> 
| 15> ! DEFGRID3
| 16> ! TightSCF
| 17> ! NormalOpt
| 18> 
| 19> ! SmallPrint
| 20> 
| 21> 
| 22> * xyzFile 0 1 start.xyz # only maingroup elements H and Al so there should be no net spin
| 23> 
| 24>                          ****END OF INPUT****
================================================================================

                       *****************************
                       * Geometry Optimization Run *
                       *****************************

Geometry optimization settings:
Update method            Update   .... BFGS
Choice of coordinates    CoordSys .... (2022) Redundant Internals
Initial Hessian          InHess   .... Almloef's Model
Max. no of cycles        MaxIter  .... 500

Convergence Tolerances:
Energy Change            TolE     ....  5.0000e-06 Eh
Max. Gradient            TolMAXG  ....  3.0000e-04 Eh/bohr
RMS Gradient             TolRMSG  ....  1.0000e-04 Eh/bohr
Max. Displacement        TolMAXD  ....  4.0000e-03 bohr
RMS Displacement         TolRMSD  ....  2.0000e-03 bohr
Strict Convergence                .... False

------------------------------------------------------------------------------
                        ORCA OPTIMIZATION COORDINATE SETUP
------------------------------------------------------------------------------

The optimization will be done in redundant internal coordinates (2022)
Making redundant internal coordinates   ...  (2022 redundants) done
Evaluating the initial hessian          ...  (Almloef) done
Evaluating the coordinates              ...  done
Calculating the B-matrix                .... done
Calculating the G-matrix                .... done
The number of degrees of freedom        ....  682

    -----------------------------------------------------------------
                    Redundant Internal Coordinates


    -----------------------------------------------------------------
         Definition                    Initial Value    Approx d2E/dq
    -----------------------------------------------------------------
      1. B(Zr  2,Zr  1)                  3.4709         0.030622   
      2. B(Zr  3,Zr  0)                  3.4721         0.030483   
      3. B(Zr  4,Zr  1)                  3.4688         0.030860   
      4. B(Zr  4,Zr  3)                  3.4787         0.029759   
      5. B(Zr  5,Zr  2)                  3.4741         0.030262   
      6. B(Zr  5,Zr  0)                  3.4830         0.029288   
      7. B(O   6,Zr  0)                  2.2094         0.279034   
      8. B(O   6,Zr  3)                  2.0749         0.457437   
      9. B(O   6,Zr  5)                  2.0884         0.435191   
     10. B(O   7,Zr  1)                  2.2345         0.254517   
     11. B(O   7,Zr  4)                  2.0769         0.454068   
     12. B(O   7,Zr  2)                  2.0944         0.425738   
     13. B(O   8,Zr  5)                  2.0834         0.443343   
     14. B(O   8,Zr  2)                  2.2154         0.273023   
     15. B(O   8,Zr  1)                  2.0815         0.446370   
     16. B(O   9,Zr  4)                  2.0719         0.462456   
     17. B(O   9,Zr  3)                  2.2867         0.210041   
     18. B(O   9,Zr  0)                  2.0533         0.495137   
     19. B(O  10,Zr  4)                  2.2136         0.274783   
     20. B(O  10,Zr  3)                  2.0771         0.453629   
     21. B(O  10,Zr  1)                  2.0815         0.446462   
     22. B(O  11,Zr  5)                  2.2375         0.251715   
     23. B(O  11,Zr  2)                  2.0889         0.434534   
     24. B(O  11,Zr  0)                  2.0848         0.441004   
     25. B(O  12,Zr  0)                  2.2184         0.269948   
     26. B(O  13,Zr  0)                  2.2849         0.211476   
     27. B(O  14,Zr  0)                  2.2104         0.278064   
     28. B(O  15,Zr  0)                  2.5242         0.087787   
     29. B(O  16,Zr  1)                  2.2248         0.263725   
     30. B(O  17,Zr  1)                  2.2680         0.224999   
     31. B(O  18,Zr  1)                  2.2238         0.264638   
     32. B(O  19,Zr  1)                  2.2330         0.255868   
     33. B(O  20,Zr  2)                  2.2206         0.267857   
     34. B(O  21,Zr  2)                  2.2917         0.206258   
     35. B(O  22,Zr  2)                  2.2226         0.265827   
     36. B(O  23,Zr  2)                  2.2455         0.244422   
     37. B(O  24,Zr  3)                  2.2651         0.227396   
     38. B(O  25,Zr  3)                  2.2039         0.284775   
     39. B(O  26,Zr  3)                  2.2259         0.262663   
     40. B(O  27,Zr  3)                  2.2309         0.257881   
     41. B(O  28,Zr  4)                  2.2311         0.257699   
     42. B(O  29,Zr  4)                  2.3085         0.193889   
     43. B(O  30,Zr  4)                  2.2231         0.265372   
     44. B(O  31,Zr  4)                  2.2428         0.246870   
     45. B(O  32,Zr  5)                  2.2353         0.253731   
     46. B(O  33,Zr  5)                  2.2163         0.272041   
     47. B(O  34,Zr  5)                  2.2616         0.230333   
     48. B(O  35,Zr  5)                  2.2249         0.263592   
     49. B(C  36,O  33)                  1.2688         0.873618   
     50. B(C  36,O  12)                  1.2713         0.865442   
     51. B(C  37,O  25)                  1.2663         0.881542   
     52. B(C  37,O  13)                  1.2736         0.858209   
     53. B(C  38,O  21)                  1.2585         0.907044   
     54. B(C  38,O  14)                  1.2833         0.828277   
     55. B(C  39,O  29)                  1.2530         0.925632   
     56. B(C  39,O  15)                  1.2908         0.805681   
     57. B(C  40,O  34)                  1.2649         0.886144   
     58. B(C  40,O  16)                  1.2738         0.857523   
     59. B(C  41,O  26)                  1.2764         0.849273   
     60. B(C  41,O  17)                  1.2632         0.891699   
     61. B(C  42,O  22)                  1.2690         0.872696   
     62. B(C  42,O  18)                  1.2690         0.872717   
     63. B(C  43,O  19)                  1.2676         0.877316   
     64. B(C  43,O  30)                  1.2703         0.868712   
     65. B(C  44,O  35)                  1.2694         0.871515   
     66. B(C  44,O  20)                  1.2687         0.873658   
     67. B(C  45,O  31)                  1.2688         0.873315   
     68. B(C  45,O  23)                  1.2690         0.872698   
     69. B(C  46,O  32)                  1.2743         0.855984   
     70. B(C  46,O  24)                  1.2659         0.882822   
     71. B(C  47,O  28)                  1.2686         0.874079   
     72. B(C  47,O  27)                  1.2688         0.873364   
     73. B(H  48,C  41)                  1.1285         0.312589   
     74. B(H  49,C  42)                  1.1274         0.313895   
     75. B(H  50,C  38)                  1.1281         0.313063   
     76. B(H  51,C  37)                  1.1257         0.315877   
     77. B(H  52,C  43)                  1.1273         0.313961   
     78. B(H  53,C  47)                  1.1273         0.313986   
     79. B(H  54,C  39)                  1.1298         0.311150   
     80. B(H  55,C  45)                  1.1283         0.312876   
     81. B(H  56,C  40)                  1.1287         0.312373   
     82. B(H  57,C  46)                  1.1285         0.312568   
     83. B(H  58,C  36)                  1.1268         0.314574   
     84. B(H  59,C  44)                  1.1272         0.314072   
     85. B(Al 61,Al 60)                  3.1337         0.050696   
     86. B(H  62,Al 61)                  1.7179         0.251310   
     87. B(H  63,Al 61)                  1.6118         0.371099   
     88. B(H  64,Al 61)                  1.7312         0.239362   
     89. B(H  64,Al 60)                  1.7661         0.210547   
     90. B(H  65,Al 60)                  1.6166         0.364605   
     91. B(H  66,Al 60)                  1.7077         0.260918   
     92. B(H  67,Al 61)                  1.6215         0.358057   
     93. B(Al 68,H  62)                  1.7622         0.213585   
     94. B(Al 68,Al 61)                  3.1516         0.047461   
     95. B(H  69,Al 68)                  1.6964         0.272027   
     96. B(H  70,Al 68)                  1.6166         0.364672   
     97. B(H  71,Al 60)                  1.6130         0.369507   
     98. B(Al 72,H  69)                  1.8355         0.163178   
     99. B(Al 72,H  66)                  1.7235         0.246224   
    100. B(H  73,Al 72)                  1.9120         0.123170   
    101. B(H  74,Al 72)                  1.6077         0.376756   
    102. B(H  75,Al 68)                  1.6158         0.365634   
    103. B(Al 76,H  73)                  1.7285         0.241695   
    104. B(Al 76,Al 72)                  2.8286         0.155466   
    105. B(Al 76,O  15)                  2.0277         0.376681   
    106. B(H  77,Al 76)                  1.6200         0.360068   
    107. B(H  78,Al 76)                  2.0788         0.066759   
    108. B(H  78,Al 72)                  1.6594         0.311593   
    109. B(H  79,Al 76)                  1.6199         0.360224   
    110. A(O   6,Zr  0,O   9)           71.3806         0.449868   
    111. A(Zr  3,Zr  0,O   6)           34.5805         0.303961   
    112. A(O  11,Zr  0,O  15)          134.7821         0.359579   
    113. A(O   9,Zr  0,O  14)          109.9111         0.449583   
    114. A(Zr  3,Zr  0,O  15)          104.0260         0.254458   
    115. A(Zr  3,Zr  0,O   9)           39.2450         0.333756   
    116. A(O   9,Zr  0,O  12)          152.7509         0.447174   
    117. A(Zr  5,Zr  0,O  15)          162.1158         0.252967   
    118. A(O   6,Zr  0,O  14)          144.4696         0.405688   
    119. A(O   9,Zr  0,O  15)           71.2378         0.366764   
    120. A(Zr  3,Zr  0,Zr  5)           65.4220         0.233483   
    121. A(Zr  3,Zr  0,O  14)          144.7619         0.303792   
    122. A(Zr  5,Zr  0,O  11)           37.8240         0.325277   
    123. A(Zr  3,Zr  0,O  11)           92.6036         0.327426   
    124. A(O  12,Zr  0,O  13)           76.6713         0.384441   
    125. A(O   6,Zr  0,O  11)           70.3591         0.440534   
    126. A(O   9,Zr  0,O  13)           87.1170         0.427920   
    127. A(O  14,Zr  0,O  15)           67.5379         0.332758   
    128. A(Zr  5,Zr  0,O  14)          112.0318         0.301857   
    129. A(O  13,Zr  0,O  15)           78.3009         0.318114   
    130. A(Zr  5,Zr  0,O  13)          110.2401         0.289069   
    131. A(Zr  5,Zr  0,O   6)           34.7140         0.302024   
    132. A(O  12,Zr  0,O  14)           97.0904         0.403324   
    133. A(O   6,Zr  0,O  13)           82.0607         0.386662   
    134. A(O  13,Zr  0,O  14)          133.0234         0.386428   
    135. A(O   6,Zr  0,O  12)           84.6392         0.403572   
    136. A(Zr  3,Zr  0,O  12)          114.0082         0.302357   
    137. A(Zr  3,Zr  0,O  13)           73.0932         0.290888   
    138. A(Zr  5,Zr  0,O   9)           93.0618         0.331551   
    139. A(Zr  5,Zr  0,O  12)           72.8094         0.300434   
    140. A(O  11,Zr  0,O  13)          146.8376         0.419154   
    141. A(O   6,Zr  0,O  15)          138.3129         0.332951   
    142. A(O  12,Zr  0,O  15)          125.0186         0.331130   
    143. A(O  11,Zr  0,O  12)           82.6116         0.437910   
    144. A(O  11,Zr  0,O  14)           74.6713         0.440257   
    145. A(O   9,Zr  0,O  11)          100.6266         0.489258   
    146. A(O  10,Zr  1,O  19)           87.2072         0.434666   
    147. A(O   7,Zr  1,O   8)           70.2606         0.434236   
    148. A(Zr  4,Zr  1,O  18)          114.0044         0.301991   
    149. A(O   7,Zr  1,O  18)           84.6044         0.395710   
    150. A(O  16,Zr  1,O  17)           70.5484         0.387037   
    151. A(O  10,Zr  1,O  17)           74.9204         0.424752   
    152. A(Zr  2,Zr  1,O  19)          112.9061         0.300003   
    153. A(Zr  2,Zr  1,O  10)           91.2952         0.328338   
    154. A(O   8,Zr  1,O  10)           97.4459         0.481064   
    155. A(Zr  2,Zr  1,O   8)           37.4445         0.328326   
    156. A(O   7,Zr  1,O  16)          144.2893         0.395470   
    157. A(O  10,Zr  1,O  16)          124.0373         0.437040   
    158. A(O   7,Zr  1,O  17)          141.4487         0.384649   
    159. A(Zr  4,Zr  1,O  17)          106.7263         0.294310   
    160. A(Zr  2,Zr  1,O  16)          108.9820         0.301453   
    161. A(O   7,Zr  1,O  10)           69.8942         0.434252   
    162. A(Zr  2,Zr  1,O   7)           35.3376         0.299751   
    163. A(Zr  4,Zr  1,O  10)           37.4433         0.328756   
    164. A(O   8,Zr  1,O  16)           75.0912         0.437024   
    165. A(O   8,Zr  1,O  18)           86.3498         0.437296   
    166. A(Zr  2,Zr  1,Zr  4)           65.8223         0.235353   
    167. A(O  10,Zr  1,O  18)          150.9337         0.437313   
    168. A(Zr  4,Zr  1,O   8)           91.3085         0.328745   
    169. A(O   8,Zr  1,O  17)          130.7334         0.424736   
    170. A(Zr  4,Zr  1,O  19)           74.3124         0.300372   
    171. A(Zr  2,Zr  1,O  18)           74.2740         0.301619   
    172. A(O  18,Zr  1,O  19)           75.9694         0.396077   
    173. A(O  16,Zr  1,O  19)          126.3229         0.395837   
    174. A(O   8,Zr  1,O  19)          149.7100         0.434650   
    175. A(O   7,Zr  1,O  19)           83.5760         0.393379   
    176. A(O  17,Zr  1,O  18)          123.5188         0.387270   
    177. A(O  16,Zr  1,O  18)           84.8522         0.398187   
    178. A(Zr  4,Zr  1,O   7)           34.9121         0.300119   
    179. A(Zr  2,Zr  1,O  17)          161.3881         0.293952   
    180. A(O  17,Zr  1,O  19)           79.4238         0.385004   
    181. A(Zr  4,Zr  1,O  16)          156.3377         0.301824   
    182. A(Zr  1,Zr  2,O  23)          109.8372         0.297829   
    183. A(Zr  5,Zr  2,O  21)          107.1068         0.289419   
    184. A(O   7,Zr  2,O   8)           70.4155         0.436027   
    185. A(Zr  5,Zr  2,O   8)           34.8195         0.302552   
    186. A(O  21,Zr  2,O  23)           69.9033         0.376243   
    187. A(O  22,Zr  2,O  23)           85.0949         0.393221   
    188. A(Zr  1,Zr  2,O   8)           34.8387         0.303126   
    189. A(Zr  1,Zr  2,Zr  5)           65.8462         0.234707   
    190. A(O   7,Zr  2,O  11)          100.0264         0.474517   
    191. A(O   7,Zr  2,O  23)           74.5983         0.427443   
    192. A(O  20,Zr  2,O  22)           75.8899         0.399592   
    193. A(Zr  5,Zr  2,O   7)           92.4340         0.325143   
    194. A(O  20,Zr  2,O  23)          126.9396         0.393746   
    195. A(O  11,Zr  2,O  23)          122.4942         0.429013   
    196. A(O   8,Zr  2,O  23)          144.4913         0.395066   
    197. A(Zr  5,Zr  2,O  22)          115.1077         0.301265   
    198. A(Zr  5,Zr  2,O  23)          155.3292         0.297270   
    199. A(Zr  1,Zr  2,O   7)           38.1022         0.325777   
    200. A(O  21,Zr  2,O  22)          121.5386         0.381753   
    201. A(O   8,Zr  2,O  22)           85.9819         0.400937   
    202. A(O   7,Zr  2,O  22)           84.9242         0.433935   
    203. A(Zr  5,Zr  2,O  11)           38.0674         0.326238   
    204. A(O   8,Zr  2,O  11)           70.5300         0.437637   
    205. A(O  11,Zr  2,O  21)           74.7049         0.416196   
    206. A(O   8,Zr  2,O  21)          141.6889         0.383529   
    207. A(O  11,Zr  2,O  20)           86.8821         0.436133   
    208. A(O   7,Zr  2,O  21)          132.4041         0.414685   
    209. A(Zr  1,Zr  2,O  22)           74.2807         0.301835   
    210. A(Zr  1,Zr  2,O  21)          163.5361         0.289957   
    211. A(Zr  1,Zr  2,O  11)           92.8117         0.326875   
    212. A(O   8,Zr  2,O  20)           83.5509         0.401475   
    213. A(O   7,Zr  2,O  20)          148.6552         0.434530   
    214. A(Zr  5,Zr  2,O  20)           74.2264         0.301631   
    215. A(O  11,Zr  2,O  22)          152.3645         0.435536   
    216. A(Zr  1,Zr  2,O  20)          111.6191         0.302202   
    217. A(O  20,Zr  2,O  21)           78.9373         0.382258   
    218. A(O   6,Zr  3,O  10)           97.7401         0.484667   
    219. A(O   9,Zr  3,O  10)           69.7117         0.420758   
    220. A(Zr  4,Zr  3,O  10)           37.1691         0.327652   
    221. A(O  24,Zr  3,O  25)           80.5095         0.392991   
    222. A(O   6,Zr  3,O  27)          152.6188         0.437188   
    223. A(O  24,Zr  3,O  27)          123.0050         0.386242   
    224. A(Zr  4,Zr  3,O   9)           34.9673         0.289484   
    225. A(Zr  0,Zr  3,Zr  4)           65.2643         0.234006   
    226. A(O   9,Zr  3,O  27)           85.9400         0.380948   
    227. A(O  10,Zr  3,O  27)           84.1109         0.436530   
    228. A(O  25,Zr  3,O  27)           75.0516         0.401771   
    229. A(O  26,Zr  3,O  27)           84.6342         0.396102   
    230. A(Zr  4,Zr  3,O  27)           74.0557         0.299014   
    231. A(O   6,Zr  3,O  26)          122.4180         0.438639   
    232. A(O   9,Zr  3,O  26)          144.9411         0.382165   
    233. A(O   6,Zr  3,O   9)           69.4337         0.421387   
    234. A(O  25,Zr  3,O  26)          127.1563         0.403075   
    235. A(O  24,Zr  3,O  26)           70.7736         0.387480   
    236. A(O  10,Zr  3,O  26)           75.7677         0.437978   
    237. A(O   9,Zr  3,O  25)           82.2411         0.387577   
    238. A(O  10,Zr  3,O  25)          146.1102         0.444421   
    239. A(Zr  0,Zr  3,O  26)          154.6863         0.301040   
    240. A(Zr  4,Zr  3,O   6)           90.9063         0.328104   
    241. A(O   6,Zr  3,O  25)           89.4706         0.445094   
    242. A(Zr  0,Zr  3,O  27)          115.7582         0.300160   
    243. A(Zr  4,Zr  3,O  25)          110.1145         0.303783   
    244. A(Zr  0,Zr  3,O  25)           75.1136         0.304955   
    245. A(Zr  4,Zr  3,O  26)          110.1211         0.299890   
    246. A(O   9,Zr  3,O  24)          140.3081         0.372752   
    247. A(Zr  0,Zr  3,O   9)           34.6150         0.290577   
    248. A(O   6,Zr  3,O  24)           74.9232         0.427413   
    249. A(Zr  0,Zr  3,O   6)           37.1835         0.329408   
    250. A(Zr  0,Zr  3,O  24)          106.0294         0.294232   
    251. A(Zr  4,Zr  3,O  24)          162.4864         0.293119   
    252. A(O  10,Zr  3,O  24)          133.3531         0.426774   
    253. A(Zr  0,Zr  3,O  10)           90.8766         0.328954   
    254. A(Zr  1,Zr  4,Zr  3)           65.2646         0.234409   
    255. A(O   9,Zr  4,O  10)           71.2856         0.443101   
    256. A(O   7,Zr  4,O  10)           70.3914         0.441637   
    257. A(Zr  3,Zr  4,O  10)           34.5361         0.302054   
    258. A(O  10,Zr  4,O  28)           84.3600         0.399204   
    259. A(O   9,Zr  4,O  29)           74.0164         0.416228   
    260. A(O  28,Zr  4,O  30)           76.3714         0.396766   
    261. A(O   7,Zr  4,O  31)           75.8124         0.433190   
    262. A(O  29,Zr  4,O  31)           70.2704         0.372890   
    263. A(O  30,Zr  4,O  31)           82.8863         0.393790   
    264. A(O  28,Zr  4,O  31)          124.1356         0.391773   
    265. A(O  10,Zr  4,O  31)          144.5760         0.396204   
    266. A(O   9,Zr  4,O  31)          125.0991         0.434619   
    267. A(Zr  3,Zr  4,O  31)          159.0114         0.296950   
    268. A(Zr  1,Zr  4,O  31)          109.7085         0.298667   
    269. A(O  29,Zr  4,O  30)          123.2356         0.377572   
    270. A(O  10,Zr  4,O  30)           84.6381         0.401270   
    271. A(O   9,Zr  4,O  30)          151.9758         0.440319   
    272. A(O   7,Zr  4,O  30)           86.2930         0.438866   
    273. A(Zr  3,Zr  4,O  30)          113.4514         0.300380   
    274. A(Zr  1,Zr  4,O  30)           74.3187         0.302124   
    275. A(O  28,Zr  4,O  29)           79.1270         0.375662   
    276. A(O  10,Zr  4,O  29)          142.1545         0.379857   
    277. A(O   7,Zr  4,O  29)          130.1602         0.414875   
    278. A(Zr  3,Zr  4,O  29)          107.7470         0.285885   
    279. A(Zr  1,Zr  4,O  29)          161.5130         0.287510   
    280. A(O   9,Zr  4,O  28)           86.9279         0.437994   
    281. A(O   7,Zr  4,O  28)          150.6302         0.436550   
    282. A(Zr  3,Zr  4,O  28)           74.3808         0.298981   
    283. A(O   7,Zr  4,O   9)           98.4544         0.485733   
    284. A(Zr  3,Zr  4,O   7)           91.5979         0.327704   
    285. A(Zr  3,Zr  4,O   9)           39.2375         0.328696   
    286. A(Zr  1,Zr  4,O   9)           92.4625         0.330674   
    287. A(Zr  1,Zr  4,O   7)           38.0058         0.329674   
    288. A(Zr  1,Zr  4,O  28)          113.3265         0.300714   
    289. A(Zr  1,Zr  4,O  10)           34.8680         0.303812   
    290. A(O  11,Zr  5,O  35)           83.2248         0.394668   
    291. A(O   6,Zr  5,O   8)           96.2318         0.478202   
    292. A(O  34,Zr  5,O  35)           80.0222         0.388588   
    293. A(O  33,Zr  5,O  35)           76.5969         0.400088   
    294. A(O  32,Zr  5,O  35)          127.2853         0.395221   
    295. A(O   8,Zr  5,O  35)           86.8636         0.436449   
    296. A(O   6,Zr  5,O  35)          149.6916         0.434992   
    297. A(Zr  2,Zr  5,O  35)           74.1021         0.300860   
    298. A(O  33,Zr  5,O  34)          123.9941         0.390735   
    299. A(O  32,Zr  5,O  34)           71.3181         0.386013   
    300. A(O  11,Zr  5,O  34)          141.9185         0.385478   
    301. A(Zr  0,Zr  5,O  35)          113.1029         0.299297   
    302. A(O  32,Zr  5,O  33)           84.0292         0.397415   
    303. A(O   6,Zr  5,O  34)          129.9460         0.424589   
    304. A(Zr  2,Zr  5,O  34)          106.9647         0.294490   
    305. A(Zr  0,Zr  5,O  34)          159.8546         0.292974   
    306. A(O  11,Zr  5,O  33)           84.1929         0.396859   
    307. A(O   8,Zr  5,O  33)          151.0200         0.438939   
    308. A(O   6,Zr  5,O  33)           86.9910         0.437472   
    309. A(Zr  0,Zr  5,O  33)           75.2417         0.300804   
    310. A(O  11,Zr  5,O  32)          143.1142         0.392042   
    311. A(O   8,Zr  5,O  32)          124.6627         0.433463   
    312. A(O   6,Zr  5,O  32)           74.8359         0.432019   
    313. A(Zr  2,Zr  5,O  32)          156.1688         0.299040   
    314. A(Zr  0,Zr  5,O  32)          108.2669         0.297490   
    315. A(Zr  2,Zr  5,O   6)           90.1793         0.326320   
    316. A(Zr  0,Zr  5,O   6)           37.0470         0.324569   
    317. A(Zr  0,Zr  5,Zr  2)           64.8730         0.233245   
    318. A(O   8,Zr  5,O  34)           74.9486         0.426002   
    319. A(O   8,Zr  5,O  11)           70.1838         0.432842   
    320. A(O   6,Zr  5,O  11)           69.7391         0.431401   
    321. A(Zr  2,Zr  5,O  11)           35.1439         0.298661   
    322. A(Zr  0,Zr  5,O  11)           34.8480         0.297114   
    323. A(Zr  2,Zr  5,O  33)          114.1061         0.302378   
    324. A(Zr  2,Zr  5,O   8)           37.3844         0.327318   
    325. A(Zr  0,Zr  5,O   8)           90.0807         0.325560   
    326. A(Zr  3,O   6,Zr  5)          129.0547         0.480969   
    327. A(Zr  0,O   6,Zr  5)          108.2390         0.439479   
    328. A(Zr  0,O   6,Zr  3)          108.2361         0.443457   
    329. A(Zr  2,O   7,Zr  4)          129.3612         0.478373   
    330. A(Zr  1,O   7,Zr  4)          107.0821         0.435574   
    331. A(Zr  1,O   7,Zr  2)          106.5603         0.430558   
    332. A(Zr  1,O   8,Zr  2)          107.7168         0.439764   
    333. A(Zr  2,O   8,Zr  5)          107.7961         0.439224   
    334. A(Zr  1,O   8,Zr  5)          130.0006         0.480443   
    335. A(Zr  3,O   9,Zr  4)          105.7952         0.422209   
    336. A(Zr  0,O   9,Zr  4)          130.6265         0.493585   
    337. A(Zr  0,O   9,Zr  3)          106.1400         0.427398   
    338. A(Zr  3,O  10,Zr  4)          108.2949         0.441559   
    339. A(Zr  1,O  10,Zr  4)          107.6887         0.440291   
    340. A(Zr  1,O  10,Zr  3)          128.5471         0.482499   
    341. A(Zr  2,O  11,Zr  5)          106.7887         0.431283   
    342. A(Zr  0,O  11,Zr  5)          107.3280         0.432431   
    343. A(Zr  0,O  11,Zr  2)          126.7795         0.477604   
    344. A(Zr  0,O  12,C  36)          134.7579         0.440059   
    345. A(Zr  0,O  13,C  37)          131.0785         0.420557   
    346. A(Zr  0,O  14,C  38)          135.2874         0.438927   
    347. A(Zr  0,O  15,C  39)          129.5258         0.356873   
    348. A(C  39,O  15,Al 76)          124.8081         0.454062   
    349. A(Zr  0,O  15,Al 76)          105.2959         0.344899   
    350. A(Zr  1,O  16,C  40)          136.4218         0.437485   
    351. A(Zr  1,O  17,C  41)          131.1267         0.428168   
    352. A(Zr  1,O  18,C  42)          132.4296         0.439147   
    353. A(Zr  1,O  19,C  43)          132.0854         0.436900   
    354. A(Zr  2,O  20,C  44)          132.2462         0.440192   
    355. A(Zr  2,O  21,C  38)          123.3962         0.422844   
    356. A(Zr  2,O  22,C  42)          132.4896         0.439500   
    357. A(Zr  2,O  23,C  45)          136.2751         0.432903   
    358. A(Zr  3,O  24,C  46)          131.3447         0.428213   
    359. A(Zr  3,O  25,C  37)          132.2636         0.445819   
    360. A(Zr  3,O  26,C  41)          135.9606         0.436406   
    361. A(Zr  3,O  27,C  47)          132.7576         0.437161   
    362. A(Zr  4,O  28,C  47)          132.2365         0.437170   
    363. A(Zr  4,O  29,C  39)          138.2539         0.419718   
    364. A(Zr  4,O  30,C  43)          132.4760         0.439002   
    365. A(Zr  4,O  31,C  45)          132.5179         0.433735   
    366. A(Zr  5,O  32,C  46)          136.3432         0.434311   
    367. A(Zr  5,O  33,C  36)          131.1622         0.441422   
    368. A(Zr  5,O  34,C  40)          132.3636         0.429489   
    369. A(Zr  5,O  35,C  44)          132.2657         0.438724   
    370. A(O  12,C  36,O  33)          125.9965         0.484565   
    371. A(O  33,C  36,H  58)          117.0716         0.363339   
    372. A(O  12,C  36,H  58)          116.9282         0.362756   
    373. A(O  13,C  37,O  25)          126.3407         0.484622   
    374. A(O  25,C  37,H  51)          117.2272         0.364158   
    375. A(O  13,C  37,H  51)          116.4302         0.362492   
    376. A(O  14,C  38,O  21)          126.0724         0.483997   
    377. A(O  21,C  38,H  50)          117.7717         0.365379   
    378. A(O  14,C  38,H  50)          116.1493         0.359755   
    379. A(O  15,C  39,O  29)          126.6947         0.483339   
    380. A(O  29,C  39,H  54)          117.1904         0.366266   
    381. A(O  15,C  39,H  54)          116.0968         0.357692   
    382. A(O  16,C  40,O  34)          127.1822         0.485017   
    383. A(O  34,C  40,H  56)          116.6356         0.363788   
    384. A(O  16,C  40,H  56)          116.1694         0.361753   
    385. A(O  17,C  41,O  26)          127.1218         0.484711   
    386. A(O  26,C  41,H  48)          115.9486         0.361200   
    387. A(O  17,C  41,H  48)          116.9173         0.364220   
    388. A(O  18,C  42,O  22)          126.4907         0.485221   
    389. A(O  22,C  42,H  49)          116.7602         0.363140   
    390. A(O  18,C  42,H  49)          116.7490         0.363141   
    391. A(O  30,C  43,H  52)          116.5414         0.362869   
    392. A(O  19,C  43,H  52)          116.8935         0.363480   
    393. A(O  19,C  43,O  30)          126.5651         0.485282   
    394. A(O  35,C  44,H  59)          116.6824         0.363091   
    395. A(O  20,C  44,H  59)          116.7234         0.363243   
    396. A(O  20,C  44,O  35)          126.5942         0.485196   
    397. A(O  31,C  45,H  55)          116.3824         0.362982   
    398. A(O  23,C  45,H  55)          116.6289         0.362938   
    399. A(O  23,C  45,O  31)          126.9747         0.485282   
    400. A(O  32,C  46,H  57)          116.0407         0.361681   
    401. A(O  24,C  46,H  57)          116.6000         0.363593   
    402. A(O  24,C  46,O  32)          127.3506         0.484520   
    403. A(O  28,C  47,H  53)          116.6764         0.363256   
    404. A(O  27,C  47,H  53)          116.8223         0.363205   
    405. A(O  27,C  47,O  28)          126.5008         0.485429   
    406. A(H  66,Al 60,H  71)          115.7667         0.352285   
    407. A(H  65,Al 60,H  71)          126.9789         0.372999   
    408. A(H  64,Al 60,H  71)          102.0016         0.339808   
    409. A(Al 61,Al 60,H  71)           91.8912         0.310652   
    410. A(H  65,Al 60,H  66)          108.9983         0.351490   
    411. A(H  64,Al 60,H  66)           94.3352         0.320813   
    412. A(Al 61,Al 60,H  66)           77.1288         0.293865   
    413. A(H  64,Al 60,H  65)          101.4445         0.339051   
    414. A(Al 61,Al 60,H  65)          125.4525         0.309983   
    415. A(Al 61,Al 60,H  64)           26.0758         0.284157   
    416. A(H  67,Al 61,Al 68)           85.4263         0.305819   
    417. A(H  64,Al 61,Al 68)          101.6687         0.286930   
    418. A(H  63,Al 61,Al 68)          125.4994         0.307582   
    419. A(H  62,Al 61,Al 68)           25.4376         0.289125   
    420. A(Al 60,Al 61,Al 68)           98.8836         0.258916   
    421. A(H  64,Al 61,H  67)          108.2433         0.345363   
    422. A(H  63,Al 61,H  67)          125.2678         0.372112   
    423. A(H  62,Al 61,H  67)          110.8622         0.348206   
    424. A(Al 60,Al 61,H  67)           81.6228         0.309079   
    425. A(H  63,Al 61,H  64)          107.3456         0.347448   
    426. A(H  62,Al 61,H  64)           93.3980         0.325624   
    427. A(Al 60,Al 61,H  64)           26.6427         0.289906   
    428. A(H  62,Al 61,H  63)          107.0109         0.350313   
    429. A(Al 60,Al 61,H  63)          126.5187         0.310868   
    430. A(Al 60,Al 61,H  62)          102.2575         0.292133   
    431. A(Al 61,H  62,Al 68)          129.8076         0.319599   
    432. A(Al 60,H  64,Al 61)          127.2815         0.316333   
    433. A(Al 60,H  66,Al 72)          174.8366         0.329173   
    434. A(H  70,Al 68,H  75)          126.3993         0.372335   
    435. A(H  69,Al 68,H  75)          110.0711         0.354148   
    436. A(H  62,Al 68,H  75)          105.9422         0.340023   
    437. A(Al 61,Al 68,H  75)           93.5084         0.306849   
    438. A(H  69,Al 68,H  70)          110.4244         0.353990   
    439. A(H  62,Al 68,H  70)          102.0063         0.339874   
    440. A(Al 61,Al 68,H  70)          125.6495         0.306720   
    441. A(H  62,Al 68,H  69)           97.4790         0.323771   
    442. A(Al 61,Al 68,H  69)           81.8700         0.292745   
    443. A(Al 61,Al 68,H  62)           24.7548         0.281891   
    444. A(Al 68,H  69,Al 72)          170.1117         0.309894   
    445. A(Al 76,Al 72,H  78)           46.7388         0.363831   
    446. A(H  74,Al 72,H  78)          129.3924         0.364285   
    447. A(H  73,Al 72,H  78)           83.3554         0.302739   
    448. A(H  69,Al 72,H  78)           90.7194         0.316789   
    449. A(H  66,Al 72,H  78)          111.0968         0.339018   
    450. A(H  74,Al 72,Al 76)          114.7763         0.375901   
    451. A(H  73,Al 72,Al 76)           36.7307         0.311758   
    452. A(H  69,Al 72,Al 76)          136.3979         0.326400   
    453. A(H  66,Al 72,Al 76)           99.5818         0.349568   
    454. A(H  73,Al 72,H  74)           95.4991         0.312126   
    455. A(H  69,Al 72,H  74)           99.0159         0.326793   
    456. A(H  66,Al 72,H  74)          119.0034         0.349999   
    457. A(H  69,Al 72,H  73)          164.8521         0.273629   
    458. A(H  66,Al 72,H  73)           83.0883         0.291646   
    459. A(H  66,Al 72,H  69)           86.0939         0.304967   
    460. A(Al 72,H  73,Al 76)          101.8516         0.290797   
    461. A(H  77,Al 76,H  79)          128.5948         0.370569   
    462. A(H  73,Al 76,H  79)          117.0912         0.346278   
    463. A(Al 72,Al 76,H  79)          107.1128         0.373002   
    464. A(O  15,Al 76,H  79)           99.1473         0.402377   
    465. A(H  77,Al 76,H  78)           87.7519         0.281261   
    466. A(H  73,Al 76,H  78)           76.8586         0.264675   
    467. A(Al 72,Al 76,H  78)           35.5436         0.282923   
    468. A(O  15,Al 76,H  78)          160.0605         0.302981   
    469. A(H  73,Al 76,H  77)          111.9959         0.346253   
    470. A(Al 72,Al 76,H  77)           99.3221         0.372974   
    471. A(O  15,Al 76,H  77)          100.7917         0.402347   
    472. A(Al 72,Al 76,H  73)           41.4177         0.348475   
    473. A(O  15,Al 76,H  73)           83.2277         0.375314   
    474. A(O  15,Al 76,Al 72)          124.6106         0.405054   
    475. A(H  78,Al 76,H  79)           89.1392         0.281280   
    476. A(Al 72,H  78,Al 76)           97.7176         0.275071   
    477. D(O   7,Zr  2,Zr  1,Zr  4)    -22.9408         0.010000   
    478. D(Zr  5,Zr  2,Zr  1,O   7)    130.3391         0.010000   
    479. D(Zr  5,Zr  2,Zr  1,Zr  4)    107.3983         0.010000   
    480. D(Zr  4,Zr  3,Zr  0,O   6)   -129.5040         0.010000   
    481. D(O   6,Zr  3,Zr  0,Zr  5)     21.7016         0.010000   
    482. D(Zr  4,Zr  3,Zr  0,Zr  5)   -107.8024         0.010000   
    483. D(Zr  3,Zr  4,Zr  1,Zr  2)   -106.5491         0.010000   
    484. D(O   7,Zr  4,Zr  1,Zr  2)     23.1984         0.010000   
    485. D(Zr  3,Zr  4,Zr  1,O   7)   -129.7474         0.010000   
    486. D(Zr  1,Zr  4,Zr  3,O   6)     79.1786         0.010000   
    487. D(Zr  1,Zr  4,Zr  3,Zr  0)    106.9780         0.010000   
    488. D(O   7,Zr  4,Zr  3,Zr  0)     78.7091         0.010000   
    489. D(O   6,Zr  5,Zr  0,Zr  3)    -21.6248         0.010000   
    490. D(Zr  2,Zr  5,Zr  0,O   6)    128.8345         0.010000   
    491. D(Zr  2,Zr  5,Zr  0,Zr  3)    107.2096         0.010000   
    492. D(O   6,Zr  5,Zr  2,Zr  1)    -78.5876         0.010000   
    493. D(Zr  0,Zr  5,Zr  2,Zr  1)   -106.5766         0.010000   
    494. D(Zr  0,Zr  5,Zr  2,O   7)    -78.4924         0.010000   
    495. D(Zr  0,O   6,Zr  5,Zr  2)    -44.8498         0.010000   
    496. D(Zr  5,O   6,Zr  3,Zr  0)   -133.7638         0.010000   
    497. D(Zr  5,O   6,Zr  0,Zr  3)    143.8085         0.010000   
    498. D(Zr  3,O   6,Zr  0,O   9)    -17.9853         0.010000   
    499. D(Zr  3,O   6,Zr  5,Zr  0)    133.7628         0.010000   
    500. D(Zr  0,O   6,Zr  5,O   8)    -81.8184         0.010000   
    501. D(Zr  3,O   6,Zr  0,Zr  5)   -143.8085         0.010000   
    502. D(Zr  0,O   6,Zr  3,Zr  4)     44.4972         0.010000   
    503. D(Zr  0,O   6,Zr  3,O   9)     16.2977         0.010000   
    504. D(Zr  1,O   7,Zr  2,Zr  5)    -44.1167         0.010000   
    505. D(Zr  2,O   7,Zr  1,O   8)     17.7721         0.010000   
    506. D(Zr  4,O   7,Zr  1,Zr  2)   -141.5881         0.010000   
    507. D(Zr  2,O   7,Zr  1,Zr  4)    141.5881         0.010000   
    508. D(Zr  2,O   7,Zr  4,Zr  1)   -129.6226         0.010000   
    509. D(Zr  1,O   7,Zr  4,Zr  3)     44.3146         0.010000   
    510. D(Zr  4,O   7,Zr  2,Zr  1)    129.8125         0.010000   
    511. D(Zr  1,O   7,Zr  2,O   8)    -16.6496         0.010000   
    512. D(Zr  1,O   7,Zr  4,O   9)     83.1275         0.010000   
    513. D(Zr  2,O   8,Zr  5,Zr  0)     45.4760         0.010000   
    514. D(Zr  1,O   8,Zr  5,Zr  2)   -133.3589         0.010000   
    515. D(Zr  1,O   8,Zr  2,Zr  5)    144.2188         0.010000   
    516. D(Zr  1,O   8,Zr  5,Zr  0)    -87.8829         0.010000   
    517. D(Zr  1,O   8,Zr  2,O   7)     18.0283         0.010000   
    518. D(Zr  5,O   8,Zr  2,Zr  1)   -144.2188         0.010000   
    519. D(Zr  5,O   8,Zr  1,Zr  2)    133.3858         0.010000   
    520. D(Zr  2,O   8,Zr  1,O   7)    -16.8802         0.010000   
    521. D(Zr  2,O   8,Zr  1,Zr  4)    -45.2801         0.010000   
    522. D(Zr  3,O   9,Zr  4,Zr  1)    -44.3749         0.010000   
    523. D(Zr  0,O   9,Zr  4,Zr  1)     84.1845         0.010000   
    524. D(Zr  4,O   9,Zr  0,Zr  3)   -128.4353         0.010000   
    525. D(Zr  4,O   9,Zr  3,Zr  0)    141.8415         0.010000   
    526. D(Zr  0,O   9,Zr  3,O   6)    -17.3715         0.010000   
    527. D(Zr  0,O   9,Zr  3,Zr  4)   -141.8415         0.010000   
    528. D(Zr  0,O   9,Zr  4,Zr  3)    128.5593         0.010000   
    529. D(Zr  3,O   9,Zr  0,Zr  5)     43.6246         0.010000   
    530. D(Zr  3,O   9,Zr  0,O   6)     16.0819         0.010000   
    531. D(Zr  1,O  10,Zr  4,O   7)    -17.8524         0.010000   
    532. D(Zr  1,O  10,Zr  4,Zr  3)   -142.5935         0.010000   
    533. D(Zr  4,O  10,Zr  3,Zr  0)    -44.5339         0.010000   
    534. D(Zr  1,O  10,Zr  3,Zr  4)    132.2692         0.010000   
    535. D(Zr  1,O  10,Zr  3,Zr  0)     87.7353         0.010000   
    536. D(Zr  4,O  10,Zr  1,Zr  2)     45.3032         0.010000   
    537. D(Zr  3,O  10,Zr  1,Zr  4)   -132.4849         0.010000   
    538. D(Zr  3,O  10,Zr  4,Zr  1)    142.5935         0.010000   
    539. D(Zr  3,O  10,Zr  1,Zr  2)    -87.1817         0.010000   
    540. D(Zr  2,O  11,Zr  5,Zr  0)   -138.5261         0.010000   
    541. D(Zr  0,O  11,Zr  5,Zr  2)    138.5261         0.010000   
    542. D(Zr  5,O  11,Zr  2,Zr  1)     43.3527         0.010000   
    543. D(Zr  0,O  11,Zr  2,Zr  5)   -127.8758         0.010000   
    544. D(Zr  0,O  11,Zr  2,Zr  1)    -84.5230         0.010000   
    545. D(Zr  5,O  11,Zr  0,Zr  3)    -42.4788         0.010000   
    546. D(Zr  0,O  11,Zr  5,O   6)     16.5093         0.010000   
    547. D(Zr  2,O  11,Zr  0,Zr  5)    127.6622         0.010000   
    548. D(Zr  2,O  11,Zr  0,Zr  3)     85.1834         0.010000   
    549. D(C  36,O  12,Zr  0,Zr  5)     -0.8359         0.010000   
    550. D(C  36,O  12,Zr  0,Zr  3)     51.2552         0.010000   
    551. D(C  37,O  13,Zr  0,Zr  5)    -68.3106         0.010000   
    552. D(C  37,O  13,Zr  0,Zr  3)    -13.4386         0.010000   
    553. D(C  38,O  14,Zr  0,Zr  5)    -14.4213         0.010000   
    554. D(C  38,O  14,Zr  0,Zr  3)    -92.6023         0.010000   
    555. D(Al 76,O  15,Zr  0,Zr  3)    137.0399         0.010000   
    556. D(C  39,O  15,Zr  0,Zr  5)      1.7490         0.010000   
    557. D(C  39,O  15,Zr  0,Zr  3)    -49.7978         0.010000   
    558. D(C  40,O  16,Zr  1,Zr  4)    -49.9363         0.010000   
    559. D(C  40,O  16,Zr  1,Zr  2)     22.9559         0.010000   
    560. D(C  41,O  17,Zr  1,Zr  4)    -50.9146         0.010000   
    561. D(C  41,O  17,Zr  1,Zr  2)     12.4938         0.010000   
    562. D(C  42,O  18,Zr  1,Zr  4)     51.8056         0.010000   
    563. D(C  42,O  18,Zr  1,Zr  2)     -1.9543         0.010000   
    564. D(C  43,O  19,Zr  1,Zr  4)     -4.0364         0.010000   
    565. D(C  43,O  19,Zr  1,Zr  2)    -58.5503         0.010000   
    566. D(C  44,O  20,Zr  2,Zr  5)     -7.0725         0.010000   
    567. D(C  44,O  20,Zr  2,Zr  1)    -62.3696         0.010000   
    568. D(C  38,O  21,Zr  2,Zr  5)    -64.7921         0.010000   
    569. D(C  38,O  21,Zr  2,Zr  1)     -2.7746         0.010000   
    570. D(C  42,O  22,Zr  2,Zr  5)     51.8828         0.010000   
    571. D(C  42,O  22,Zr  2,Zr  1)     -1.1521         0.010000   
    572. D(C  45,O  23,Zr  2,Zr  5)    -51.2158         0.010000   
    573. D(C  45,O  23,Zr  2,Zr  1)     23.9062         0.010000   
    574. D(C  46,O  24,Zr  3,Zr  4)      8.7964         0.010000   
    575. D(C  46,O  24,Zr  3,Zr  0)    -48.7748         0.010000   
    576. D(C  37,O  25,Zr  3,Zr  0)    -11.9913         0.010000   
    577. D(C  37,O  25,Zr  3,Zr  4)    -68.0432         0.010000   
    578. D(C  41,O  26,Zr  3,Zr  4)     16.7307         0.010000   
    579. D(C  41,O  26,Zr  3,Zr  0)    -57.7445         0.010000   
    580. D(C  47,O  27,Zr  3,Zr  4)     -1.7703         0.010000   
    581. D(C  47,O  27,Zr  3,Zr  0)     49.8378         0.010000   
    582. D(C  47,O  28,Zr  4,Zr  3)     -2.6629         0.010000   
    583. D(C  47,O  28,Zr  4,Zr  1)     50.9172         0.010000   
    584. D(C  39,O  29,Zr  4,Zr  3)     32.6766         0.010000   
    585. D(C  39,O  29,Zr  4,Zr  1)    -31.9643         0.010000   
    586. D(C  43,O  30,Zr  4,Zr  3)    -58.0669         0.010000   
    587. D(C  43,O  30,Zr  4,Zr  1)     -4.6166         0.010000   
    588. D(C  45,O  31,Zr  4,Zr  3)     33.0135         0.010000   
    589. D(C  45,O  31,Zr  4,Zr  1)    -39.0993         0.010000   
    590. D(C  46,O  32,Zr  5,Zr  2)    -47.6712         0.010000   
    591. D(C  46,O  32,Zr  5,Zr  0)     21.2636         0.010000   
    592. D(C  36,O  33,Zr  5,Zr  2)     51.3094         0.010000   
    593. D(C  36,O  33,Zr  5,Zr  0)     -1.8966         0.010000   
    594. D(C  40,O  34,Zr  5,Zr  2)    -44.5299         0.010000   
    595. D(C  40,O  34,Zr  5,Zr  0)     18.2469         0.010000   
    596. D(C  44,O  35,Zr  5,Zr  2)     -6.1092         0.010000   
    597. D(C  44,O  35,Zr  5,Zr  0)    -59.1310         0.010000   
    598. D(H  58,C  36,O  33,Zr  5)   -177.1806         0.060143   
    599. D(O  12,C  36,O  33,Zr  5)      2.0945         0.060143   
    600. D(H  58,C  36,O  12,Zr  0)    179.0524         0.058876   
    601. D(O  33,C  36,O  12,Zr  0)     -0.2237         0.058876   
    602. D(H  51,C  37,O  13,Zr  0)   -169.9460         0.057769   
    603. D(O  25,C  37,O  13,Zr  0)     10.5717         0.057769   
    604. D(H  51,C  37,O  25,Zr  3)   -172.6798         0.061387   
    605. D(O  13,C  37,O  25,Zr  3)      6.7988         0.061387   
    606. D(H  50,C  38,O  21,Zr  2)    177.2661         0.065499   
    607. D(O  14,C  38,O  21,Zr  2)     -3.7051         0.065499   
    608. D(H  50,C  38,O  14,Zr  0)   -128.6121         0.053324   
    609. D(O  21,C  38,O  14,Zr  0)     52.3452         0.053324   
    610. D(H  54,C  39,O  29,Zr  4)   -164.6328         0.068601   
    611. D(O  15,C  39,O  29,Zr  4)     16.9852         0.068601   
    612. D(H  54,C  39,O  15,Zr  0)    175.6175         0.055438   
    613. D(O  29,C  39,O  15,Al 76)    165.9749         0.055438   
    614. D(O  29,C  39,O  15,Zr  0)     -5.9851         0.055438   
    615. D(H  56,C  40,O  34,Zr  5)    167.4688         0.062117   
    616. D(O  16,C  40,O  34,Zr  5)    -13.8928         0.062117   
    617. D(H  56,C  40,O  16,Zr  1)   -153.6445         0.057664   
    618. D(O  34,C  40,O  16,Zr  1)     27.7117         0.057664   
    619. D(H  48,C  41,O  26,Zr  3)   -150.3170         0.056419   
    620. D(O  17,C  41,O  26,Zr  3)     31.0030         0.056419   
    621. D(H  48,C  41,O  17,Zr  1)    171.6083         0.063005   
    622. D(O  26,C  41,O  17,Zr  1)     -9.7228         0.063005   
    623. D(H  49,C  42,O  22,Zr  2)   -179.6627         0.060000   
    624. D(O  18,C  42,O  22,Zr  2)      0.2127         0.060000   
    625. D(H  49,C  42,O  18,Zr  1)   -178.1943         0.060003   
    626. D(O  22,C  42,O  18,Zr  1)      1.9304         0.060003   
    627. D(H  52,C  43,O  30,Zr  4)   -176.3929         0.059381   
    628. D(O  19,C  43,O  30,Zr  4)      3.5792         0.059381   
    629. D(H  52,C  43,O  19,Zr  1)   -177.6502         0.060722   
    630. D(O  30,C  43,O  19,Zr  1)      2.3778         0.060722   
    631. D(H  59,C  44,O  35,Zr  5)   -176.4804         0.059816   
    632. D(O  20,C  44,O  35,Zr  5)      3.5229         0.059816   
    633. D(H  59,C  44,O  20,Zr  2)   -174.4209         0.060149   
    634. D(O  35,C  44,O  20,Zr  2)      5.5758         0.060149   
    635. D(H  55,C  45,O  31,Zr  4)    163.4783         0.060096   
    636. D(O  23,C  45,O  31,Zr  4)    -17.9416         0.060096   
    637. D(H  55,C  45,O  23,Zr  2)   -153.9299         0.060000   
    638. D(O  31,C  45,O  23,Zr  2)     27.4931         0.060000   
    639. D(H  57,C  46,O  32,Zr  5)   -152.1591         0.057431   
    640. D(O  24,C  46,O  32,Zr  5)     28.9575         0.057431   
    641. D(H  57,C  46,O  24,Zr  3)    169.4566         0.061590   
    642. D(O  32,C  46,O  24,Zr  3)    -11.6654         0.061590   
    643. D(H  53,C  47,O  28,Zr  4)   -177.7658         0.060215   
    644. D(O  27,C  47,O  28,Zr  4)      2.4902         0.060215   
    645. D(H  53,C  47,O  27,Zr  3)   -179.1797         0.060104   
    646. D(O  28,C  47,O  27,Zr  3)      0.5640         0.060104   
    647. D(H  63,Al 61,Al 60,H  64)     49.5597         0.010000   
    648. D(H  62,Al 61,Al 60,H  65)    -46.9484         0.010000   
    649. D(H  62,Al 61,Al 60,H  64)    -72.6752         0.010000   
    650. D(Al 68,H  62,Al 61,H  63)    140.4056         0.010000   
    651. D(Al 68,H  62,Al 61,Al 60)    -84.9022         0.010000   
    652. D(Al 60,H  64,Al 61,H  63)   -140.1490         0.010000   
    653. D(Al 60,H  64,Al 61,H  62)    110.8505         0.010000   
    654. D(Al 61,H  64,Al 60,H  66)    -48.4602         0.010000   
    655. D(Al 61,H  64,Al 60,H  65)   -158.8523         0.010000   
    656. D(Al 72,H  66,Al 60,H  64)    176.3555         0.010000   
    657. D(Al 72,H  66,Al 60,Al 61)    156.6316         0.010000   
    658. D(H  70,Al 68,H  62,Al 61)    164.1081         0.010000   
    659. D(H  69,Al 68,H  62,Al 61)     51.2932         0.010000   
    660. D(H  69,Al 68,Al 61,Al 60)    -28.7107         0.010000   
    661. D(H  62,Al 68,Al 61,H  63)    -48.4706         0.010000   
    662. D(H  62,Al 68,Al 61,Al 60)     99.8845         0.010000   
    663. D(Al 72,H  69,Al 68,H  62)    -58.1332         0.010000   
    664. D(Al 72,H  69,Al 68,Al 61)    -38.8596         0.010000   
    665. D(H  73,Al 72,H  69,Al 68)    111.9265         0.010000   
    666. D(H  66,Al 72,H  69,Al 68)     67.4725         0.010000   
    667. D(H  73,Al 72,H  66,Al 60)      0.7017         0.010000   
    668. D(H  69,Al 72,H  66,Al 60)    170.0787         0.010000   
    669. D(Al 76,H  73,Al 72,H  69)     71.5488         0.010000   
    670. D(Al 76,H  73,Al 72,H  66)    116.2835         0.010000   
    671. D(H  77,Al 76,H  73,Al 72)     78.8244         0.010000   
    672. D(O  15,Al 76,H  73,Al 72)    177.7637         0.010000   
    673. D(H  73,Al 76,Al 72,H  66)    -64.5142         0.010000   
    674. D(O  15,Al 76,Al 72,H  69)   -161.6334         0.010000   
    675. D(O  15,Al 76,Al 72,H  66)    -67.2127         0.010000   
    676. D(H  73,Al 76,O  15,Zr  0)      0.7434         0.010000   
    677. D(Al 72,Al 76,O  15,C  39)   -171.0376         0.010000   
    678. D(Al 72,Al 76,O  15,Zr  0)      2.5407         0.010000   
    679. D(Al 72,H  78,Al 76,H  73)      3.7080         0.010000   
    680. D(Al 72,H  78,Al 76,O  15)      6.6836         0.010000   
    681. D(Al 76,H  78,Al 72,H  69)   -169.3096         0.010000   
    682. D(Al 76,H  78,Al 72,H  66)    -83.2189         0.010000   
    -----------------------------------------------------------------

Number of atoms                         .... 80
Number of degrees of freedom            .... 682


         *************************************************************
         *                GEOMETRY OPTIMIZATION CYCLE   1            *
         *************************************************************
---------------------------------
CARTESIAN COORDINATES (ANGSTROEM)
---------------------------------
  Zr    -0.055530    2.105448    1.320159
  Zr     0.182415   -2.130731   -1.508514
  Zr     1.887766   -1.080188    1.326148
  Zr    -1.797849    1.049501   -1.491443
  Zr     1.665020    0.990014   -1.817436
  Zr    -1.571342   -1.013892    1.641961
  O     -1.642617    0.770207    0.558677
  O      1.793676   -0.783950   -0.745080
  O     -0.025277   -1.881363    0.547570
  O      0.172879    1.907398   -0.710778
  O     -0.209432   -0.162236   -2.059921
  O      0.315844    0.150250    1.941285
  O     -1.276327    2.157589    3.171754
  O     -1.624865    3.704404    0.871551
  O      1.925843    2.169311    2.297829
  O      1.376123    4.004900    0.475106
  O     -1.384962   -3.591881   -0.910144
  O     -1.379142   -2.276581   -3.146859
  O      1.609088   -3.766003   -1.022736
  O      1.491999   -2.260340   -3.312557
  O      1.417497   -2.354237    3.082995
  O      2.744803    0.188474    3.031384
  O      2.749393   -3.061560    0.804777
  O      3.899895   -0.268382    0.747809
  O     -3.909559    0.619612   -0.793806
  O     -2.490476    3.111556   -1.137470
  O     -2.719662   -0.466236   -2.835825
  O     -1.341421    2.142377   -3.381985
  O      0.916829    2.154201   -3.567461
  O      2.456048    3.098187   -1.308348
  O      2.368785   -0.185520   -3.568143
  O      3.822762    0.864873   -1.218703
  O     -3.685897   -0.841290    0.938079
  O     -2.299310    0.149797    3.382085
  O     -2.323521   -3.075590    1.095482
  O     -0.822104   -2.172738    3.387241
  C     -2.036784    1.330176    3.766162
  C     -2.348375    3.901346   -0.157910
  C      2.553241    1.427887    3.136526
  C      2.158104    4.050770   -0.550825
  C     -2.034646   -3.865554    0.150804
  C     -2.313165   -1.492667   -3.476535
  C      2.489219   -3.893578   -0.117455
  C      2.201947   -1.397280   -3.910814
  C      0.336351   -2.581757    3.706737
  C      4.421029    0.234099   -0.294491
  C     -4.345957   -0.051443    0.186877
  C     -0.253779    2.442158   -3.962583
  H     -2.867440   -1.730938   -4.430240
  H      3.099412   -4.841424   -0.132973
  H      2.980737    1.951070    4.039934
  H     -2.920891    4.870013   -0.190096
  H      2.741186   -1.736590   -4.840841
  H     -0.334266    3.026151   -4.923460
  H      2.638446    5.050605   -0.765272
  H      5.539256    0.129006   -0.401766
  H     -2.410522   -4.925671    0.244834
  H     -5.447148    0.044149    0.414538
  H     -2.511707    1.673895    4.728433
  H      0.411783   -3.210734    4.639120
  Al    -3.333498    4.976899    2.951232
  Al    -4.051447    5.305862    5.983769
  H     -3.306541    6.803743    6.374525
  H     -5.531492    5.334751    6.621392
  H     -4.204640    5.702166    4.305547
  H     -3.482416    6.124624    1.822517
  H     -1.801307    5.120644    3.691478
  H     -2.996047    4.082593    6.122208
  Al    -1.646513    7.146387    6.856407
  H     -0.874659    6.329490    5.585768
  H     -1.555798    8.745376    6.636658
  H     -3.955655    3.489300    2.910304
  Al    -0.196310    5.191474    4.315455
  H      0.230634    4.290364    2.684018
  H      0.317280    4.013247    5.281208
  H     -1.415382    6.354851    8.246017
  Al     1.240010    5.448840    1.892238
  H      2.749685    5.440419    2.479852
  H      0.657979    6.436111    3.626526
  H      0.501528    6.596882    1.020032

----------------------------
CARTESIAN COORDINATES (A.U.)
----------------------------
  NO LB      ZA    FRAG     MASS         X           Y           Z
   0 Zr   12.0000*   0    91.220   -0.104937    3.978720    2.494739
   1 Zr   12.0000*   0    91.220    0.344714   -4.026498   -2.850679
   2 Zr   12.0000*   0    91.220    3.567361   -2.041260    2.506057
   3 Zr   12.0000*   0    91.220   -3.397442    1.983270   -2.818418
   4 Zr   12.0000*   0    91.220    3.146432    1.870855   -3.434457
   5 Zr   12.0000*   0    91.220   -2.969407   -1.915977    3.102856
   6 O     8.0000    0    15.999   -3.104096    1.455480    1.055746
   7 O     8.0000    0    15.999    3.389557   -1.481451   -1.407998
   8 O     8.0000    0    15.999   -0.047767   -3.555261    1.034757
   9 O     8.0000    0    15.999    0.326694    3.604461   -1.343175
  10 O     8.0000    0    15.999   -0.395770   -0.306581   -3.892687
  11 O     8.0000    0    15.999    0.596858    0.283931    3.668498
  12 O     8.0000    0    15.999   -2.411909    4.077253    5.993746
  13 O     8.0000    0    15.999   -3.070550    7.000309    1.646992
  14 O     8.0000    0    15.999    3.639316    4.099403    4.342267
  15 O     8.0000    0    15.999    2.600496    7.568164    0.897820
  16 O     8.0000    0    15.999   -2.617198   -6.787671   -1.719923
  17 O     8.0000    0    15.999   -2.606200   -4.302115   -5.946701
  18 O     8.0000    0    15.999    3.040735   -7.116713   -1.932691
  19 O     8.0000    0    15.999    2.819470   -4.271423   -6.259825
  20 O     8.0000    0    15.999    2.678681   -4.448863    5.826016
  21 O     8.0000    0    15.999    5.186926    0.356164    5.728486
  22 O     8.0000    0    15.999    5.195600   -5.785510    1.520808
  23 O     8.0000    0    15.999    7.369734   -0.507168    1.413154
  24 O     8.0000    0    15.999   -7.387996    1.170896   -1.500075
  25 O     8.0000    0    15.999   -4.706318    5.879989   -2.149507
  26 O     8.0000    0    15.999   -5.139416   -0.881058   -5.358933
  27 O     8.0000    0    15.999   -2.534919    4.048506   -6.391025
  28 O     8.0000    0    15.999    1.732555    4.070851   -6.741525
  29 O     8.0000    0    15.999    4.641258    5.854724   -2.472419
  30 O     8.0000    0    15.999    4.476355   -0.350582   -6.742814
  31 O     8.0000    0    15.999    7.223974    1.634374   -2.303015
  32 O     8.0000    0    15.999   -6.965335   -1.589808    1.772713
  33 O     8.0000    0    15.999   -4.345067    0.283076    6.391215
  34 O     8.0000    0    15.999   -4.390818   -5.812023    2.070161
  35 O     8.0000    0    15.999   -1.553552   -4.105879    6.400957
  36 C     6.0000    0    12.011   -3.848963    2.513668    7.117014
  37 C     6.0000    0    12.011   -4.437786    7.372475   -0.298408
  38 C     6.0000    0    12.011    4.824927    2.698316    5.927175
  39 C     6.0000    0    12.011    4.078225    7.654847   -1.040908
  40 C     6.0000    0    12.011   -3.844924   -7.304839    0.284978
  41 C     6.0000    0    12.011   -4.371248   -2.820731   -6.569699
  42 C     6.0000    0    12.011    4.703943   -7.357796   -0.221959
  43 C     6.0000    0    12.011    4.161078   -2.640476   -7.390368
  44 C     6.0000    0    12.011    0.635611   -4.878815    7.004717
  45 C     6.0000    0    12.011    8.354534    0.442383   -0.556507
  46 C     6.0000    0    12.011   -8.212668   -0.097213    0.353147
  47 C     6.0000    0    12.011   -0.479573    4.615010   -7.488197
  48 H     1.0000    0     1.008   -5.418676   -3.271000   -8.371940
  49 H     1.0000    0     1.008    5.857039   -9.148965   -0.251282
  50 H     1.0000    0     1.008    5.632776    3.686988    7.634369
  51 H     1.0000    0     1.008   -5.519684    9.202992   -0.359229
  52 H     1.0000    0     1.008    5.180090   -3.281679   -9.147864
  53 H     1.0000    0     1.008   -0.631670    5.718596   -9.303991
  54 H     1.0000    0     1.008    4.985940    9.544260   -1.446155
  55 H     1.0000    0     1.008   10.467677    0.243785   -0.759229
  56 H     1.0000    0     1.008   -4.555226   -9.308170    0.462669
  57 H     1.0000    0     1.008  -10.293618    0.083429    0.783363
  58 H     1.0000    0     1.008   -4.746439    3.163204    8.935443
  59 H     1.0000    0     1.008    0.778156   -6.067408    8.766667
  60 Al   13.0000    0    26.982   -6.299399    9.404977    5.577021
  61 Al   13.0000    0    26.982   -7.656126   10.026626   11.307685
  62 H     1.0000    0     1.008   -6.248457   12.857210   12.046106
  63 H     1.0000    0     1.008  -10.453006   10.081219   12.512618
  64 H     1.0000    0     1.008   -7.945618   10.775532    8.136304
  65 H     1.0000    0     1.008   -6.580812   11.573862    3.444058
  66 H     1.0000    0     1.008   -3.403977    9.676616    6.975882
  67 H     1.0000    0     1.008   -5.661709    7.714983   11.569297
  68 Al   13.0000    0    26.982   -3.111458   13.504715   12.956732
  69 H     1.0000    0     1.008   -1.652866   11.961003   10.555572
  70 H     1.0000    0     1.008   -2.940031   16.526365   12.541467
  71 H     1.0000    0     1.008   -7.475105    6.593821    5.499677
  72 Al   13.0000    0    26.982   -0.370973    9.810463    8.155028
  73 H     1.0000    0     1.008    0.435835    8.107613    5.072059
  74 H     1.0000    0     1.008    0.599572    7.583937    9.980037
  75 H     1.0000    0     1.008   -2.674685   12.008927   15.582713
  76 Al   13.0000    0    26.982    2.343279   10.296816    3.575812
  77 H     1.0000    0     1.008    5.196151   10.280902    4.686242
  78 H     1.0000    0     1.008    1.243400   12.162487    6.853141
  79 H     1.0000    0     1.008    0.947751   12.466300    1.927582
* core charge reduced due to ECP

--------------------------------
INTERNAL COORDINATES (ANGSTROEM)
--------------------------------
 Zr     0   0   0     0.000000000000     0.00000000     0.00000000
 Zr     1   0   0     5.099335408087     0.00000000     0.00000000
 Zr     2   1   0     3.470904079247    47.03564032     0.00000000
 Zr     1   2   3     3.472146402225    47.28037958   180.92977541
 Zr     2   1   3     3.468803794538    47.31002740   264.39447126
 Zr     3   2   1     3.474127700775    65.84623195    54.09044935
 O      4   1   2     2.074871369347    37.18347566    75.96108843
 O      5   2   1     2.076884152852    38.00584108    76.16701796
 O      2   1   3     2.081538574975    49.29926992    50.95107488
 O      1   2   3     2.053313770690    50.65514914   128.23541003
 O      4   1   2     2.077147215714    90.87658713   334.26621635
 O      1   2   3     2.084830201985    51.52847553   325.29392894
 O      1   2   3     2.218437810798   120.54328483   276.56258818
 O      1   2   3     2.284889926104   120.29686115   184.57171100
 O      1   2   3     2.210374689612   103.15166330    23.12475121
 O      1   2   3     2.524215749369   114.39012078    94.16713793
 O      2   1   3     2.224786483126   111.31673620    96.52893152
 O      2   1   3     2.268017283874   114.96110401   174.25094277
 O      2   1   3     2.223845634996   121.30737339   359.37135292
 O      2   1   3     2.233019818018   121.58296501   267.03215559
 O      3   2   1     2.220555013037   111.61913426   114.21018098
 O     15   1   2     2.265505116702   116.23121655   319.49618677
 O      3   2   1     2.222625570633    74.28072607   181.63068315
 O      3   2   1     2.245477813809   109.83718388   260.32956026
 O      4   1   2     2.265132087004   106.02942692   110.21694177
 O      4   1   2     2.203883296603    75.11363442   185.50946930
 O      4   1   2     2.225884759305   154.68625175    31.39753657
 O      4   1   2     2.230886255386   115.75815771   250.38290373
 O      5   2   1     2.231078320736   113.32648194   247.85165767
 O     16   1   2     2.273559940137   103.40965823   356.60441750
 O      5   2   1     2.223092453532    74.31870276   180.65559413
 O      5   2   1     2.242764412283   109.70847175   104.37659694
 O      6   3   2     2.235302946834   156.16879592   331.59578991
 O      6   3   2     2.216335323471   114.10608159   194.62884293
 O      6   3   2     2.261639214784   106.96468025    53.65217892
 O      6   3   2     2.224923540709    74.10209320   127.67591887
 C     34   6   3     1.268750470103   131.16219630    51.30943942
 C     26   4   1     1.266292393893   132.26355032   348.00873908
 C     22  15   1     1.258529426011    27.24738538   218.38573661
 C     30  16   1     1.253007582834    27.07975985   175.25729579
 C     35   6   3     1.264875064820   132.36364709   315.47013149
 C     18   2   1     1.263173942190   131.12666408   359.21568291
 C     19   2   1     1.269031096386   132.42963610   358.52362318
 C     20   2   1     1.267600613424   132.08540279   353.95013487
 C     21   3   2     1.268737878798   132.24615038   297.63039505
 C     32   5   2     1.268844875059   132.51793490   320.90069183
 C     25   4   1     1.265897434886   131.34471374   311.22523774
 C     29   5   2     1.268606600796   132.23651374    50.91718448
 H     42  18   2     1.128515560530   116.91729312   171.60833160
 H     43  19   2     1.127380643500   116.74895364   181.80574297
 H     39  22  15     1.128103669090   117.77173577   180.97119653
 H     38  26   4     1.125667628470   117.22721570   187.32019010
 H     44  20   2     1.127323674329   116.89345745   182.34977062
 H     48  29   5     1.127301992975   116.67641377   182.23416047
 H     40  30  16     1.129772101158   117.19036276   178.38193940
 H     46  32   5     1.128266326945   116.38237843   163.47829189
 H     41  35   6     1.128703834482   116.63561960   167.46883865
 H     47  25   4     1.128534138530   116.60002119   169.45660914
 H     37  34   6     1.126792500497   117.07161433   182.81935415
 H     45  21   3     1.127226979481   116.72344529   185.57906215
 Al    14   1   2     2.977204799053   123.78855508   132.93261028
 Al    61  14   1     3.133679504183   148.46746180     4.69025903
 H     62  61  14     1.717912167849   102.25748961   101.48396976
 H     62  61  14     1.611809854666   126.51874134   223.71883914
 H     62  61  14     1.731171753266    26.64271861   174.15917761
 H     61  14   1     1.616615900096    82.44925050   159.21161163
 H     61  14   1     1.707699168667    79.85456315    48.27568387
 H     62  61  14     1.621548768943    81.62275175   351.82834560
 Al    63  62  61     1.762188670220   129.80764043   275.09779793
 H     69  63  62     1.696350004631    97.47900332    51.29319349
 H     69  63  62     1.616565291649   102.00627114   164.10812218
 H     61  14   1     1.612980364002    79.01523152   289.29012830
 Al    67  61  14     1.723478532071   174.83658154   358.33830539
 H     73  67  61     1.912032190953    83.08830329     0.70166938
 H     73  67  61     1.607691932676   119.00341572   268.22738760
 H     69  63  62     1.615848188150   105.94218426   297.87266922
 Al    74  73  67     1.728531568534   101.85156389   116.28346743
 H     77  74  73     1.620024417275   111.99591822    78.82439866
 H     73  67  61     1.659384175762   111.09682778    80.81511345
 H     77  74  73     1.619906393823   117.09115866   274.60238412

---------------------------
INTERNAL COORDINATES (A.U.)
---------------------------
 Zr     0   0   0     0.000000000000     0.00000000     0.00000000
 Zr     1   0   0     9.636347386291     0.00000000     0.00000000
 Zr     2   1   0     6.559058146887    47.03564032     0.00000000
 Zr     1   2   3     6.561405797085    47.28037958   180.92977541
 Zr     2   1   3     6.555089183983    47.31002740   264.39447126
 Zr     3   2   1     6.565149908734    65.84623195    54.09044935
 O      4   1   2     3.920938651180    37.18347566    75.96108843
 O      5   2   1     3.924742260771    38.00584108    76.16701796
 O      2   1   3     3.933537843895    49.29926992    50.95107488
 O      1   2   3     3.880200693613    50.65514914   128.23541003
 O      4   1   2     3.925239377536    90.87658713   334.26621635
 O      1   2   3     3.939758117479    51.52847553   325.29392894
 O      1   2   3     4.192239907544   120.54328483   276.56258818
 O      1   2   3     4.317816206492   120.29686115   184.57171100
[...]
  59   2.0000      -2.539901       -69.1142 
  60   2.0000      -2.535414       -68.9921 
  61   2.0000      -2.535164       -68.9853 
  62   2.0000      -2.535024       -68.9815 
  63   2.0000      -2.532576       -68.9149 
  64   2.0000      -2.532225       -68.9054 
  65   2.0000      -2.527686       -68.7818 
  66   2.0000      -2.526963       -68.7622 
  67   2.0000      -2.066984       -56.2455 
  68   2.0000      -2.063847       -56.1601 
  69   2.0000      -2.063004       -56.1372 
  70   2.0000      -2.062346       -56.1193 
  71   2.0000      -2.061922       -56.1078 
  72   2.0000      -2.061125       -56.0861 
  73   2.0000      -1.247346       -33.9420 
  74   2.0000      -1.243920       -33.8488 
  75   2.0000      -1.243299       -33.8319 
  76   2.0000      -1.241991       -33.7963 
  77   2.0000      -1.240599       -33.7584 
  78   2.0000      -1.239820       -33.7372 
  79   2.0000      -1.237987       -33.6873 
  80   2.0000      -1.237271       -33.6679 
  81   2.0000      -1.236063       -33.6350 
  82   2.0000      -1.235834       -33.6287 
  83   2.0000      -1.235162       -33.6105 
  84   2.0000      -1.234131       -33.5824 
  85   2.0000      -1.233347       -33.5611 
  86   2.0000      -1.232075       -33.5265 
  87   2.0000      -1.231324       -33.5060 
  88   2.0000      -1.230619       -33.4868 
  89   2.0000      -1.229907       -33.4675 
  90   2.0000      -1.229685       -33.4614 
  91   2.0000      -1.012402       -27.5489 
  92   2.0000      -1.010601       -27.4998 
  93   2.0000      -1.010076       -27.4856 
  94   2.0000      -1.008468       -27.4418 
  95   2.0000      -1.007742       -27.4221 
  96   2.0000      -1.007506       -27.4156 
  97   2.0000      -1.007070       -27.4038 
  98   2.0000      -1.005113       -27.3505 
  99   2.0000      -1.003735       -27.3130 
 100   2.0000      -1.002616       -27.2826 
 101   2.0000      -0.999994       -27.2112 
 102   2.0000      -0.998855       -27.1802 
 103   2.0000      -0.935557       -25.4578 
 104   2.0000      -0.930523       -25.3208 
 105   2.0000      -0.929080       -25.2815 
 106   2.0000      -0.927729       -25.2448 
 107   2.0000      -0.926311       -25.2062 
 108   2.0000      -0.926084       -25.2000 
 109   2.0000      -0.925759       -25.1912 
 110   2.0000      -0.923623       -25.1331 
 111   2.0000      -0.923137       -25.1198 
 112   2.0000      -0.922686       -25.1076 
 113   2.0000      -0.921135       -25.0654 
 114   2.0000      -0.918503       -24.9937 
 115   2.0000      -0.840918       -22.8826 
 116   2.0000      -0.831920       -22.6377 
 117   2.0000      -0.831372       -22.6228 
 118   2.0000      -0.823253       -22.4018 
 119   2.0000      -0.820353       -22.3230 
 120   2.0000      -0.818082       -22.2611 
 121   2.0000      -0.575123       -15.6499 
 122   2.0000      -0.570360       -15.5203 
 123   2.0000      -0.569297       -15.4913 
 124   2.0000      -0.568044       -15.4573 
 125   2.0000      -0.565814       -15.3966 
 126   2.0000      -0.565009       -15.3747 
 127   2.0000      -0.564292       -15.3552 
 128   2.0000      -0.562872       -15.3165 
 129   2.0000      -0.560796       -15.2600 
 130   2.0000      -0.559243       -15.2178 
 131   2.0000      -0.557257       -15.1637 
 132   2.0000      -0.556125       -15.1329 
 133   2.0000      -0.508051       -13.8248 
 134   2.0000      -0.486878       -13.2486 
 135   2.0000      -0.484510       -13.1842 
 136   2.0000      -0.483085       -13.1454 
 137   2.0000      -0.481845       -13.1117 
 138   2.0000      -0.480893       -13.0858 
 139   2.0000      -0.479282       -13.0419 
 140   2.0000      -0.477899       -13.0043 
 141   2.0000      -0.476934       -12.9780 
 142   2.0000      -0.475723       -12.9451 
 143   2.0000      -0.474469       -12.9110 
 144   2.0000      -0.472443       -12.8558 
 145   2.0000      -0.470433       -12.8011 
 146   2.0000      -0.470131       -12.7929 
 147   2.0000      -0.468712       -12.7543 
 148   2.0000      -0.468071       -12.7368 
 149   2.0000      -0.467186       -12.7128 
 150   2.0000      -0.466881       -12.7045 
 151   2.0000      -0.466142       -12.6844 
 152   2.0000      -0.457221       -12.4416 
 153   2.0000      -0.456757       -12.4290 
 154   2.0000      -0.455163       -12.3856 
 155   2.0000      -0.454696       -12.3729 
 156   2.0000      -0.453678       -12.3452 
 157   2.0000      -0.452559       -12.3148 
 158   2.0000      -0.437027       -11.8921 
 159   2.0000      -0.432466       -11.7680 
 160   2.0000      -0.430656       -11.7187 
 161   2.0000      -0.429456       -11.6861 
 162   2.0000      -0.423751       -11.5309 
 163   2.0000      -0.421115       -11.4591 
 164   2.0000      -0.419547       -11.4165 
 165   2.0000      -0.418791       -11.3959 
 166   2.0000      -0.417205       -11.3527 
 167   2.0000      -0.415386       -11.3032 
 168   2.0000      -0.412712       -11.2305 
 169   2.0000      -0.411297       -11.1920 
 170   2.0000      -0.410392       -11.1673 
 171   2.0000      -0.401340       -10.9210 
 172   2.0000      -0.383735       -10.4419 
 173   2.0000      -0.380714       -10.3598 
 174   2.0000      -0.377271       -10.2661 
 175   2.0000      -0.376654       -10.2493 
 176   2.0000      -0.370905       -10.0928 
 177   2.0000      -0.369292       -10.0489 
 178   2.0000      -0.369014       -10.0414 
 179   2.0000      -0.367977       -10.0132 
 180   2.0000      -0.346540        -9.4298 
 181   2.0000      -0.345489        -9.4012 
 182   2.0000      -0.343167        -9.3380 
 183   2.0000      -0.341125        -9.2825 
 184   2.0000      -0.339917        -9.2496 
 185   2.0000      -0.333529        -9.0758 
 186   2.0000      -0.333008        -9.0616 
 187   2.0000      -0.331821        -9.0293 
 188   2.0000      -0.324791        -8.8380 
 189   2.0000      -0.322873        -8.7858 
 190   2.0000      -0.322254        -8.7690 
 191   2.0000      -0.321703        -8.7540 
 192   2.0000      -0.318956        -8.6792 
 193   2.0000      -0.316037        -8.5998 
 194   2.0000      -0.313225        -8.5233 
 195   2.0000      -0.312087        -8.4923 
 196   2.0000      -0.310219        -8.4415 
 197   2.0000      -0.309418        -8.4197 
 198   2.0000      -0.307854        -8.3771 
 199   2.0000      -0.306788        -8.3481 
 200   2.0000      -0.303209        -8.2507 
 201   2.0000      -0.302600        -8.2342 
 202   2.0000      -0.301156        -8.1949 
 203   2.0000      -0.298560        -8.1242 
 204   2.0000      -0.296553        -8.0696 
 205   2.0000      -0.296391        -8.0652 
 206   2.0000      -0.295613        -8.0440 
 207   2.0000      -0.295078        -8.0295 
 208   2.0000      -0.294855        -8.0234 
 209   2.0000      -0.293528        -7.9873 
 210   2.0000      -0.293114        -7.9760 
 211   2.0000      -0.291855        -7.9418 
 212   2.0000      -0.290015        -7.8917 
 213   2.0000      -0.288827        -7.8594 
 214   2.0000      -0.286815        -7.8046 
 215   2.0000      -0.286442        -7.7945 
 216   2.0000      -0.284859        -7.7514 
 217   2.0000      -0.284371        -7.7381 
 218   2.0000      -0.283247        -7.7075 
 219   2.0000      -0.282757        -7.6942 
 220   2.0000      -0.281998        -7.6735 
 221   2.0000      -0.281421        -7.6578 
 222   2.0000      -0.280025        -7.6199 
 223   2.0000      -0.279261        -7.5991 
 224   2.0000      -0.278104        -7.5676 
 225   2.0000      -0.277972        -7.5640 
 226   2.0000      -0.276845        -7.5333 
 227   2.0000      -0.272545        -7.4163 
 228   2.0000      -0.271355        -7.3839 
 229   2.0000      -0.268502        -7.3063 
 230   2.0000      -0.262173        -7.1341 
 231   2.0000      -0.257035        -6.9943 
 232   2.0000      -0.253134        -6.8881 
 233   2.0000      -0.250209        -6.8085 
 234   2.0000      -0.249738        -6.7957 
 235   2.0000      -0.248560        -6.7636 
 236   2.0000      -0.245288        -6.6746 
 237   2.0000      -0.243073        -6.6144 
 238   0.0000      -0.130819        -3.5598 
 239   0.0000      -0.126499        -3.4422 
 240   0.0000      -0.104989        -2.8569 
 241   0.0000      -0.103425        -2.8143 
 242   0.0000      -0.101381        -2.7587 
 243   0.0000      -0.098448        -2.6789 
 244   0.0000      -0.095062        -2.5868 
 245   0.0000      -0.093996        -2.5578 
 246   0.0000      -0.088768        -2.4155 
 247   0.0000      -0.084837        -2.3085 
 248   0.0000      -0.083551        -2.2735 
*Only the first 10 virtual orbitals were printed.
-------
TIMINGS
-------

Total SCF time: 0 days 0 hours 1 min 15 sec 

Total time                  ....      75.902 sec
Sum of individual times     ....      69.390 sec  ( 91.4%)

SCF preparation             ....       1.659 sec  (  2.2%)
Fock matrix formation       ....      54.789 sec  ( 72.2%)
  Startup                   ....       0.847 sec  (  1.5% of F)
  Split-RI-J                ....      26.024 sec  ( 47.5% of F)
  XC integration            ....      31.215 sec  ( 57.0% of F)
    XC Preparation          ....       0.000 sec  (  0.0% of XC)
    Basis function eval.    ....      10.545 sec  ( 33.8% of XC)
    Density eval.           ....      11.191 sec  ( 35.9% of XC)
    XC-Functional eval.     ....       0.534 sec  (  1.7% of XC)
    XC-Potential eval.      ....       5.092 sec  ( 16.3% of XC)
Diagonalization             ....       0.000 sec  (  0.0%)
Density matrix formation    ....       1.158 sec  (  1.5%)
Total Energy calculation    ....       0.377 sec  (  0.5%)
Population analysis         ....       0.000 sec  (  0.0%)
Orbital Transformation      ....       1.167 sec  (  1.5%)
Orbital Orthonormalization  ....       0.000 sec  (  0.0%)
DIIS solution               ....       1.465 sec  (  1.9%)
SOSCF solution              ....       8.776 sec  ( 11.6%)
Finished LeanSCF after  76.7 sec

Maximum memory used throughout the entire LEANSCF-calculation: 108.3 MB


-------------------------------------------------------------------------------
                          DFT DISPERSION CORRECTION                            
                                                                               
                              DFTD3 V3.1  Rev 1                                
                          USING Becke-Johnson damping                          
-------------------------------------------------------------------------------
The PBE functional is recognized
Active option DFTDOPT                   ...         4   

molecular C6(AA) [au] = 150048.179208 


            DFT-D V3
 parameters
 s6 scaling factor         :     1.0000 
 a1 scaling factor         :     0.4289 
 s8 scaling factor         :     0.7875 
 a2 scaling factor         :     4.4407 
 ad hoc parameters k1-k3   :    16.0000     1.3333    -4.0000 

 Edisp/kcal,au: -102.429099530290  -0.163231142856 
 E6   /kcal   : -63.678561574 
 E8   /kcal   : -38.750537956 
 % E8         :  37.831571432 

-------------------------   ----------------
Dispersion correction           -0.163231143
-------------------------   ----------------

NOTIFICATION: Different basis set in ORCA and otool_gcp:
ORCA: 876  gCP: 918 
If you are NOT using ECPs, check your basis set inputs!
------------------   -----------------
gCP correction             0.404113854
------------------   -----------------

-------------------------   --------------------
FINAL SINGLE POINT ENERGY     -4220.512875148273
-------------------------   --------------------

                                *** OPTIMIZATION RUN DONE ***



           ************************************************************
           *        Program running with 24 parallel MPI-processes    *
           *              working on a common directory               *
           ************************************************************

------------------------------------------------------------------------------
                              ORCA PROPERTY CALCULATIONS
------------------------------------------------------------------------------

GBWName                                 ... run_pre.gbw
Number of atoms                         ...     80
Number of basis functions               ...    876
Max core memory                         ...   4096 MB

Electric properties:
Dipole moment                           ... YES
Quadrupole moment                       ...  NO
Static polarizability (Dipole/Dipole)   ...  NO
Static polarizability (Dipole/Quad.)    ...  NO
Static polarizability (Quad./Quad.)     ...  NO
Static polarizability (Velocity)        ...  NO
Static hyperpolarizability              ...  NO

Atomic electric properties:
Dipole moment                           ...  NO
Quadrupole moment                       ...  NO
Static polarizability                   ...  NO

Choice of electric origin               ... Center of mass
Position of electric origin             ...    -0.270204     1.234122     0.788772

General magnetic properties:
Magnetizability                         ...  NO

EPR properties:
g-Tensor (aka g-matrix)                 ...  NO
Zero-Field splitting spin-orbit         ...  NO
Zero-field splitting spin-spin          ...  NO
Hyperfine couplings                     ...  NO (   0 nuclei)
Quadrupole couplings                    ...  NO (   0 nuclei)
Contact density                         ...  NO (   0 nuclei)

NMR properties:
Chemical shifts                         ...  NO (   0 nuclei)
Spin-rotation constants                 ...  NO (   0 nuclei)
Spin-spin couplings                     ...  NO (   0 nuclei,    0 pairs)

Choice of magnetic origin               ... GIAO
Position of magnetic origin             ...     0.000000     0.000000     0.000000

Properties with geometric perturbations:
SCF Hessian                             ...  NO
IR spectrum                             ...  NO
VCD spectrum                            ...  NO
X-ray spectroscopy properties:
SCF XES/XAS/RIXS spectra                ...  NO

SCF SOC stabilization energy            ...  NO
Diagonal Born-Oppenheimer correction    ...  NO

-------------
DIPOLE MOMENT
-------------

Method             : SCF
Type of density    : Electron Density
Multiplicity       :   1
Irrep              :   0
Energy             : -4220.7537578590181511 Eh
Basis              : AO
                                X                 Y                 Z
Electronic contribution:     75.717513163    -278.183686240    -217.184208164
Nuclear contribution   :    -75.035707587     275.862579639     215.002436037
                        -----------------------------------------
Total Dipole Moment    :      0.681805576      -2.321106602      -2.181772127
                        -----------------------------------------
Magnitude (a.u.)       :      3.257686958
Magnitude (Debye)      :      8.280382194



--------------------
Rotational spectrum 
--------------------
 
Rotational constants in cm-1:             0.001700             0.001012             0.000989 
Rotational constants in MHz :            50.976384            30.325354            29.662368 

Dipole components along the rotational axes: 
x,y,z [a.u.] :    -3.251058    -0.012806     0.207322 
x,y,z [Debye]:    -8.263533    -0.032551     0.526971 

 

Dipole moment calculation done in   0.3 sec 

Maximum memory used throughout the entire PROP-calculation: 88.5 MB

--------------------------------
SUGGESTED CITATIONS FOR THIS RUN
--------------------------------

Below you find a list of papers that are relevant to this ORCA run
We neither can nor want to force you to cite these papers, but we appreciate if you do
You receive ORCA, which is the product of decades of hard work by many enthusiastic individuals, for free
The only thing we kindly ask in return is that you cite our papers,
We deeply appreciate it, if you show your appreciation for ORCA by not just citing the generic ORCA reference.

Please note that relegating all ORCA citations to the supporting information does *not* help us.
SI sections are not indexed - citations you put there will not count into any citation statistics
But we need these citations in order to attract the funding resources that allow us to do what we are doing

Therefore, if you are a happy ORCA user, please consider citing a few of the papers listed below in the main body of your paper

In addition to the list printed below, the program has created the file run_pre.bibtex that contains the list in bibtex format
You can import this file easily into all common literature databanks and citation aid programs


List of essential papers. We consider these as the minimum necessary citations

  1. Neese, F.
     Software update: the ORCA program system, version 6.0
     WIRES Comput. Molec. Sci. 2025 15(1), e70019
     doi.org/10.1002/wcms.7019

List of papers to cite with high priority. The work reported in these papers was absolutely
necessary for this run to complete.
Our perspective: the developers of density functionals and basis sets usually get cited in chemistry papers
Good! But without the algorithms to do something with them, the functionals or basis sets would not do anything.
Hence, in our opinion, the algorithm design and method developments papers are equally worthy of getting cited

  1. Neese, F.
     An improvement of the resolution of the identity approximation for the formation of the Coulomb matrix
     J. Comp. Chem. 2003 24(14), 1740-1747
     doi.org/10.1002/jcc.10318
  2. Grimme, S.; Antony, J.; Ehrlich, S.; Krieg, H.
     A consistent and accurate ab initio parametrization of density functional dispersion correction (DFT-D) for the 94 elements H-Pu
     J. Chem. Phys. 2010 132 , 154104
     doi.org/10.1063/1.3382344
  3. Grimme, S.; Ehrlich, S.; Goerigk, L.
     Effect of the damping function in dispersion corrected density functional theory
     J. Comput. Chem. 2011 32(7), 1456-1465
     doi.org/10.1002/jcc.21759
  4. Helmich-Paris, B.
     A trust-region augmented Hessian implementation for restricted and unrestricted Hartree–Fock and Kohn–Sham methods
     J. Chem. Phys. 2021 154 , 164104
     doi.org/10.1063/5.0040798
  5. Neese, F.
     The SHARK Integral Generation and Digestion System
     J. Comp. Chem. 2022 44(3), 381
     doi.org/10.1002/jcc.26942

List of suggested additional citations. These are papers that are important in the 'surrounding' of 
of this run, or papers that preceded the highly important papers. If you like your results we are grateful for a citation.

  1. Neese, F.
     The ORCA program system
     WIRES Comput. Molec. Sci. 2012 2(1), 73-78
     doi.org/10.1002/wcms.81
  2. Neese, F.
     Software update: the ORCA program system, version 4.0
     WIRES Comput. Molec. Sci. 2018 8(1), 1-6
     doi.org/10.1002/wcms.1327
  3. Neese, F.; Wennmohs, F.; Becker, U.; Riplinger, C.
     The ORCA quantum chemistry program package
     J. Chem. Phys. 2020 152(22), 224108
     doi.org/10.1063/5.0004608
  4. Neese, F.
     Software update: The ORCA program system—Version 5.0
     WIRES Comput. Molec. Sci. 2022 12(1), e1606
     doi.org/10.1002/wcms.1606

List of optional additional citations

  1. Neese, F.
     Approximate second-order SCF convergence for spin unrestricted wavefunctions
     Chem. Phys. Lett. 2000 325(1-3), 93-98
     doi.org/10.1016/s0009-2614(00)00662-x

Timings for individual modules:

Sum of individual times          ...     8651.744 sec (= 144.196 min)
Startup calculation              ...     1690.537 sec (=  28.176 min)  19.5 %
SCF iterations                   ...     4630.493 sec (=  77.175 min)  53.5 %
Property calculations            ...        1.764 sec (=   0.029 min)   0.0 %
SCF Gradient evaluation          ...     2312.606 sec (=  38.543 min)  26.7 %
Geometry relaxation              ...       16.343 sec (=   0.272 min)   0.2 %
                             ****ORCA TERMINATED NORMALLY****
TOTAL RUN TIME: 0 days 2 hours 24 minutes 48 seconds 249 msec
