
     Program PWSCF v.7.3.1 starts on  7Jul2025 at  9: 4: 1 

     This program is part of the open-source Quantum ESPRESSO suite
     for quantum simulation of materials; please cite
         "P. Giannozzi et al., J. Phys.:Condens. Matter 21 395502 (2009);
         "P. Giannozzi et al., J. Phys.:Condens. Matter 29 465901 (2017);
         "P. Giannozzi et al., J. Chem. Phys. 152 154105 (2020);
          URL http://www.quantum-espresso.org", 
     in publications or presentations arising from this work. More details at
     http://www.quantum-espresso.org/quote

     Parallel version (MPI), running on    64 processors

     MPI processes distributed on     1 nodes
     254243 MiB available memory on the printing compute node when the environment starts

     Waiting for input...
     Reading input from standard input
Warning: card &CELL ignored
Warning: card   CELL_DYNAMICS = 'BFGS' ignored
Warning: card / ignored

     Current dimensions of program PWSCF are:
     Max number of different atomic species (ntypx) = 10
     Max number of k-points (npk) =  40000
     Max angular momentum in pseudopotentials (lmaxx) =  4
     file H.pbe-kjpaw_psl.1.0.0.UPF: wavefunction(s)  1S renormalized
     file Zr.pbe-spn-kjpaw_psl.1.0.0.UPF: wavefunction(s)  4S 4P renormalized
     file C.pbe-n-kjpaw_psl.1.0.0.UPF: wavefunction(s)  2S 2P renormalized
     file O.pbe-n-kjpaw_psl.1.0.0.UPF: wavefunction(s)  2S 2P renormalized

     IMPORTANT: XC functional enforced from input :
     Exchange-correlation= PBE
                           (   1   4   3   4   0   0   0)
     Any further DFT definition will be discarded
     Please, verify this is what you really want


     gamma-point specific algorithms are used

     R & G space division:  proc/nbgrp/npool/nimage =      64
     Subspace diagonalization in iterative solution of the eigenvalue problem:
     one sub-group per band group will be used
     custom distributed-memory algorithm (size of sub-group:  2*  2 procs)


     Parallelization info
     --------------------
     sticks:   dense  smooth     PW     G-vecs:    dense   smooth      PW
     Min         760     508    126               110976    60406    7546
     Max         763     510    128               110990    60416    7560
     Sum       48727   32521   8137              7102917  3866303  483305

     Using Slab Decomposition


     Title: 
     UiO-66 Erster Versuch                                                      


     bravais-lattice index     =            5
     lattice parameter (alat)  =      28.0321  a.u.
     unit-cell volume          =   15575.9264 (a.u.)^3
     number of atoms/cell      =          114
     number of atomic types    =            4
     number of electrons       =       484.00
     number of Kohn-Sham states=          242
     kinetic-energy cutoff     =     150.0000  Ry
     charge density cutoff     =     900.0000  Ry
     scf convergence threshold =      1.0E-08
     mixing beta               =       0.7000
     number of iterations used =            8  plain     mixing
     Exchange-correlation= PBE
                           (   1   4   3   4   0   0   0)

     celldm(1)=  28.032143  celldm(2)=   0.000000  celldm(3)=   0.000000
     celldm(4)=   0.500000  celldm(5)=   0.000000  celldm(6)=   0.000000

     crystal axes: (cart. coord. in units of alat)
               a(1) = (   0.500000  -0.288675   0.816497 )  
               a(2) = (   0.000000   0.577350   0.816497 )  
               a(3) = (  -0.500000  -0.288675   0.816497 )  

     reciprocal axes: (cart. coord. in units 2 pi/alat)
               b(1) = (  1.000000 -0.577350  0.408248 )  
               b(2) = (  0.000000  1.154701  0.408248 )  
               b(3) = ( -1.000000 -0.577350  0.408248 )  


     PseudoPot. # 1 for H  read from file:
     /home/mehlhorn/pseudos/UiO-66_pbe-spn-kjpaw/H.pbe-kjpaw_psl.1.0.0.UPF
     MD5 check sum: d81a744832360e4a8af0b0b5b123bc2a
     Pseudo is Projector augmented-wave, Zval =  1.0
     Generated using &quot;atomic&quot; code by A. Dal Corso  v.6.3MaX
     Shape of augmentation charge: PSQ
     Using radial grid of  929 points,  2 beta functions with: 
                l(1) =   0
                l(2) =   0
     Q(r) pseudized with 0 coefficients 


     PseudoPot. # 2 for Zr read from file:
     /home/mehlhorn/pseudos/UiO-66_pbe-spn-kjpaw/Zr.pbe-spn-kjpaw_psl.1.0.0.UPF
     MD5 check sum: 02112c41713a0468aff2bb39ef194e36
     Pseudo is Projector augmented-wave + core cor, Zval = 12.0
     Generated using &quot;atomic&quot; code by A. Dal Corso  v.6.2.2
     Shape of augmentation charge: PSQ
     Using radial grid of 1225 points,  6 beta functions with: 
                l(1) =   0
                l(2) =   0
                l(3) =   1
                l(4) =   1
                l(5) =   2
                l(6) =   2
     Q(r) pseudized with 0 coefficients 


     PseudoPot. # 3 for C  read from file:
     /home/mehlhorn/pseudos/UiO-66_pbe-spn-kjpaw/C.pbe-n-kjpaw_psl.1.0.0.UPF
     MD5 check sum: 5f16ad9a65e90284d1d834d4ab3b0f7d
     Pseudo is Projector augmented-wave + core cor, Zval =  4.0
     Generated using &quot;atomic&quot; code by A. Dal Corso  v.6.3
     Shape of augmentation charge: PSQ
     Using radial grid of 1073 points,  4 beta functions with: 
                l(1) =   0
                l(2) =   0
                l(3) =   1
                l(4) =   1
     Q(r) pseudized with 0 coefficients 


     PseudoPot. # 4 for O  read from file:
     /home/mehlhorn/pseudos/UiO-66_pbe-spn-kjpaw/O.pbe-n-kjpaw_psl.1.0.0.UPF
     MD5 check sum: e99d9cef9b487d1ca56f5b95ecd0fd7a
     Pseudo is Projector augmented-wave + core cor, Zval =  6.0
     Generated using &quot;atomic&quot; code by A. Dal Corso  v.6.3
     Shape of augmentation charge: PSQ
     Using radial grid of 1095 points,  4 beta functions with: 
                l(1) =   0
                l(2) =   0
                l(3) =   1
                l(4) =   1
     Q(r) pseudized with 0 coefficients 


     atomic species   valence    mass     pseudopotential
     H                 1.00     1.00750     H ( 1.00)
     Zr               12.00    91.22400     Zr( 1.00)
     C                 4.00    12.01060     C ( 1.00)
     O                 6.00    15.99900     O ( 1.00)

      6 Sym. Ops. (no inversion) found



   Cartesian axes

     site n.     atom                  positions (alat units)
         1        C      tau(   1) = (  -0.1482500  -0.0855922   0.2521341  )
         2        C      tau(   2) = (  -0.3435500  -0.1983487   0.5710577  )
         3        C      tau(   3) = (   0.1482500   0.3111052   0.8131489  )
         4        C      tau(   4) = (   0.3435500  -0.0271643   0.8131489  )
         5        C      tau(   5) = (   0.1482500  -0.0855922   0.2521341  )
         6        C      tau(   6) = (   0.3435500  -0.1983487   0.5710577  )
         7        C      tau(   7) = (  -0.3435500  -0.0271643   0.8131489  )
         8        C      tau(   8) = (  -0.1482500   0.3111052   0.8131489  )
         9        C      tau(   9) = (   0.0000000   0.1711844   0.2521341  )
        10        C      tau(  10) = (   0.0000000   0.3966974   0.5710577  )
        11        C      tau(  11) = (   0.1953000  -0.2839409   0.8131489  )
        12        C      tau(  12) = (  -0.1953000  -0.2839409   0.8131489  )
        13        C      tau(  13) = (  -0.4182000  -0.0345833   1.1917584  )
        14        C      tau(  14) = (  -0.0469000  -0.2339423   0.8779788  )
        15        C      tau(  15) = (   0.4182000   0.0195722   1.2683458  )
        16        C      tau(  16) = (   0.0469000   0.2489534   1.5608965  )
        17        C      tau(  17) = (   0.2390500  -0.3448802   1.1917584  )
        18        C      tau(  18) = (   0.2260500   0.0763546   0.8779788  )
        19        C      tau(  19) = (  -0.2260500   0.3523857   1.2683458  )
        20        C      tau(  20) = (  -0.2390500  -0.0838601   1.5608965  )
        21        C      tau(  21) = (   0.1791500   0.3794635   1.1917584  )
        22        C      tau(  22) = (  -0.1791500   0.1575878   0.8779788  )
        23        C      tau(  23) = (  -0.1921500  -0.3719579   1.2683458  )
        24        C      tau(  24) = (   0.1921500  -0.1650933   1.5608965  )
        25        C      tau(  25) = (  -0.2390500  -0.3448802   1.1917584  )
        26        C      tau(  26) = (  -0.2260500   0.0763546   0.8779788  )
        27        C      tau(  27) = (   0.2260500   0.3523857   1.2683458  )
        28        C      tau(  28) = (   0.2390500  -0.0838601   1.5608965  )
        29        C      tau(  29) = (  -0.1791500   0.3794635   1.1917584  )
        30        C      tau(  30) = (   0.1791500   0.1575878   0.8779788  )
        31        C      tau(  31) = (   0.1921500  -0.3719579   1.2683458  )
        32        C      tau(  32) = (  -0.1921500  -0.1650933   1.5608965  )
        33        C      tau(  33) = (   0.4182000  -0.0345833   1.1917584  )
        34        C      tau(  34) = (   0.0469000  -0.2339423   0.8779788  )
        35        C      tau(  35) = (  -0.4182000   0.0195722   1.2683458  )
        36        C      tau(  36) = (  -0.0469000   0.2489534   1.5608965  )
        37        C      tau(  37) = (  -0.2909500  -0.1679801   0.4903062  )
        38        C      tau(  38) = (  -0.1966500  -0.1135359   0.3363149  )
        39        C      tau(  39) = (   0.2909500   0.0590918   0.8114343  )
        40        C      tau(  40) = (   0.1966500   0.2224242   0.8114343  )
        41        C      tau(  41) = (   0.2909500  -0.1679801   0.4903062  )
        42        C      tau(  42) = (   0.1966500  -0.1135359   0.3363149  )
        43        C      tau(  43) = (  -0.1966500   0.2224242   0.8114343  )
        44        C      tau(  44) = (  -0.2909500   0.0590918   0.8114343  )
        45        C      tau(  45) = (   0.0000000   0.3359601   0.4903062  )
        46        C      tau(  46) = (   0.0000000   0.2270719   0.3363149  )
        47        C      tau(  47) = (  -0.0943000  -0.2815160   0.8114343  )
        48        C      tau(  48) = (   0.0943000  -0.2815160   0.8114343  )
        49        H      tau(  49) = (  -0.3555500  -0.0562050   1.1610581  )
        50        H      tau(  50) = (  -0.0844500  -0.1978291   0.9291731  )
        51        H      tau(  51) = (   0.3555500   0.0413094   1.2989644  )
        52        H      tau(  52) = (   0.0844500   0.2127247   1.5097838  )
        53        H      tau(  53) = (   0.2264500  -0.2798128   1.1610581  )
        54        H      tau(  54) = (   0.2135500   0.0257787   0.9291731  )
        55        H      tau(  55) = (  -0.2135500   0.2872606   1.2989644  )
        56        H      tau(  56) = (  -0.2264500  -0.0332265   1.5097838  )
        57        H      tau(  57) = (   0.1291000   0.3360179   1.1610581  )
        58        H      tau(  58) = (  -0.1291000   0.1720504   0.9291731  )
        59        H      tau(  59) = (  -0.1420000  -0.3285700   1.2989644  )
        60        H      tau(  60) = (   0.1420000  -0.1794982   1.5097838  )
        61        H      tau(  61) = (  -0.2264500  -0.2798128   1.1610581  )
        62        H      tau(  62) = (  -0.2135500   0.0257787   0.9291731  )
        63        H      tau(  63) = (   0.2135500   0.2872606   1.2989644  )
        64        H      tau(  64) = (   0.2264500  -0.0332265   1.5097838  )
        65        H      tau(  65) = (  -0.1291000   0.3360179   1.1610581  )
        66        H      tau(  66) = (   0.1291000   0.1720504   0.9291731  )
        67        H      tau(  67) = (   0.1420000  -0.3285700   1.2989644  )
        68        H      tau(  68) = (  -0.1420000  -0.1794982   1.5097838  )
        69        H      tau(  69) = (   0.3555500  -0.0562050   1.1610581  )
        70        H      tau(  70) = (   0.0844500  -0.1978291   0.9291731  )
        71        H      tau(  71) = (  -0.3555500   0.0413094   1.2989644  )
        72        H      tau(  72) = (  -0.0844500   0.2127247   1.5097838  )
        73        H      tau(  73) = (   0.0000000  -0.0000000   2.2198011  )
        74        H      tau(  74) = (   0.3124600   0.1803989   1.7095560  )
        75        H      tau(  75) = (   0.0000000  -0.3607977   1.7095560  )
        76        H      tau(  76) = (  -0.3124600   0.1803989   1.7095560  )
        77        O      tau(  77) = (   0.0000005  -0.0000003   2.2847134  )
        78        O      tau(  78) = (   0.3654605   0.2109993   1.6879189  )
        79        O      tau(  79) = (  -0.0000005  -0.4219977   1.6879189  )
        80        O      tau(  80) = (  -0.3654605   0.2109987   1.6879181  )
        81        O      tau(  81) = (  -0.4238000  -0.1385063   1.0352360  )
        82        O      tau(  82) = (  -0.2347000  -0.2416788   0.8765907  )
        83        O      tau(  83) = (   0.4238000   0.1325019   1.4184995  )
        84        O      tau(  84) = (   0.2347000   0.2476833   1.5686532  )
        85        O      tau(  85) = (   0.3318500  -0.2977684   1.0352360  )
        86        O      tau(  86) = (   0.3266500  -0.0824168   0.8765907  )
        87        O      tau(  87) = (  -0.3266500   0.3007706   1.4184995  )
        88        O      tau(  88) = (  -0.3318500   0.0794145   1.5686532  )
        89        O      tau(  89) = (   0.0919500   0.4362747   1.0352360  )
        90        O      tau(  90) = (  -0.0919500   0.3240956   0.8765907  )
        91        O      tau(  91) = (  -0.0971500  -0.4332725   1.4184995  )
        92        O      tau(  92) = (   0.0971500  -0.3270978   1.5686532  )
        93        O      tau(  93) = (  -0.3318500  -0.2977684   1.0352360  )
        94        O      tau(  94) = (  -0.3266500  -0.0824168   0.8765907  )
        95        O      tau(  95) = (   0.3266500   0.3007706   1.4184995  )
        96        O      tau(  96) = (   0.3318500   0.0794145   1.5686532  )
        97        O      tau(  97) = (  -0.0919500   0.4362747   1.0352360  )
        98        O      tau(  98) = (   0.0919500   0.3240956   0.8765907  )
        99        O      tau(  99) = (   0.0971500  -0.4332725   1.4184995  )
       100        O      tau( 100) = (  -0.0971500  -0.3270978   1.5686532  )
       101        O      tau( 101) = (   0.4238000  -0.1385063   1.0352360  )
       102        O      tau( 102) = (   0.2347000  -0.2416788   0.8765907  )
       103        O      tau( 103) = (  -0.4238000   0.1325019   1.4184995  )
       104        O      tau( 104) = (  -0.2347000   0.2476833   1.5686532  )
       105        O      tau( 105) = (   0.0000000  -0.0000000   0.1210783  )
       106        O      tau( 106) = (  -0.4011400  -0.2315983   0.7761372  )
       107        O      tau( 107) = (   0.0000000   0.4631966   0.7761372  )
       108        O      tau( 108) = (   0.4011400  -0.2315983   0.7761372  )
       109        Zr     tau( 109) = (   0.3796000  -0.2191622   0.9148028  )
       110        Zr     tau( 110) = (  -0.3796000   0.2191622   1.5346870  )
       111        Zr     tau( 111) = (   0.0000000   0.4383243   0.9148028  )
       112        Zr     tau( 112) = (   0.0000000  -0.4383243   1.5346870  )
       113        Zr     tau( 113) = (  -0.3796000  -0.2191622   0.9148028  )
       114        Zr     tau( 114) = (   0.3796000   0.2191622   1.5346870  )

     number of k points=     1
                       cart. coord. in units 2pi/alat
        k(    1) = (   0.0000000   0.0000000   0.0000000), wk =   2.0000000

     Dense  grid:  3551459 G-vectors     FFT dimensions: ( 270, 270, 270)

     Smooth grid:  1933152 G-vectors     FFT dimensions: ( 225, 225, 225)

     Estimated max dynamical RAM per process >     320.99 MB

     Estimated total dynamical RAM >      20.06 GB

     Initial potential from superposition of free atoms

     starting charge     483.9848, renormalised to     484.0000

     negative rho (up, down):  6.539E-06 0.000E+00
     Starting wfcs are  426 randomized atomic wfcs
     Checking if some PAW data can be deallocated... 

     total cpu time spent up to now is       86.1 secs

     Self-consistent Calculation

     iteration #  1     ecut=   150.00 Ry     beta= 0.70
     Davidson diagonalization with overlap
     ethr =  1.00E-02,  avg # of iterations =  2.0

     total cpu time spent up to now is      286.8 secs

     total energy              =   -4089.39017369 Ry
     estimated scf accuracy    <      17.59007015 Ry

     iteration #  2     ecut=   150.00 Ry     beta= 0.70
     Davidson diagonalization with overlap
     ethr =  3.63E-03,  avg # of iterations =  9.0

     total cpu time spent up to now is      893.9 secs

     total energy              =   -4092.98076562 Ry
     estimated scf accuracy    <      15.04015799 Ry

     iteration #  3     ecut=   150.00 Ry     beta= 0.70
     Davidson diagonalization with overlap
     ethr =  3.11E-03,  avg # of iterations =  7.0

     total cpu time spent up to now is     1345.3 secs

     total energy              =   -4096.66482173 Ry
     estimated scf accuracy    <       4.50118386 Ry

     iteration #  4     ecut=   150.00 Ry     beta= 0.70
     Davidson diagonalization with overlap
     ethr =  9.30E-04,  avg # of iterations =  5.0

     negative rho (up, down):  4.435E-06 0.000E+00

     total cpu time spent up to now is     1644.8 secs

     total energy              =   -4096.52453474 Ry
     estimated scf accuracy    <       1.02584147 Ry

     iteration #  5     ecut=   150.00 Ry     beta= 0.70
     Davidson diagonalization with overlap
     ethr =  2.12E-04,  avg # of iterations = 14.0

     negative rho (up, down):  1.195E-05 0.000E+00

     total cpu time spent up to now is     2796.4 secs

     total energy              =   -4097.47709524 Ry
     estimated scf accuracy    <       1.70706976 Ry

     iteration #  6     ecut=   150.00 Ry     beta= 0.70
     Davidson diagonalization with overlap
     ethr =  2.12E-04,  avg # of iterations =  2.0

     negative rho (up, down):  2.333E-05 0.000E+00

     total cpu time spent up to now is     2960.5 secs

     total energy              =   -4097.08917511 Ry
     estimated scf accuracy    <       0.95888774 Ry

     iteration #  7     ecut=   150.00 Ry     beta= 0.70
     Davidson diagonalization with overlap
     ethr =  1.98E-04,  avg # of iterations =  7.0

     negative rho (up, down):  2.513E-05 0.000E+00

     total cpu time spent up to now is     3496.3 secs

     total energy              =   -4097.41173872 Ry
     estimated scf accuracy    <       0.06166060 Ry

     iteration #  8     ecut=   150.00 Ry     beta= 0.70
     Davidson diagonalization with overlap
     ethr =  1.27E-05,  avg # of iterations = 11.0

     negative rho (up, down):  3.019E-05 0.000E+00

     total cpu time spent up to now is     4337.8 secs

     total energy              =   -4097.45299065 Ry
     estimated scf accuracy    <       0.11443109 Ry

     iteration #  9     ecut=   150.00 Ry     beta= 0.70
     Davidson diagonalization with overlap
     ethr =  1.27E-05,  avg # of iterations =  2.0

     negative rho (up, down):  4.390E-05 0.000E+00

     total cpu time spent up to now is     4491.2 secs

     total energy              =   -4097.41674863 Ry
     estimated scf accuracy    <       0.07380719 Ry

     iteration # 10     ecut=   150.00 Ry     beta= 0.70
     Davidson diagonalization with overlap
     ethr =  1.27E-05,  avg # of iterations =  6.0

     negative rho (up, down):  4.427E-05 0.000E+00

     total cpu time spent up to now is     4941.6 secs

     total energy              =   -4097.44546821 Ry
     estimated scf accuracy    <       0.00544084 Ry

     iteration # 11     ecut=   150.00 Ry     beta= 0.70
     Davidson diagonalization with overlap
     ethr =  1.12E-06,  avg # of iterations = 13.0

     negative rho (up, down):  4.557E-05 0.000E+00

     total cpu time spent up to now is     5801.8 secs

     total energy              =   -4097.44913858 Ry
     estimated scf accuracy    <       0.01173297 Ry

     iteration # 12     ecut=   150.00 Ry     beta= 0.70
     Davidson diagonalization with overlap
     ethr =  1.12E-06,  avg # of iterations =  2.0

     negative rho (up, down):  4.644E-05 0.000E+00

     total cpu time spent up to now is     5958.4 secs

     total energy              =   -4097.44401336 Ry
     estimated scf accuracy    <       0.00943691 Ry

     iteration # 13     ecut=   150.00 Ry     beta= 0.70
     Davidson diagonalization with overlap
     ethr =  1.12E-06,  avg # of iterations =  6.0

     negative rho (up, down):  4.746E-05 0.000E+00

     total cpu time spent up to now is     6400.4 secs

     total energy              =   -4097.44653507 Ry
     estimated scf accuracy    <       0.00025120 Ry

     iteration # 14     ecut=   150.00 Ry     beta= 0.70
     Davidson diagonalization with overlap
     ethr =  5.19E-08,  avg # of iterations = 12.0

     negative rho (up, down):  4.713E-05 0.000E+00

     total cpu time spent up to now is     7332.7 secs

     total energy              =   -4097.44689508 Ry
     estimated scf accuracy    <       0.00139047 Ry

     iteration # 15     ecut=   150.00 Ry     beta= 0.70
     Davidson diagonalization with overlap
     ethr =  5.19E-08,  avg # of iterations =  6.0

     negative rho (up, down):  4.746E-05 0.000E+00

     total cpu time spent up to now is     7806.3 secs

     total energy              =   -4097.44689591 Ry
     estimated scf accuracy    <       0.00022689 Ry

     iteration # 16     ecut=   150.00 Ry     beta= 0.70
     Davidson diagonalization with overlap
     ethr =  4.69E-08,  avg # of iterations =  6.0

     negative rho (up, down):  4.763E-05 0.000E+00

     total cpu time spent up to now is     8231.4 secs

     total energy              =   -4097.44695082 Ry
     estimated scf accuracy    <       0.00001939 Ry

     iteration # 17     ecut=   150.00 Ry     beta= 0.70
     Davidson diagonalization with overlap
     ethr =  4.01E-09,  avg # of iterations =  9.0

     negative rho (up, down):  4.779E-05 0.000E+00

     total cpu time spent up to now is     8921.2 secs

     total energy              =   -4097.44698415 Ry
     estimated scf accuracy    <       0.00001146 Ry

     iteration # 18     ecut=   150.00 Ry     beta= 0.70
     Davidson diagonalization with overlap
     ethr =  2.37E-09,  avg # of iterations =  7.0

     negative rho (up, down):  4.784E-05 0.000E+00

     total cpu time spent up to now is     9421.9 secs

     total energy              =   -4097.44698674 Ry
     estimated scf accuracy    <       0.00000642 Ry

     iteration # 19     ecut=   150.00 Ry     beta= 0.70
     Davidson diagonalization with overlap
     ethr =  1.33E-09,  avg # of iterations =  8.0

     negative rho (up, down):  4.783E-05 0.000E+00

     total cpu time spent up to now is    10029.3 secs

     total energy              =   -4097.44698791 Ry
     estimated scf accuracy    <       0.00001508 Ry

     iteration # 20     ecut=   150.00 Ry     beta= 0.70
     Davidson diagonalization with overlap
     ethr =  1.33E-09,  avg # of iterations = 10.0

     negative rho (up, down):  4.787E-05 0.000E+00

     total cpu time spent up to now is    10706.2 secs

     total energy              =   -4097.44698713 Ry
     estimated scf accuracy    <       0.00001463 Ry

     iteration # 21     ecut=   150.00 Ry     beta= 0.70
     Davidson diagonalization with overlap
     ethr =  1.33E-09,  avg # of iterations =  2.0

     negative rho (up, down):  4.789E-05 0.000E+00

     total cpu time spent up to now is    10857.8 secs

     total energy              =   -4097.44698283 Ry
     estimated scf accuracy    <       0.00001096 Ry

     iteration # 22     ecut=   150.00 Ry     beta= 0.70
     Davidson diagonalization with overlap
     ethr =  1.33E-09,  avg # of iterations =  7.0

     negative rho (up, down):  4.791E-05 0.000E+00

     total cpu time spent up to now is    11373.9 secs

     total energy              =   -4097.44698483 Ry
     estimated scf accuracy    <       0.00000101 Ry

     iteration # 23     ecut=   150.00 Ry     beta= 0.70
     Davidson diagonalization with overlap
     ethr =  2.09E-10,  avg # of iterations =  6.0

     negative rho (up, down):  4.790E-05 0.000E+00

     total cpu time spent up to now is    11853.4 secs

     total energy              =   -4097.44698509 Ry
     estimated scf accuracy    <       0.00000089 Ry

     iteration # 24     ecut=   150.00 Ry     beta= 0.70
     Davidson diagonalization with overlap
     ethr =  1.84E-10,  avg # of iterations = 10.0

     negative rho (up, down):  4.789E-05 0.000E+00

     total cpu time spent up to now is    12482.2 secs

     total energy              =   -4097.44698523 Ry
     estimated scf accuracy    <       0.00000009 Ry

     iteration # 25     ecut=   150.00 Ry     beta= 0.70
     Davidson diagonalization with overlap
     ethr =  1.78E-11,  avg # of iterations = 10.0

     negative rho (up, down):  4.790E-05 0.000E+00

     total cpu time spent up to now is    13270.4 secs

     total energy              =   -4097.44698535 Ry
     estimated scf accuracy    <       0.00000019 Ry

     iteration # 26     ecut=   150.00 Ry     beta= 0.70
     Davidson diagonalization with overlap
     ethr =  1.78E-11,  avg # of iterations =  2.0

     negative rho (up, down):  4.790E-05 0.000E+00

     total cpu time spent up to now is    13443.3 secs

     total energy              =   -4097.44698531 Ry
     estimated scf accuracy    <       0.00000010 Ry

     iteration # 27     ecut=   150.00 Ry     beta= 0.70
     Davidson diagonalization with overlap
     ethr =  1.78E-11,  avg # of iterations =  8.0

     negative rho (up, down):  4.790E-05 0.000E+00

     total cpu time spent up to now is    14125.5 secs

     total energy              =   -4097.44698535 Ry
     estimated scf accuracy    <       0.00000003 Ry

     iteration # 28     ecut=   150.00 Ry     beta= 0.70
     Davidson diagonalization with overlap
     ethr =  6.50E-12,  avg # of iterations =  2.0

     negative rho (up, down):  4.790E-05 0.000E+00

     total cpu time spent up to now is    14293.4 secs

     total energy              =   -4097.44698534 Ry
     estimated scf accuracy    <       0.00000002 Ry

     iteration # 29     ecut=   150.00 Ry     beta= 0.70
     Davidson diagonalization with overlap
     ethr =  3.14E-12,  avg # of iterations = 10.0

     negative rho (up, down):  4.790E-05 0.000E+00

     total cpu time spent up to now is    14893.7 secs

     End of self-consistent calculation

          k = 0.0000 0.0000 0.0000 (241653 PWs)   bands (ev):

   -49.5774 -49.5597 -49.5597 -49.5597 -49.5509 -49.5509 -28.0287 -27.8909
   -27.8908 -27.8908 -27.7581 -27.7581 -27.7581 -27.6231 -27.6231 -27.5949
   -27.5949 -27.5949 -27.5779 -27.5779 -27.5779 -27.5279 -27.5279 -27.5279
   -22.7444 -22.6335 -22.6335 -22.6335 -22.6283 -22.6283 -22.5798 -22.5798
   -22.5798 -22.5645 -22.5645 -22.5645 -20.4106 -20.4106 -20.4106 -20.4089
   -20.4089 -20.3206 -20.3206 -20.3206 -20.3114 -20.2960 -20.2959 -20.2959
   -20.1011 -19.9410 -19.9409 -19.9409 -17.7273 -17.6149 -17.6147 -17.6146
   -17.2220 -17.2220 -17.2189 -17.2189 -17.2189 -17.2165 -14.8543 -14.8543
   -14.8543 -14.8456 -14.8456 -14.8455 -14.3306 -14.3306 -14.3306 -14.3284
   -14.3284 -14.3284 -12.0925 -12.0579 -12.0579 -12.0231 -12.0231 -12.0230
   -10.8165 -10.8165 -10.8024 -10.8024 -10.8024 -10.7973 -10.0372 -10.0372
   -10.0372  -9.8285  -9.8285  -9.8285  -9.4680  -9.4112  -9.4112  -9.3998
    -9.3998  -9.3998  -8.6424  -8.5288  -8.5288  -8.5287  -8.3488  -8.3487
    -8.2387  -8.2387  -8.2387  -7.9630  -7.9630  -7.9630  -7.7596  -7.7596
    -7.7596  -7.7350  -7.6453  -7.6453  -7.5849  -7.5849  -7.5848  -7.5726
    -7.5726  -7.5725  -7.3680  -7.3680  -7.3679  -7.2488  -7.0092  -6.8546
    -6.8545  -6.8545  -6.7069  -6.7069  -6.6091  -6.6091  -6.6091  -6.5896
    -6.5896  -6.5896  -6.5879  -6.5879  -6.5879  -6.4898  -6.4898  -6.4898
    -6.4781  -6.4781  -6.4781  -6.4148  -6.4148  -6.4148  -6.0683  -6.0683
    -6.0683  -6.0450  -6.0450  -6.0450  -5.8004  -5.8004  -5.3570  -5.3173
    -5.3173  -5.3173  -5.1106  -5.1106  -5.1105  -4.8985  -4.8600  -4.8600
    -4.7747  -4.7747  -4.7747  -4.7013  -4.7013  -4.6299  -4.6299  -4.6299
    -4.2754  -4.0678  -4.0678  -4.0678  -4.0176  -4.0176  -4.0042  -4.0042
    -4.0042  -4.0012  -4.0012  -3.9777  -3.5021  -3.5020  -3.5020  -3.3944
    -3.3944  -3.3944  -3.1547  -3.1547  -3.1546  -3.1097  -3.1097  -3.0328
    -3.0328  -3.0328  -2.9468  -2.8859  -2.8858  -2.8858  -2.8797  -2.8797
    -2.8796  -2.8495  -2.8495  -2.7442  -2.7442  -2.7442  -2.5986  -2.5761
    -2.5761  -2.5761  -2.5165  -2.5165  -2.4845  -2.4844  -2.4844  -2.4553
    -2.3355  -2.3354  -2.3354  -2.2922  -2.2922  -2.2922  -2.2126  -2.2126
    -2.2126  -2.1983  -2.1983  -2.1983  -2.1465  -2.1465  -2.1465  -1.8950
    -1.8950  -1.8949

     highest occupied level (ev):    -1.8949

!    total energy              =   -4097.44698535 Ry
     total all-electron energy =    -51695.557855 Ry
     estimated scf accuracy    <          5.0E-09 Ry

     The total energy is the sum of the following terms:
     one-electron contribution =   -6733.17082189 Ry
     hartree contribution      =    3504.91843756 Ry
     xc contribution           =    -588.57964615 Ry
     ewald contribution        =    1582.25167563 Ry
     one-center paw contrib.   =   -1862.86663050 Ry

     convergence has been achieved in  29 iterations

     Writing all to output data dir ./pwscf.save/ :
     XML data file, charge density, pseudopotentials, collected wavefunctions

     init_run     :     70.26s CPU     85.08s WALL (       1 calls)
     electrons    :  12485.02s CPU  14808.01s WALL (       1 calls)

     Called by init_run:
     wfcinit      :     65.50s CPU     78.86s WALL (       1 calls)
     potinit      :      0.70s CPU      0.76s WALL (       1 calls)
     hinit0       :      0.68s CPU      0.74s WALL (       1 calls)

     Called by electrons:
     c_bands      :  12323.86s CPU  14588.50s WALL (      29 calls)
     sum_band     :    104.83s CPU    142.32s WALL (      29 calls)
     v_of_rho     :      8.43s CPU      9.34s WALL (      30 calls)
     newd         :     38.94s CPU     59.68s WALL (      30 calls)
     PAW_pot      :      4.20s CPU      4.20s WALL (      30 calls)
     mix_rho      :      2.47s CPU      2.58s WALL (      29 calls)

     Called by c_bands:
     init_us_2    :      2.64s CPU      2.86s WALL (      59 calls)
     regterg      :  12310.24s CPU  14572.81s WALL (      29 calls)

     Called by *egterg:
     rdiaghg      :   9783.05s CPU  11326.16s WALL (     230 calls)
     h_psi        :    434.01s CPU    549.89s WALL (     231 calls)
     s_psi        :     25.80s CPU     39.41s WALL (     231 calls)
     g_psi        :      0.42s CPU      0.43s WALL (     201 calls)

     Called by h_psi:
     h_psi:calbec :    238.01s CPU    321.31s WALL (     231 calls)
     vloc_psi     :    168.73s CPU    184.98s WALL (     231 calls)
     add_vuspsi   :     26.28s CPU     42.55s WALL (     231 calls)

     General routines
     calbec       :    276.03s CPU    372.66s WALL (     260 calls)
     fft          :     22.76s CPU     27.11s WALL (     328 calls)
     ffts         :      0.78s CPU      0.87s WALL (      59 calls)
     fftw         :    141.46s CPU    157.79s WALL (   28277 calls)
     interpolate  :      1.33s CPU      1.42s WALL (      30 calls)

     Parallel routines

     PWSCF        :      3h29m CPU      4h 8m WALL


   This run was terminated on:  13:12:17   7Jul2025            

=------------------------------------------------------------------------------=
   JOB DONE.
=------------------------------------------------------------------------------=
