
                                 *****************
                                 * O   R   C   A *
                                 *****************

                                            #,                                       
                                            ###                                      
                                            ####                                     
                                            #####                                    
                                            ######                                   
                                           ########,                                 
                                     ,,################,,,,,                         
                               ,,#################################,,                 
                          ,,##########################################,,             
                       ,#########################################, ''#####,          
                    ,#############################################,,   '####,        
                  ,##################################################,,,,####,       
                ,###########''''           ''''###############################       
              ,#####''   ,,,,##########,,,,          '''####'''          '####       
            ,##' ,,,,###########################,,,                        '##       
           ' ,,###''''                  '''############,,,                           
         ,,##''                                '''############,,,,        ,,,,,,###''
      ,#''                                            '''#######################'''  
     '                                                          ''''####''''         
             ,#######,   #######,   ,#######,      ##                                
            ,#'     '#,  ##    ##  ,#'     '#,    #''#        ,####,    ,#,          
            ##       ##  ##   ,#'  ##            #'  '#       #'       ,# #          
            ##       ##  #######   ##           ,######,      #####,      #          
            '#,     ,#'  ##    ##  '#,     ,#' ,#      #,     #,   #      #          
             '#######'   ##     ##  '#######'  #'      '#     '####' #    #          



                #########################################################
                #                        -***-                          #
                #          Department of theory and spectroscopy        #
                #                                                       #
                #                      Frank Neese                      #
                #                                                       #
                #     Directorship, Architecture, Infrastructure        #
                #                    SHARK, DRIVERS                     #
                #        Core code/Algorithms in most modules           #
                #                                                       #
                #        Max Planck Institute fuer Kohlenforschung      #
                #                Kaiser Wilhelm Platz 1                 #
                #                 D-45470 Muelheim/Ruhr                 #
                #                      Germany                          #
                #                                                       #
                #                  All rights reserved                  #
                #                        -***-                          #
                #########################################################


                         Program Version 6.1.0  -  RELEASE   -
                                (GIT: $679e74b$)
                          ($2025-06-10 18:02:51 +0200$)


 With contributions from (in alphabetic order):
[Max-Planck-Institut fuer Kohlenforschung]                               
  Daniel Aravena         : Magnetic Suceptibility                        
  Michael Atanasov       : Ab Initio Ligand Field Theory (pilot matlab implementation)
  Alexander A. Auer      : GIAO ZORA, VPT2 properties, NMR spectrum      
  Ute Becker             : All parallelization in ORCA, NUMFREQ, NUMCALC 
  Giovanni Bistoni       : ED, misc. LED, open-shell LED, HFLD           
  Dmytro Bykov           : pre 5.0 version of the SCF Hessian            
  Marcos Casanova-Páez   : Triplet and SCS-CIS(D). UHF-(DLPNO)-IP/EA/STEOM-CCSD. UHF-CVS-IP/STEOM-CCSD   
  Vijay G. Chilkuri      : MRCI spin determinant printing, contributions to CSF-ICE 
  Pauline Colinet        : FMM embedding                                 
  Dipayan Datta          : RHF DLPNO-CCSD density                        
  Achintya Kumar Dutta   : EOM-CC, STEOM-CC                              
  Nicolas Foglia         : Exact transition moments, OPA infrastructure, MCD improvements    
  Dmitry Ganyushin       : Spin-Orbit,Spin-Spin,Magnetic field MRCI      
  Miquel Garcia-Rates    : C-PCM and meta-GGA Hessian, CCSD/C-PCM, Gaussian charge scheme 
  Tiago L. C. Gouveia    : GS-ROHF, GS-ROCIS                             
  Yang Guo               : DLPNO-NEVPT2, F12-NEVPT2, CIM, IAO-localization        
  Andreas Hansen         : Spin unrestricted coupled pair/coupled cluster methods 
  Ingolf Harden          : AUTO-CI MPn and infrastructure                
  Benjamin Helmich-Paris : MC-RPA, TRAH-(SCF,CASSCF), AVAS, COSX integrals, SCF dyn. polar., MC-PDFT, srDFT 
  Lee Huntington         : MR-EOM, pCC                                   
  Robert Izsak           : Overlap fitted RIJCOSX, COSX-SCS-MP3, EOM     
  Riya Kayal             : Wick's Theorem for AUTO-CI, AUTO-CI UHF-CCSDT 
  Emily Kempfer          : AUTO-CI RHF CISDT and CCSDT, approximate NEVPT4
  Christian Kollmar      : KDIIS, OOCD, Brueckner-CCSD(T), CCSD density, CASPT2, CASPT2-K, improved NEVPT2 
  Axel Koslowski         : Symmetry handling                             
  Simone Kossmann        : meta-GGA functionals, TD-DFT gradient, OOMP2, (MP2 Hessian; deprecated post 5.0) 
  Lucas Lang             : DCDCAS, Hyperfine gauge corrections, ICE-SOC+SSC
  Marvin Lechner         : AUTO-CI (C++ implementation), FIC-MRCC        
  Spencer Leger          : CASSCF response                               
  Dagmar Lenk            : GEPOL surface, SMD, ORCA-2-JSON               
  Dimitrios Liakos       : Extrapolation schemes; Compound Job, Property file
  Dimitrios Manganas     : Further ROCIS development; embedding schemes. LFT, Crystal Embedding 
  Dimitrios Pantazis     : SARC Basis sets                               
  Anastasios Papadopoulos: AUTO-CI, single reference methods and gradients 
  Taras Petrenko         : pre 6.0 DFT Hessian and TD-DFT gradient,  ECA, NRVS 
  Petra Pikulova         : Analytic Raman intensities                    
  Peter Pinski           : DLPNO-MP2, DLPNO-MP2 Gradient                 
  Shashank Vittal Rao    : ES-AILFT, MagRelax                            
  Christoph Reimann      : Effective Core Potentials                     
  Marius Retegan         : Local ZFS, SOC                                
  Christoph Riplinger    : Optimizer, TS searches, QM/MM, DLPNO-CCSD(T), (RO)-DLPNO pert. Triples 
  Michael Roemelt        : Original ROCIS implementation, recursive CI coupling coefficients
  Masaaki Saitow         : Open-shell DLPNO-CCSD energy and density      
  Barbara Sandhoefer     : DKH picture change effects                    
  Yorick L. A. Schmerwitz: GMF and freeze-and-release deltaSCF, NEB S-IDPP initial path                    
  Kantharuban Sivalingam : CASSCF convergence/infrastructure, NEVPT2, NEVPT3, NEVPT4(SD), FIC-MRCI and CEPA variants
  Bernardo de Souza      : ESD, SOC TD-DFT                               
  Georgi L. Stoychev     : AutoAux, RI-MP2 NMR, DLPNO-MP2 response, X2C  
  Van Anh Tran           : RI-MP2 g-tensors                              
  Willem Van den Heuvel  : Paramagnetic NMR                              
  Zikuan Wang            : NOTCH, Electric field optimization            
  Frank Wennmohs         : Technical directorship and infrastructure     
  Hang Xu                : AUTO-CI-Response properties                   
                                                                         
[FACCTs GmbH]                                                            
  Markus Bursch, Nicolas Foglia, Miquel Garcia-Rates, Ingolf Harden, Hagen Neugebauer, Anastasios Papadopoulos, 
  Christoph Riplinger, Bernardo de Souza, Georgi L. Stoychev                                                    
                                                                 
  APM, various basis sets, CI-OPT, improved COSX, DLPNO-Multilevel,           
  DOCKER, DRACO, updates on ESD, Fragmentator, GOAT, IRC, LR-CPCM, L-BFGS, MBIS, meta-GGA TD-DFT gradient, ML-optimized integration grids, 
  MM, NACMEs, nearIR, NEB, NEB-TS, NL-DFT gradient (VV10), 2- and 3-layer-ONIOM, interface openCOSMO-RS, QMMM,   
  Crystal-QMMM, RESP, rigid body optimization, SF, symmetry and pop. for TD-DFT, various functionals, SOLVATOR                                   
                                                                         
[Other institutions]                                                     
  V. Asgeirsson          : NEB                                           
  Christoph Bannwarth    : sTDA-DFT, sTD-DFT, PBEh-3c, B97-3c, D3        
  Giovanni Bistoni       : ETS/NOCV, ADLD/ADEX, COVALED                  
  Martin Brehm           : Molecular dynamics                            
  Ronald Cardenas        : ETS/NOCV                                      
  Martina Colucci        : COVALED                                       
  Sebastian Ehlert       : rSCAN, r2SCAN, r2SCAN-3c, D4, dhf basis sets  
  Marvin Friede          : D4 for Fr, Ra, Ac-Lr                          
  Lars Goerigk           : TD-DFT with DH, B97 family of functionals     
  Stefan Grimme          : VdW corrections, initial TS optimization, DFT functionals, gCP, sTDA/sTD-DF 
  Waldemar Hujo          : DFT-NL                                        
  H. Jonsson             : NEB                                           
  Holger Kruse           : gCP                                           
  Marcel Mueller         : wB97X-3c, vDZP basis set                      
  Hagen Neugebauer       : wr2SCAN, Native XTB                           
  Gianluca Regni         : ADLD/ADEX                                     
  Tobias Risthaus        : pre 6.0 range-separated hybrid DFT and stability analysis
  Lukas Wittmann         : regularized MP2, r2SCAN double-hybrids, wr2SCAN        
                                                                         
We gratefully acknowledge several colleagues who have allowed us to      
interface, adapt or use parts of their codes:                            
  Ed Valeev, F. Pavosevic, A. Kumar             : LibInt (2-el integral package), F12 methods 
  Garnet Chan, S. Sharma, J. Yang, R. Olivares  : DMRG                   
  Ulf Ekstrom                                   : XCFun DFT Library      
  Mihaly Kallay                                 : mrcc  (arbitrary order and MRCC methods)
  Frank Weinhold                                : gennbo (NPA and NBO analysis)           
  Simon Mueller                                 : openCOSMO-RS                            
  Christopher J. Cramer and Donald G. Truhlar   : smd solvation model                     
  S Lehtola, MJT Oliveira, MAL Marques          : LibXC Library                           
  Liviu Ungur et al                             : ANISO software                          


 Your calculation uses the libint2 library for the computation of 2-el integrals
 For citations please refer to: http://libint.valeyev.net

 Your ORCA version has been built with support for libXC version: 7.0.0
 For citations please refer to: https://libxc.gitlab.io

 This ORCA versions uses:
   CBLAS   interface :  Fast vector & matrix operations
   LAPACKE interface :  Fast linear algebra routines
   SCALAPACK package :  Parallel linear algebra routines
   Shared memory     :  Shared parallel matrices
   BLAS/LAPACK       :  OpenBLAS 0.3.29  USE64BITINT DYNAMIC_ARCH NO_AFFINITY Bulldozer SINGLE_THREADED
        Core in use  :  Bulldozer
   Copyright (c) 2011-2014, The OpenBLAS Project


  ***********************************
  * Starting time: Wed Aug 13 01:42:51 2025
  * Host name:     chromium09
  * Process ID:    178985
  * Working dir.:  /local/scratch/mehlhorn/61845
  ***********************************



***************************************
The coordinates will be read from file: start.xyz
***************************************


Your calculation utilizes the geometrical counterpoise correction gCP
Please cite in your paper:
H.Kruse, S. Grimme J.Chem.Phys., 136, (2012), 154101 
   

Your calculation utilizes the atom-pairwise dispersion correction
with the Becke-Johnson damping scheme (D3BJ)


Warning: RI is on but no J-basis has been assigned. Assigning Def2/J (nothing to worry about!)
================================================================================

cite the ECPs for Zr [Def2-ECP] as follows:
Ce-Yb(ecp-28): M. Dolg, H. Stoll, H.Preuss, J. Chem. Phys., 1989, 90, 1730-1734.
Y-Cd(ecp-28), Hf-Hg(ecp-46): D. Andrae,U. Haeussermann, M. Dolg, H. Stoll, H. Preuss, Theor. Chim. Acta, 1990, 77, 123-141.
In-Sb(ecp-28), Tl-Bi(ecp-46): B. Metz, H. Stoll, M. Dolg, J. Chem. Phys., 2000, 113, 2563-2569.
Te-Xe(ecp-28), Po-Rn(ecp-46): K. A. Peterson, D. Figgen, E. Goll, H. Stoll, M. Dolg, J. Chem. Phys., 2003, 119, 11113-11123.
Rb(ecp-28), Cs(ecp-46): T. Leininger, A. Nicklass, W. Kuechle, H. Stoll, M. Dolg, A. Bergner, Chem. Phys. Lett., 1996, 255, 274-280.
Sr(ecp-28), Ba(ecp-46): M. Kaupp, P. V. Schleyer, H. Stoll and H. Preuss, J. Chem. Phys., 1991, 94, 1360-1366.
La(ecp-46): M. Dolg, H. Stoll, A. Savin, H. Preuss, Theor. Chim. Acta, 1989, 75, 173-194.
Lu(ecp-28): X. Cao, M. Dolg, J. Chem. Phys., 2001, 115, 7348-7355.

ECP parameters for Zr [Def2-ECP] have been obtained from:
TURBOMOLE (7.0.2)

----- Orbital basis set information -----
Your calculation utilizes the basis: def2-SV(P)
   F. Weigend and R. Ahlrichs, Phys. Chem. Chem. Phys. 7, 3297 (2005).

----- AuxJ basis set information -----
Your calculation utilizes the auxiliary basis: def2/J
   H-Rn: F. Weigend, Phys. Chem. Chem. Phys. 8, 1057 (2006).
   Fr-Lr: K. Eichkorn, F. Weigend, O. Treutler, R. Ahlrichs; Theor. Chem. Acc. 97, 119 (1997).

================================================================================
                                        WARNINGS
                       Please study these warnings very carefully!
================================================================================


WARNING: Gradients are needed
  ===> : At least TightSCF should be used for SCF convergence

WARNING: Geometry Optimization
  ===> : Switching off AutoStart
         For restart on a previous wavefunction, please use MOREAD

================================================================================
                                       INPUT FILE
================================================================================
NAME = run.inp
|  1> # Geometry optimization for (AlH3)n cluster
|  2> 
|  3> %pal nprocs 24  end
|  4> 
|  5> %geom MaxIter 500 end
|  6> 
|  7> 
|  8> ! PBE def2-SV(P)
|  9> ! RKS	# closed shell for AlH3
| 10> ! D3    #  dispersion correction
| 11> ! gCP(DFT/SV(P))
| 12> ! Freq 	# Frequency analysis to check the stabiltity of the structures
| 13> 
| 14> ! NoPop # population analysis not necessary	
| 15> 
| 16> ! DEFGRID2
| 17> ! NormalSCF
| 18> ! SloppyOpt
| 19> 
| 20> ! SmallPrint
| 21> 
| 22> 
| 23> * xyzFile 0 1 start.xyz # only maingroup elements H and Al so there should be no net spin
| 24> 
| 25>                          ****END OF INPUT****
================================================================================

                       *****************************
                       * Geometry Optimization Run *
                       *****************************

Geometry optimization settings:
Update method            Update   .... BFGS
Choice of coordinates    CoordSys .... (2022) Redundant Internals
Initial Hessian          InHess   .... Almloef's Model
Max. no of cycles        MaxIter  .... 500

Convergence Tolerances:
Energy Change            TolE     ....  8.0000e-05 Eh
Max. Gradient            TolMAXG  ....  5.0000e-03 Eh/bohr
RMS Gradient             TolRMSG  ....  1.0000e-03 Eh/bohr
Max. Displacement        TolMAXD  ....  3.0000e-02 bohr
RMS Displacement         TolRMSD  ....  2.0000e-02 bohr
Strict Convergence                .... False

------------------------------------------------------------------------------
                        ORCA OPTIMIZATION COORDINATE SETUP
------------------------------------------------------------------------------

The optimization will be done in redundant internal coordinates (2022)
Making redundant internal coordinates   ...  (2022 redundants) done
Evaluating the initial hessian          ...  (Almloef) done
Evaluating the coordinates              ...  done
Calculating the B-matrix                .... done
Calculating the G-matrix                .... done
The number of degrees of freedom        .... 1082

    -----------------------------------------------------------------
                    Redundant Internal Coordinates


    -----------------------------------------------------------------
         Definition                    Initial Value    Approx d2E/dq
    -----------------------------------------------------------------
      1. B(Zr  2,Zr  1)                  3.4111         0.038153   
      2. B(Zr  3,Zr  0)                  3.3619         0.045706   
      3. B(Zr  4,Zr  1)                  3.4275         0.035921   
      4. B(Zr  4,Zr  3)                  3.4139         0.037752   
      5. B(Zr  5,Zr  0)                  3.4271         0.035969   
      6. B(Zr  5,Zr  2)                  3.3616         0.045759   
      7. B(O   6,Zr  3)                  2.1858         0.304384   
      8. B(O   6,Zr  0)                  2.1098         0.402311   
      9. B(O   6,Zr  5)                  2.1543         0.341681   
     10. B(O   7,Zr  4)                  2.1149         0.394937   
     11. B(O   7,Zr  1)                  2.0982         0.419825   
     12. B(O   7,Zr  2)                  2.1493         0.348059   
     13. B(O   8,Zr  2)                  2.1340         0.368188   
     14. B(O   8,Zr  1)                  2.1121         0.398989   
     15. B(O   8,Zr  5)                  2.0810         0.447199   
     16. B(O   9,Zr  4)                  2.1124         0.398467   
     17. B(O   9,Zr  0)                  2.0875         0.436640   
     18. B(O   9,Zr  3)                  2.1226         0.383857   
     19. B(O  10,Zr  3)                  2.1501         0.347028   
     20. B(O  10,Zr  4)                  2.1006         0.416131   
     21. B(O  10,Zr  1)                  2.1226         0.383935   
     22. B(O  11,Zr  2)                  2.1860         0.304076   
     23. B(O  11,Zr  0)                  2.1572         0.338087   
     24. B(O  11,Zr  5)                  2.1143         0.395807   
     25. B(O  12,Zr  0)                  1.9947         0.614165   
     26. B(O  13,Zr  0)                  1.9781         0.652705   
     27. B(O  14,Zr  0)                  1.9921         0.619949   
     28. B(O  15,Zr  0)                  2.0699         0.465899   
     29. B(O  16,Zr  1)                  2.0560         0.490229   
     30. B(O  17,Zr  1)                  2.0258         0.547721   
     31. B(O  18,Zr  1)                  1.9908         0.623010   
     32. B(O  19,Zr  1)                  1.9928         0.618467   
     33. B(O  20,Zr  2)                  1.9749         0.660372   
     34. B(O  21,Zr  2)                  2.0420         0.516190   
     35. B(O  22,Zr  2)                  1.9853         0.635767   
     36. B(O  23,Zr  2)                  2.0680         0.469203   
     37. B(O  24,Zr  3)                  2.0419         0.516373   
     38. B(O  25,Zr  3)                  1.9747         0.660939   
     39. B(O  26,Zr  3)                  2.0641         0.475855   
     40. B(O  27,Zr  3)                  1.9807         0.646549   
     41. B(O  28,Zr  4)                  1.9836         0.639671   
     42. B(O  29,Zr  4)                  2.0519         0.497690   
     43. B(O  30,Zr  4)                  1.9930         0.617856   
     44. B(O  31,Zr  4)                  2.0401         0.519743   
     45. B(O  32,Zr  5)                  1.9938         0.616122   
     46. B(O  33,Zr  5)                  1.9928         0.618448   
     47. B(O  34,Zr  5)                  2.0709         0.464134   
     48. B(O  35,Zr  5)                  1.9799         0.648514   
     49. B(C  36,O  33)                  1.3021         0.772971   
     50. B(C  36,O  12)                  1.3022         0.772666   
     51. B(C  37,O  25)                  1.2989         0.782050   
     52. B(C  37,O  13)                  1.2982         0.784054   
     53. B(C  38,O  21)                  1.2954         0.792091   
     54. B(C  38,O  14)                  1.2946         0.794441   
     55. B(C  39,O  29)                  1.2970         0.787367   
     56. B(C  39,O  15)                  1.2969         0.787874   
     57. B(C  40,O  16)                  1.2968         0.788139   
     58. B(C  40,O  34)                  1.2966         0.788745   
     59. B(C  41,O  26)                  1.2992         0.781240   
     60. B(C  41,O  17)                  1.3010         0.775877   
     61. B(C  42,O  18)                  1.3007         0.776872   
     62. B(C  42,O  22)                  1.3018         0.773868   
     63. B(C  43,O  19)                  1.3017         0.773984   
     64. B(C  43,O  30)                  1.3019         0.773571   
     65. B(C  44,O  35)                  1.2986         0.782771   
     66. B(C  44,O  20)                  1.2988         0.782258   
     67. B(C  45,O  31)                  1.3017         0.774005   
     68. B(C  45,O  23)                  1.2995         0.780368   
     69. B(C  46,O  32)                  1.2947         0.794141   
     70. B(C  46,O  24)                  1.2955         0.791867   
     71. B(C  47,O  27)                  1.3006         0.777275   
     72. B(C  47,O  28)                  1.2997         0.779727   
     73. B(H  48,C  41)                  1.0880         0.362701   
     74. B(H  49,C  42)                  1.0918         0.357779   
     75. B(H  50,C  38)                  1.0856         0.365977   
     76. B(H  51,C  37)                  1.0902         0.359876   
     77. B(H  52,C  43)                  1.0915         0.358076   
     78. B(H  53,C  47)                  1.0912         0.358534   
     79. B(H  54,C  39)                  1.0848         0.366992   
     80. B(H  55,C  45)                  1.0878         0.362993   
     81. B(H  56,C  40)                  1.0847         0.367181   
     82. B(H  57,C  46)                  1.0857         0.365897   
     83. B(H  58,C  36)                  1.0919         0.357543   
     84. B(H  59,C  44)                  1.0901         0.359952   
     85. B(Al 61,Al 60)                  2.6935         0.255461   
     86. B(H  62,H  48)                  2.6517         0.010000   
     87. B(H  62,O  26)                  2.4515         0.010000   
     88. B(H  62,Al 61)                  1.6760         0.293175   
     89. B(H  62,C  41)                  2.9791         0.010000   
     90. B(H  63,H  48)                  2.7795         0.010000   
     91. B(H  63,Al 61)                  1.6130         0.369445   
     92. B(H  63,H  57)                  3.0870         0.010000   
     93. B(H  63,C  41)                  3.0749         0.010000   
     94. B(H  63,O  26)                  3.0030         0.010000   
     95. B(H  63,O  24)                  2.9928         0.010000   
     96. B(H  64,O  24)                  2.4217         0.010000   
     97. B(H  64,Al 61)                  1.6773         0.291767   
     98. B(H  64,Al 60)                  1.6670         0.303024   
     99. B(H  64,C  46)                  3.0628         0.010000   
    100. B(H  64,H  57)                  2.8381         0.010000   
    101. B(H  65,O  25)                  2.7833         0.010000   
    102. B(H  65,H  51)                  2.5596         0.010000   
    103. B(H  65,Al 60)                  1.6032         0.383052   
    104. B(H  65,C  37)                  2.8768         0.010000   
    105. B(H  66,O  25)                  2.6000         0.010000   
    106. B(H  66,Al 60)                  1.6742         0.295115   
    107. B(H  66,H  51)                  3.0060         0.010000   
    108. B(H  67,Al 61)                  1.6144         0.367604   
    109. B(Al 68,H  62)                  1.6670         0.302958   
    110. B(Al 68,Al 61)                  2.6990         0.250291   
    111. B(H  69,O  27)                  2.8145         0.010000   
    112. B(H  69,Al 68)                  1.6745         0.294773   
    113. B(H  70,H  53)                  2.5985         0.010000   
    114. B(H  70,Al 68)                  1.6031         0.383234   
    115. B(H  70,O  27)                  3.0580         0.010000   
    116. B(H  70,O  26)                  2.9211         0.010000   
    117. B(H  70,C  47)                  2.9047         0.010000   
    118. B(H  71,Al 60)                  1.6056         0.379683   
    119. B(Al 72,H  69)                  1.6919         0.276487   
    120. B(Al 72,Al 68)                  3.3197         0.025600   
    121. B(Al 72,H  66)                  1.6922         0.276236   
    122. B(Al 72,Al 60)                  3.3341         0.024275   
    123. B(H  73,H  51)                  2.6589         0.010000   
    124. B(H  73,Al 72)                  1.6916         0.276857   
    125. B(H  73,C  37)                  3.0167         0.010000   
    126. B(H  73,O  25)                  2.9472         0.010000   
    127. B(H  74,Al 72)                  1.6122         0.370507   
    128. B(H  75,Al 68)                  1.6041         0.381824   
    129. B(Al 76,H  73)                  1.6714         0.298180   
    130. B(Al 76,Al 72)                  2.6510         0.298590   
    131. B(H  77,Al 76)                  1.6014         0.385500   
    132. B(H  78,H  53)                  2.7678         0.010000   
    133. B(H  78,O  27)                  2.7219         0.010000   
    134. B(H  78,Al 76)                  1.6711         0.298500   
    135. B(H  78,Al 72)                  1.6912         0.277249   
    136. B(H  78,C  47)                  3.1249         0.010000   
    137. B(H  79,C  37)                  2.7740         0.010000   
    138. B(H  79,C  39)                  2.7252         0.010000   
    139. B(H  79,O  25)                  2.6612         0.010000   
    140. B(H  79,O  15)                  2.5895         0.010000   
    141. B(H  79,O  27)                  2.4528         0.010000   
    142. B(H  79,Al 76)                  1.6008         0.386438   
    143. B(H  79,C  47)                  3.0914         0.010000   
    144. B(H  79,H  54)                  3.0265         0.010000   
    145. A(Zr  3,Zr  0,O   9)           37.3724         0.349731   
    146. A(O  11,Zr  0,O  14)           74.6206         0.485566   
    147. A(O   9,Zr  0,O  12)          156.8643         0.508314   
    148. A(O  12,Zr  0,O  14)           85.3943         0.542936   
    149. A(Zr  3,Zr  0,O  15)           88.4045         0.353587   
    150. A(O   9,Zr  0,O  11)           84.6398         0.455319   
    151. A(O   9,Zr  0,O  13)          105.2869         0.514130   
    152. A(O   6,Zr  0,O  12)           92.0951         0.500614   
    153. A(Zr  5,Zr  0,O  15)          155.8434         0.339622   
    154. A(O  12,Zr  0,O  13)           81.2702         0.548257   
    155. A(O  12,Zr  0,O  15)          132.6671         0.514515   
    156. A(Zr  3,Zr  0,O  13)           76.1463         0.374568   
    157. A(O  13,Zr  0,O  15)           81.2316         0.520417   
    158. A(Zr  5,Zr  0,O  13)          106.7427         0.359495   
    159. A(Zr  5,Zr  0,O  12)           71.4864         0.355795   
    160. A(Zr  5,Zr  0,O   6)           36.9592         0.331434   
    161. A(O  11,Zr  0,O  13)          141.8395         0.490214   
    162. A(O   6,Zr  0,O  11)           69.4338         0.448592   
    163. A(O  11,Zr  0,O  15)          135.7976         0.460736   
    164. A(Zr  3,Zr  0,O  12)          128.7486         0.370661   
    165. A(Zr  5,Zr  0,O  14)          109.5879         0.356361   
    166. A(O   6,Zr  0,O  15)          127.3641         0.475662   
    167. A(Zr  3,Zr  0,O  14)          140.9732         0.371259   
    168. A(O  13,Zr  0,O  14)          134.6613         0.549233   
    169. A(Zr  3,Zr  0,O   6)           39.3101         0.344943   
    170. A(Zr  5,Zr  0,O   9)           85.3966         0.335969   
    171. A(Zr  5,Zr  0,O  11)           36.2208         0.322076   
    172. A(O   9,Zr  0,O  14)          103.7859         0.509204   
    173. A(Zr  3,Zr  0,O  11)           93.2659         0.335064   
    174. A(O   9,Zr  0,O  15)           70.4586         0.482895   
    175. A(O   6,Zr  0,O  14)          143.6041         0.501488   
    176. A(O  11,Zr  0,O  12)           77.3092         0.484725   
    177. A(O  14,Zr  0,O  15)           76.6593         0.515418   
    178. A(O   6,Zr  0,O  13)           80.2871         0.506323   
    179. A(O   6,Zr  0,O   9)           67.8078         0.470027   
    180. A(Zr  3,Zr  0,Zr  5)           72.0556         0.254894   
    181. A(Zr  2,Zr  1,O   7)           37.0890         0.337071   
    182. A(Zr  2,Zr  1,O   8)           36.7681         0.334229   
    183. A(O   8,Zr  1,O  19)          155.6389         0.500492   
    184. A(Zr  2,Zr  1,O  16)           91.1580         0.345930   
    185. A(Zr  2,Zr  1,O  17)          143.8180         0.352461   
    186. A(Zr  4,Zr  1,O  18)          107.0915         0.356578   
    187. A(Zr  2,Zr  1,Zr  4)           68.8006         0.248200   
    188. A(O  16,Zr  1,O  18)           80.2840         0.520841   
    189. A(O  10,Zr  1,O  19)           77.1271         0.496925   
    190. A(Zr  2,Zr  1,O  18)           74.1316         0.360254   
    191. A(O   7,Zr  1,O  19)           90.8950         0.505260   
    192. A(O  16,Zr  1,O  17)           79.3554         0.508434   
    193. A(O   7,Zr  1,O  17)          141.2499         0.493971   
    194. A(O  10,Zr  1,O  17)           73.1334         0.485862   
    195. A(Zr  2,Zr  1,O  19)          125.0242         0.359805   
    196. A(O  16,Zr  1,O  19)          132.8656         0.520126   
    197. A(O   7,Zr  1,O  10)           68.3251         0.462680   
    198. A(O  17,Zr  1,O  19)           84.3223         0.531084   
    199. A(O  10,Zr  1,O  16)          136.6962         0.476025   
    200. A(Zr  4,Zr  1,O   8)           83.8774         0.330906   
    201. A(Zr  4,Zr  1,O  10)           35.5356         0.328809   
    202. A(Zr  4,Zr  1,O  16)          154.8772         0.342448   
    203. A(O  18,Zr  1,O  19)           82.1470         0.544161   
    204. A(O   8,Zr  1,O  10)           86.3738         0.458399   
    205. A(O   8,Zr  1,O  16)           71.0764         0.479409   
    206. A(Zr  2,Zr  1,O  10)           91.8230         0.332104   
    207. A(Zr  4,Zr  1,O   7)           35.7200         0.333709   
    208. A(O   7,Zr  1,O  18)           80.0945         0.505950   
    209. A(O  10,Zr  1,O  18)          141.5369         0.497602   
    210. A(Zr  4,Zr  1,O  17)          107.5725         0.348890   
    211. A(O   7,Zr  1,O   8)           66.1541         0.465947   
    212. A(O   7,Zr  1,O  16)          128.0156         0.483933   
    213. A(O  17,Zr  1,O  18)          136.5998         0.531817   
    214. A(Zr  4,Zr  1,O  19)           72.2560         0.356135   
    215. A(O   8,Zr  1,O  18)          100.7921         0.501174   
    216. A(O   8,Zr  1,O  17)          108.1009         0.489332   
    217. A(O   8,Zr  2,O  21)          134.4524         0.476878   
    218. A(O   7,Zr  2,O  11)           99.4242         0.428742   
    219. A(O   8,Zr  2,O  23)          132.2102         0.468589   
    220. A(Zr  1,Zr  2,O  20)          129.4065         0.363853   
    221. A(Zr  1,Zr  2,Zr  5)           72.8538         0.257166   
    222. A(O  20,Zr  2,O  22)           82.4291         0.553090   
    223. A(Zr  1,Zr  2,O  22)           69.9287         0.361501   
    224. A(O  22,Zr  2,O  23)           83.4075         0.518543   
    225. A(Zr  5,Zr  2,O  21)          107.2092         0.359868   
    226. A(Zr  5,Zr  2,O   7)           96.3489         0.336753   
    227. A(O  11,Zr  2,O  20)           79.9920         0.481738   
    228. A(Zr  5,Zr  2,O  11)           37.8263         0.329292   
    229. A(O   7,Zr  2,O  23)           68.7193         0.463789   
    230. A(O  21,Zr  2,O  23)           73.4530         0.498757   
    231. A(Zr  1,Zr  2,O  23)           96.7053         0.343394   
    232. A(Zr  1,Zr  2,O  21)          143.9223         0.348949   
    233. A(O   8,Zr  2,O  11)           65.5453         0.433093   
    234. A(Zr  5,Zr  2,O  20)           74.1797         0.375399   
    235. A(O  20,Zr  2,O  21)           82.5345         0.531712   
    236. A(O  20,Zr  2,O  23)          121.8454         0.522251   
    237. A(Zr  1,Zr  2,O   8)           36.3306         0.329810   
    238. A(Zr  1,Zr  2,O   7)           36.0674         0.326765   
    239. A(O  21,Zr  2,O  22)          139.7460         0.527923   
    240. A(Zr  1,Zr  2,O  11)           95.8744         0.319605   
    241. A(Zr  5,Zr  2,O  22)          104.1801         0.372948   
    242. A(Zr  5,Zr  2,O   8)           36.5646         0.339926   
    243. A(O   7,Zr  2,O  22)           89.4596         0.490466   
    244. A(O   7,Zr  2,O   8)           64.8881         0.443777   
    245. A(O  11,Zr  2,O  21)           70.9940         0.460440   
    246. A(O   8,Zr  2,O  22)           85.2941         0.495608   
    247. A(O  11,Zr  2,O  22)          141.4372         0.478377   
    248. A(O   8,Zr  2,O  20)          102.2757         0.499117   
    249. A(Zr  5,Zr  2,O  23)          163.4636         0.354080   
    250. A(O  11,Zr  2,O  23)          134.7988         0.452503   
    251. A(O   7,Zr  2,O  21)          111.1465         0.471973   
    252. A(O   7,Zr  2,O  20)          165.4734         0.493932   
    253. A(O   9,Zr  3,O  10)           65.3955         0.446899   
    254. A(Zr  4,Zr  3,O  10)           36.0771         0.326039   
    255. A(Zr  4,Zr  3,O  25)          127.5176         0.363252   
    256. A(O  10,Zr  3,O  27)           87.8886         0.491727   
    257. A(O  24,Zr  3,O  25)           82.1849         0.531833   
    258. A(O   6,Zr  3,O  24)           70.6293         0.460555   
    259. A(Zr  4,Zr  3,O   6)           95.7681         0.319108   
    260. A(O  26,Zr  3,O  27)           82.5225         0.521558   
    261. A(O  25,Zr  3,O  27)           82.4955         0.554950   
    262. A(O  25,Zr  3,O  26)          122.5777         0.523718   
    263. A(O  24,Zr  3,O  26)           73.2338         0.500097   
    264. A(O  10,Zr  3,O  26)           68.8728         0.464733   
    265. A(Zr  0,Zr  3,O  25)           73.3830         0.375379   
    266. A(Zr  4,Zr  3,O  26)           97.9579         0.343597   
    267. A(O   6,Zr  3,O   9)           65.8182         0.436434   
    268. A(Zr  0,Zr  3,O  26)          163.1454         0.354856   
    269. A(Zr  4,Zr  3,O   9)           36.1813         0.331513   
    270. A(O   9,Zr  3,O  25)          100.5818         0.503085   
    271. A(O   6,Zr  3,O  25)           80.3190         0.481904   
    272. A(O  10,Zr  3,O  24)          113.6472         0.471747   
    273. A(O   9,Zr  3,O  24)          135.0626         0.480585   
    274. A(Zr  0,Zr  3,O   9)           36.6527         0.342237   
    275. A(Zr  4,Zr  3,O  24)          145.8613         0.348350   
    276. A(Zr  0,Zr  3,O  24)          106.3132         0.359819   
    277. A(Zr  0,Zr  3,O  10)           96.8508         0.336522   
    278. A(O   9,Zr  3,O  26)          133.2366         0.473409   
    279. A(Zr  0,Zr  3,O   6)           37.6988         0.329284   
    280. A(Zr  4,Zr  3,O  27)           70.3875         0.361888   
    281. A(O  24,Zr  3,O  27)          137.6917         0.529632   
    282. A(Zr  0,Zr  3,O  27)          106.5939         0.373956   
    283. A(O   6,Zr  3,O  10)          100.2074         0.428592   
    284. A(O   9,Zr  3,O  27)           86.5347         0.501027   
    285. A(O   6,Zr  3,O  26)          133.3927         0.453746   
    286. A(Zr  0,Zr  3,Zr  4)           72.7546         0.256721   
    287. A(O  10,Zr  3,O  25)          163.5559         0.493738   
    288. A(O   6,Zr  3,O  27)          143.7807         0.479951   
    289. A(O   7,Zr  4,O  10)           68.4244         0.464326   
    290. A(O   9,Zr  4,O  10)           66.4423         0.465082   
    291. A(Zr  3,Zr  4,O  30)          124.1143         0.359099   
    292. A(Zr  3,Zr  4,O  28)           74.7663         0.361229   
    293. A(O  10,Zr  4,O  29)          129.2247         0.484494   
    294. A(O  28,Zr  4,O  31)          136.1237         0.529214   
    295. A(O  10,Zr  4,O  31)          140.7059         0.488394   
    296. A(O   9,Zr  4,O  31)          109.5192         0.484492   
    297. A(O  28,Zr  4,O  29)           80.7439         0.524916   
    298. A(Zr  1,Zr  4,O  31)          106.2940         0.345824   
    299. A(O  29,Zr  4,O  30)          133.2331         0.521506   
    300. A(O   9,Zr  4,O  30)          155.1453         0.500278   
    301. A(Zr  1,Zr  4,O  28)          108.3271         0.358181   
    302. A(Zr  1,Zr  4,O  29)          154.8133         0.343316   
    303. A(O   9,Zr  4,O  29)           71.1143         0.480630   
    304. A(O   7,Zr  4,O  29)          134.9583         0.479842   
    305. A(Zr  3,Zr  4,O  29)           92.3799         0.346196   
    306. A(O   7,Zr  4,O   9)           86.1871         0.460659   
    307. A(Zr  1,Zr  4,O  30)           71.9165         0.356075   
    308. A(Zr  3,Zr  4,O   9)           36.3833         0.333572   
    309. A(Zr  3,Zr  4,O   7)           91.0460         0.333080   
    310. A(Zr  3,Zr  4,O  10)           37.0658         0.335985   
    311. A(Zr  1,Zr  4,O   9)           84.0200         0.330834   
    312. A(O  29,Zr  4,O  31)           79.2745         0.504905   
    313. A(O  28,Zr  4,O  30)           82.1328         0.546786   
    314. A(Zr  1,Zr  4,O  10)           35.9638         0.333220   
    315. A(O  10,Zr  4,O  30)           89.8140         0.504335   
    316. A(Zr  1,Zr  4,Zr  3)           68.5698         0.247820   
    317. A(Zr  3,Zr  4,O  31)          144.3987         0.348732   
    318. A(O   7,Zr  4,O  31)           72.3290         0.483696   
    319. A(O  30,Zr  4,O  31)           83.8216         0.525771   
    320. A(O   7,Zr  4,O  28)          142.8264         0.502686   
    321. A(O  10,Zr  4,O  28)           80.5928         0.507610   
    322. A(Zr  1,Zr  4,O   7)           35.3966         0.330348   
    323. A(O   9,Zr  4,O  28)          100.1653         0.503520   
    324. A(O   7,Zr  4,O  30)           77.8717         0.499450   
    325. A(O  32,Zr  5,O  33)           85.5124         0.543014   
    326. A(O  11,Zr  5,O  32)          143.5803         0.499394   
    327. A(O  32,Zr  5,O  34)           76.9726         0.514455   
    328. A(O  34,Zr  5,O  35)           80.8685         0.519418   
    329. A(O   8,Zr  5,O  35)          105.2093         0.515812   
    330. A(O  11,Zr  5,O  35)           79.9831         0.504181   
    331. A(O   8,Zr  5,O  32)          103.4075         0.510891   
    332. A(Zr  2,Zr  5,O  35)           75.5268         0.374227   
    333. A(O   8,Zr  5,O  34)           70.5414         0.484690   
    334. A(O   6,Zr  5,O  34)          135.7710         0.461307   
    335. A(O  11,Zr  5,O  33)           92.0908         0.499744   
    336. A(O   8,Zr  5,O  33)          156.5589         0.511251   
    337. A(O   6,Zr  5,O  33)           77.5407         0.486298   
    338. A(Zr  2,Zr  5,O  33)          128.7406         0.371179   
    339. A(Zr  0,Zr  5,O  33)           71.5889         0.356215   
    340. A(Zr  0,Zr  5,O  32)          109.4296         0.355987   
    341. A(Zr  2,Zr  5,O   6)           93.2252         0.335718   
    342. A(O   6,Zr  5,O   8)           83.9340         0.458188   
    343. A(O  11,Zr  5,O  34)          126.9869         0.473907   
    344. A(O   6,Zr  5,O  32)           74.6181         0.485959   
    345. A(O  33,Zr  5,O  35)           81.7329         0.548310   
    346. A(O   6,Zr  5,O  35)          141.9890         0.490590   
    347. A(Zr  0,Zr  5,O   8)           84.9786         0.337309   
    348. A(Zr  2,Zr  5,O   8)           37.6530         0.351214   
    349. A(Zr  0,Zr  5,O   6)           36.0745         0.322635   
    350. A(Zr  0,Zr  5,O  35)          106.8844         0.359101   
    351. A(O   8,Zr  5,O  11)           67.7598         0.470683   
    352. A(O   6,Zr  5,O  11)           69.4077         0.448127   
    353. A(O  33,Zr  5,O  34)          132.8946         0.514818   
    354. A(Zr  2,Zr  5,O  11)           39.3523         0.344068   
    355. A(Zr  2,Zr  5,O  32)          140.9212         0.370938   
    356. A(Zr  0,Zr  5,O  11)           37.0772         0.330542   
    357. A(Zr  0,Zr  5,O  34)          155.5157         0.339406   
    358. A(Zr  2,Zr  5,O  34)           87.9848         0.353429   
    359. A(O  32,Zr  5,O  35)          135.1093         0.547918   
    360. A(Zr  0,Zr  5,Zr  2)           72.1656         0.254938   
    361. A(Zr  0,O   6,Zr  3)          102.9911         0.440146   
    362. A(Zr  0,O   6,Zr  5)          106.9663         0.449454   
    363. A(Zr  3,O   6,Zr  5)          133.8935         0.427401   
    364. A(Zr  2,O   7,Zr  4)          129.9336         0.449454   
    365. A(Zr  1,O   7,Zr  4)          108.8834         0.465077   
    366. A(Zr  1,O   7,Zr  2)          106.8436         0.454474   
    367. A(Zr  1,O   8,Zr  5)          147.1257         0.471375   
    368. A(Zr  2,O   8,Zr  5)          105.7824         0.464485   
    369. A(Zr  1,O   8,Zr  2)          106.9013         0.454914   
    370. A(Zr  3,O   9,Zr  4)          107.4354         0.458273   
    371. A(Zr  0,O   9,Zr  4)          146.2327         0.469200   
    372. A(Zr  0,O   9,Zr  3)          105.9749         0.465999   
    373. A(Zr  1,O  10,Zr  3)          128.8387         0.446916   
    374. A(Zr  1,O  10,Zr  4)          108.5006         0.461933   
    375. A(Zr  3,O  10,Zr  4)          106.8571         0.453499   
    376. A(Zr  2,O  11,Zr  5)          102.8213         0.438773   
    377. A(Zr  0,O  11,Zr  5)          106.7020         0.447268   
    378. A(Zr  0,O  11,Zr  2)          134.0409         0.426515   
    379. A(Zr  0,O  12,C  36)          126.8949         0.501133   
    380. A(Zr  0,O  13,C  37)          129.3292         0.508235   
    381. A(Zr  0,O  14,C  38)          138.1154         0.504614   
    382. A(Zr  0,O  15,C  39)          135.6530         0.477861   
    383. A(C  39,O  15,H  79)           81.7803         0.165565   
    384. A(Zr  0,O  15,H  79)          110.8837         0.167703   
    385. A(Zr  1,O  16,C  40)          139.8889         0.482397   
    386. A(Zr  1,O  17,C  41)          136.1601         0.490967   
    387. A(Zr  1,O  18,C  42)          125.4935         0.502977   
    388. A(Zr  1,O  19,C  43)          127.6260         0.501944   
    389. A(Zr  2,O  20,C  44)          132.4354         0.509127   
    390. A(Zr  2,O  21,C  38)          141.1122         0.487469   
    391. A(Zr  2,O  22,C  42)          129.7948         0.504516   
    392. A(Zr  2,O  23,C  45)          126.9911         0.477640   
    393. A(H  63,O  24,H  64)           43.9754         0.101740   
    394. A(C  46,O  24,H  64)          107.0308         0.177129   
    395. A(Zr  3,O  24,H  64)          111.0322         0.181618   
    396. A(C  46,O  24,H  63)           98.6374         0.143812   
    397. A(Zr  3,O  24,H  63)          115.5691         0.146603   
    398. A(Zr  3,O  24,C  46)          140.6259         0.487476   
    399. A(H  65,O  25,H  73)           89.3197         0.098796   
    400. A(H  73,O  25,H  79)           50.9477         0.099843   
    401. A(H  66,O  25,H  73)           50.5792         0.100409   
    402. A(C  37,O  25,H  73)           80.4323         0.145769   
    403. A(Zr  3,O  25,H  73)          131.5214         0.152267   
    404. A(H  65,O  25,H  79)          138.5096         0.101426   
    405. A(H  65,O  25,H  66)           55.0675         0.102074   
    406. A(C  37,O  25,H  65)           80.7829         0.154058   
    407. A(Zr  3,O  25,H  65)          124.2811         0.161505   
    408. A(H  66,O  25,H  79)           96.8719         0.103472   
    409. A(C  37,O  25,H  79)           81.0644         0.161011   
    410. A(Zr  3,O  25,H  79)           94.8913         0.169254   
    411. A(C  37,O  25,H  66)          108.5231         0.164770   
    412. A(Zr  3,O  25,H  66)          118.0594         0.173442   
    413. A(Zr  3,O  25,C  37)          133.3715         0.509183   
    414. A(H  63,O  26,H  70)           97.3127         0.097339   
    415. A(H  62,O  26,H  63)           44.5180         0.101323   
    416. A(Zr  3,O  26,C  41)          127.5482         0.478979   
    417. A(H  62,O  26,H  70)           52.8261         0.102191   
    418. A(C  41,O  26,H  70)          114.3303         0.147000   
    419. A(Zr  3,O  26,H  70)          112.8714         0.149021   
    420. A(C  41,O  26,H  62)          100.6505         0.174709   
    421. A(Zr  3,O  26,H  62)          125.9161         0.177695   
    422. A(C  41,O  26,H  63)           80.7744         0.143184   
    423. A(Zr  3,O  26,H  63)          114.4071         0.145072   
    424. A(H  69,O  27,H  78)           48.2108         0.100512   
    425. A(H  69,O  27,H  79)           96.5445         0.103398   
    426. A(C  47,O  27,H  69)          109.1897         0.152304   
    427. A(Zr  3,O  27,H  69)          105.4750         0.159297   
    428. A(H  78,O  27,H  79)           55.8523         0.104551   
    429. A(C  47,O  27,H  78)           95.3920         0.157373   
    430. A(Zr  3,O  27,H  78)          132.9849         0.164926   
    431. A(C  47,O  27,H  79)          106.8484         0.174516   
    432. A(Zr  3,O  27,H  79)          101.5060         0.183962   
    433. A(H  70,O  27,H  78)           82.6628         0.098402   
    434. A(H  69,O  27,H  70)           50.0439         0.097705   
    435. A(Zr  3,O  27,H  70)          110.3156         0.146411   
    436. A(C  47,O  27,H  70)           70.8788         0.140700   
    437. A(Zr  3,O  27,C  47)          131.6163         0.506516   
    438. A(H  70,O  27,H  79)          138.3910         0.100759   
    439. A(Zr  4,O  28,C  47)          126.5196         0.505803   
    440. A(Zr  4,O  29,C  39)          140.1675         0.483657   
    441. A(Zr  4,O  30,C  43)          127.9244         0.501802   
    442. A(Zr  4,O  31,C  45)          136.1692         0.486007   
    443. A(Zr  5,O  32,C  46)          138.1984         0.503997   
    444. A(Zr  5,O  33,C  36)          127.0454         0.501819   
    445. A(Zr  5,O  34,C  40)          136.6840         0.477624   
    446. A(Zr  5,O  35,C  44)          130.2410         0.507470   
    447. A(O  12,C  36,O  33)          127.1457         0.464007   
    448. A(O  33,C  36,H  58)          116.4183         0.363689   
    449. A(O  12,C  36,H  58)          116.4360         0.363665   
    450. A(O  13,C  37,O  25)          127.3548         0.466247   
    451. A(O  25,C  37,H  65)           72.7502         0.151442   
    452. A(O  13,C  37,H  65)          135.8671         0.151478   
    453. A(H  51,C  37,H  79)          104.0099         0.138754   
    454. A(O  25,C  37,H  79)           71.3839         0.157010   
    455. A(O  13,C  37,H  79)           95.3667         0.157050   
    456. A(O  25,C  37,H  51)          116.4456         0.364822   
    457. A(H  65,C  37,H  73)           86.2397         0.098205   
    458. A(O  25,C  37,H  73)           74.4440         0.144582   
    459. A(O  13,C  37,H  51)          116.1942         0.364982   
    460. A(H  65,C  37,H  79)          128.5854         0.100264   
    461. A(H  51,C  37,H  65)           62.3289         0.134681   
    462. A(H  73,C  37,H  79)           49.3159         0.099026   
    463. A(H  51,C  37,H  73)           60.6962         0.129662   
    464. A(O  13,C  37,H  73)          134.0192         0.144614   
    465. A(O  14,C  38,O  21)          129.0665         0.468467   
    466. A(O  14,C  38,H  50)          115.4691         0.366860   
    467. A(O  21,C  38,H  50)          115.4614         0.366674   
    468. A(O  15,C  39,O  29)          130.0587         0.467242   
    469. A(H  54,C  39,H  79)           95.3946         0.141044   
    470. A(O  29,C  39,H  79)          103.9042         0.159935   
    471. A(O  15,C  39,H  79)           70.1214         0.159945   
    472. A(O  29,C  39,H  54)          114.9355         0.366472   
    473. A(O  15,C  39,H  54)          114.9881         0.366513   
    474. A(O  16,C  40,O  34)          130.0871         0.467421   
    475. A(O  16,C  40,H  56)          114.9408         0.366566   
    476. A(O  34,C  40,H  56)          114.9625         0.366615   
    477. A(O  17,C  41,O  26)          129.4273         0.465265   
    478. A(O  26,C  41,H  62)           53.9715         0.146337   
    479. A(O  17,C  41,H  62)          170.2165         0.146247   
    480. A(H  48,C  41,H  62)           62.1643         0.131030   
    481. A(O  26,C  41,H  63)           74.5772         0.141947   
    482. A(O  17,C  41,H  63)          129.1148         0.141864   
    483. A(O  17,C  41,H  48)          115.2981         0.364816   
    484. A(H  62,C  41,H  63)           41.1255         0.097056   
    485. A(H  48,C  41,H  63)           64.1946         0.127812   
    486. A(O  26,C  41,H  48)          115.2716         0.365246   
    487. A(O  18,C  42,O  22)          126.8619         0.464567   
    488. A(O  22,C  42,H  49)          116.6077         0.363803   
    489. A(O  18,C  42,H  49)          116.5251         0.364044   
    490. A(O  19,C  43,H  52)          116.2072         0.363864   
    491. A(O  30,C  43,H  52)          116.2136         0.363830   
    492. A(O  19,C  43,O  30)          127.5792         0.464218   
    493. A(O  35,C  44,H  59)          116.2669         0.364893   
    494. A(O  20,C  44,H  59)          116.2331         0.364852   
    495. A(O  20,C  44,O  35)          127.5000         0.466130   
    496. A(O  31,C  45,H  55)          115.2524         0.364715   
    497. A(O  23,C  45,H  55)          115.0965         0.365226   
    498. A(O  23,C  45,O  31)          129.6454         0.464964   
    499. A(H  57,C  46,H  64)           67.8762         0.128283   
    500. A(O  24,C  46,H  64)           49.1135         0.142646   
    501. A(O  32,C  46,H  57)          115.4863         0.366823   
    502. A(O  24,C  46,H  57)          115.4552         0.366643   
    503. A(O  32,C  46,H  64)          168.6894         0.142681   
    504. A(O  24,C  46,O  32)          129.0534         0.468410   
    505. A(H  53,C  47,H  70)           63.0219         0.133593   
    506. A(O  28,C  47,H  70)          121.5330         0.149966   
    507. A(O  27,C  47,H  70)           84.0948         0.149922   
    508. A(O  27,C  47,H  79)           49.4082         0.141163   
    509. A(H  53,C  47,H  79)          100.2206         0.127181   
    510. A(H  78,C  47,H  79)           46.1197         0.096038   
    511. A(H  70,C  47,H  78)           78.6634         0.097220   
    512. A(H  53,C  47,H  78)           61.1040         0.126132   
    513. A(O  28,C  47,H  78)          157.4153         0.139765   
    514. A(O  27,C  47,H  78)           60.1300         0.139729   
    515. A(H  70,C  47,H  79)          118.5744         0.097452   
    516. A(O  28,C  47,H  79)          118.6395         0.141200   
    517. A(O  28,C  47,H  53)          116.4133         0.364403   
    518. A(O  27,C  47,H  53)          116.5655         0.364207   
    519. A(O  27,C  47,O  28)          127.0091         0.465253   
    520. A(H  62,H  48,H  63)           46.0644         0.093090   
    521. A(C  41,H  48,H  63)           95.1706         0.116289   
    522. A(C  41,H  48,H  62)           96.5612         0.119349   
    523. A(C  37,H  51,H  66)           93.2194         0.111565   
    524. A(H  65,H  51,H  73)          101.0845         0.093881   
    525. A(C  37,H  51,H  73)           98.3546         0.119115   
    526. A(C  37,H  51,H  65)           95.5104         0.121708   
    527. A(H  66,H  51,H  73)           49.4525         0.092368   
    528. A(H  65,H  51,H  66)           52.4973         0.092658   
    529. A(H  70,H  53,H  78)           90.8814         0.093317   
    530. A(C  47,H  53,H  78)           98.7042         0.116486   
    531. A(C  47,H  53,H  70)           95.0015         0.120638   
    532. A(C  39,H  54,H  79)           63.6980         0.111283   
    533. A(C  46,H  57,H  64)           91.3691         0.115045   
    534. A(H  63,H  57,H  64)           41.1498         0.091713   
    535. A(C  46,H  57,H  63)           99.3719         0.110175   
    536. A(H  71,Al 60,Al 72)           87.8326         0.277781   
    537. A(H  66,Al 60,Al 72)            7.9754         0.267316   
    538. A(H  65,Al 60,Al 72)          106.8166         0.278159   
    539. A(H  64,Al 60,Al 72)          102.0850         0.268386   
    540. A(Al 61,Al 60,Al 72)           84.6406         0.299522   
    541. A(H  66,Al 60,H  71)           95.4439         0.361397   
    542. A(H  65,Al 60,H  71)          145.8570         0.377961   
    543. A(H  64,Al 60,H  71)          111.9392         0.363033   
    544. A(Al 61,Al 60,H  71)           79.6014         0.410597   
    545. A(H  65,Al 60,H  66)           99.0701         0.361943   
    546. A(H  64,Al 60,H  66)          101.3286         0.347842   
    547. A(Al 61,Al 60,H  66)           88.3688         0.392769   
    548. A(H  64,Al 60,H  65)           95.2913         0.363581   
    549. A(Al 61,Al 60,H  65)          131.3008         0.411241   
    550. A(Al 61,Al 60,H  64)           36.4815         0.394593   
    551. A(H  67,Al 61,Al 68)          123.6769         0.406778   
    552. A(H  64,Al 61,Al 68)          121.1271         0.390587   
    553. A(H  63,Al 61,Al 68)          116.4158         0.407138   
    554. A(H  62,Al 61,Al 68)           36.0491         0.390916   
    555. A(Al 60,Al 61,Al 68)          108.3508         0.445979   
    556. A(H  64,Al 61,H  67)          115.1387         0.358714   
    557. A(H  63,Al 61,H  67)           75.6080         0.373516   
    558. A(H  62,Al 61,H  67)          112.6096         0.359008   
    559. A(Al 60,Al 61,H  67)          115.2397         0.408252   
    560. A(H  63,Al 61,H  64)           79.0806         0.359019   
    561. A(H  62,Al 61,H  64)          120.5802         0.345251   
    562. A(Al 60,Al 61,H  64)           36.2217         0.391986   
    563. A(H  62,Al 61,H  63)           80.6183         0.359314   
    564. A(Al 60,Al 61,H  63)          114.4026         0.408613   
    565. A(Al 60,Al 61,H  62)          132.0153         0.392316   
    566. A(C  41,H  62,H  48)           21.2745         0.095299   
    567. A(O  26,H  62,C  41)           25.3780         0.102040   
    568. A(C  41,H  62,Al 68)          123.2645         0.136659   
    569. A(C  41,H  62,Al 61)          113.1304         0.136306   
    570. A(O  26,H  62,H  48)           46.4192         0.098416   
    571. A(H  48,H  62,Al 68)          131.4899         0.123413   
    572. A(H  48,H  62,Al 61)          117.8390         0.123159   
    573. A(O  26,H  62,Al 68)          105.0654         0.160242   
    574. A(O  26,H  62,Al 61)          108.1105         0.159715   
    575. A(Al 61,H  62,Al 68)          107.6779         0.347443   
    576. A(O  24,H  63,O  26)           48.2179         0.096857   
    577. A(O  26,H  63,H  48)           40.6526         0.094353   
    578. A(O  26,H  63,Al 61)           88.5399         0.136107   
    579. A(O  24,H  63,H  48)           79.1359         0.094398   
    580. A(O  24,H  63,Al 61)           95.1176         0.136507   
    581. A(H  48,H  63,Al 61)          114.1148         0.121365   
    582. A(C  41,H  63,H  57)           83.8992         0.093050   
    583. A(O  26,H  63,H  57)           83.8474         0.093145   
    584. A(O  24,H  63,H  57)           38.6996         0.093180   
    585. A(H  48,H  63,H  57)          100.3406         0.091848   
    586. A(H  57,H  63,Al 61)          114.8452         0.114064   
    587. A(O  26,H  63,C  41)           24.6484         0.096613   
    588. A(O  24,H  63,C  41)           58.5950         0.096677   
    589. A(C  41,H  63,H  48)           20.6348         0.094230   
    590. A(C  41,H  63,Al 61)          110.9676         0.135031   
    591. A(O  24,H  64,H  57)           44.2079         0.097267   
    592. A(H  57,H  64,Al 61)          124.9071         0.118224   
    593. A(H  57,H  64,Al 60)          126.1247         0.118475   
    594. A(O  24,H  64,Al 61)          117.4304         0.161411   
    595. A(O  24,H  64,Al 60)          122.3819         0.162034   
    596. A(Al 60,H  64,Al 61)          107.2968         0.347174   
    597. A(C  46,H  64,H  57)           20.7547         0.094032   
    598. A(O  24,H  64,C  46)           23.8557         0.101469   
    599. A(C  46,H  64,Al 61)          127.1623         0.133078   
    600. A(C  46,H  64,Al 60)          124.4582         0.133457   
    601. A(O  25,H  65,C  37)           26.4669         0.099775   
    602. A(C  37,H  65,H  51)           22.1607         0.096405   
    603. A(C  37,H  65,Al 60)          114.1751         0.143720   
    604. A(O  25,H  65,H  51)           44.5064         0.096715   
    605. A(O  25,H  65,Al 60)           92.7577         0.146012   
    606. A(H  51,H  65,Al 60)          114.2133         0.128180   
    607. A(H  51,H  66,Al 60)           93.6935         0.114480   
    608. A(O  25,H  66,Al 72)           96.8631         0.150663   
    609. A(O  25,H  66,Al 60)           97.8133         0.151593   
    610. A(Al 60,H  66,Al 72)          164.1346         0.342476   
    611. A(O  25,H  66,H  51)           41.7636         0.095199   
    612. A(H  51,H  66,Al 72)          101.2736         0.114102   
    613. A(Al 72,Al 68,H  75)           86.4658         0.280309   
    614. A(H  70,Al 68,H  75)          146.9566         0.378360   
    615. A(H  69,Al 68,H  75)           96.0661         0.361673   
    616. A(H  62,Al 68,H  75)          107.0905         0.363368   
    617. A(Al 61,Al 68,H  75)           81.8776         0.409520   
    618. A(H  70,Al 68,Al 72)          107.1476         0.280469   
    619. A(H  69,Al 68,Al 72)            9.6100         0.269427   
    620. A(H  62,Al 68,Al 72)          111.7344         0.270549   
    621. A(Al 61,Al 68,Al 72)           84.8411         0.301087   
    622. A(H  69,Al 68,H  70)           99.0524         0.361900   
    623. A(H  62,Al 68,H  70)           95.7986         0.363597   
    624. A(Al 61,Al 68,H  70)          128.2836         0.409787   
    625. A(H  62,Al 68,H  69)          108.2485         0.347761   
    626. A(Al 61,Al 68,H  69)           85.7911         0.391287   
    627. A(Al 61,Al 68,H  62)           36.2730         0.393167   
    628. A(O  27,H  69,Al 72)           94.1063         0.140601   
    629. A(O  27,H  69,Al 68)          104.9713         0.141354   
    630. A(Al 68,H  69,Al 72)          160.8799         0.342461   
    631. A(O  26,H  70,C  47)           67.8348         0.098387   
    632. A(O  26,H  70,H  53)           89.6252         0.095660   
    633. A(O  26,H  70,Al 68)           88.8400         0.139845   
    634. A(C  47,H  70,H  53)           21.9766         0.096004   
    635. A(C  47,H  70,Al 68)          120.0553         0.142468   
    636. A(H  53,H  70,Al 68)          120.3618         0.126935   
    637. A(O  26,H  70,O  27)           52.9477         0.096966   
    638. A(O  27,H  70,C  47)           25.0264         0.097377   
    639. A(O  27,H  70,H  53)           41.2302         0.094944   
    640. A(O  27,H  70,Al 68)           97.2600         0.134374   
    641. A(Al 76,Al 72,H  78)           37.6919         0.399270   
    642. A(H  74,Al 72,H  78)          110.7687         0.356091   
    643. A(H  73,Al 72,H  78)           75.3231         0.339045   
    644. A(H  69,Al 72,H  78)           83.9541         0.338969   
    645. A(Al 68,Al 72,H  78)           89.7919         0.266941   
    646. A(H  66,Al 72,H  78)          139.4166         0.338918   
    647. A(Al 60,Al 72,H  78)          145.8079         0.264813   
    648. A(H  74,Al 72,Al 76)          114.9435         0.420315   
    649. A(H  73,Al 72,Al 76)           37.7054         0.399171   
    650. A(H  69,Al 72,Al 76)          116.5583         0.399077   
    651. A(Al 68,Al 72,Al 76)          124.4070         0.309728   
    652. A(H  66,Al 72,Al 76)          119.8613         0.399013   
    653. A(Al 60,Al 72,Al 76)          127.6228         0.307089   
    654. A(H  73,Al 72,H  74)          110.9864         0.356006   
    655. A(H  69,Al 72,H  74)          106.1086         0.355925   
    656. A(Al 68,Al 72,H  74)           97.0315         0.279011   
    657. A(H  66,Al 72,H  74)          109.8117         0.355870   
    658. A(Al 60,Al 72,H  74)          103.1979         0.276738   
    659. A(H  69,Al 72,H  73)          141.9209         0.338890   
    660. A(Al 68,Al 72,H  73)          151.3958         0.266884   
    661. A(H  66,Al 72,H  73)           89.8940         0.338838   
    662. A(Al 60,Al 72,H  73)           96.4339         0.264757   
    663. A(Al 68,Al 72,H  69)            9.5101         0.266830   
    664. A(H  66,Al 72,H  69)           85.4608         0.338762   
    665. A(Al 60,Al 72,H  69)           83.0386         0.264704   
    666. A(H  66,Al 72,Al 68)           85.7942         0.266794   
    667. A(Al 60,Al 72,Al 68)           82.1596         0.214075   
    668. A(Al 60,Al 72,H  66)            7.8900         0.264667   
    669. A(O  25,H  73,H  51)           42.1530         0.095198   
    670. A(O  25,H  73,Al 76)           98.6494         0.136006   
    671. A(O  25,H  73,Al 72)           84.9795         0.135224   
    672. A(H  51,H  73,Al 76)          114.6878         0.123085   
    673. A(H  51,H  73,Al 72)          116.0993         0.122518   
    674. A(Al 72,H  73,Al 76)          104.0521         0.343198   
    675. A(O  25,H  73,C  37)           25.1236         0.097369   
    676. A(C  37,H  73,H  51)           20.9492         0.095068   
    677. A(C  37,H  73,Al 76)           99.8143         0.135024   
    678. A(C  37,H  73,Al 72)          108.8214         0.134257   
    679. A(H  78,Al 76,H  79)           96.1669         0.363194   
    680. A(H  77,Al 76,H  79)          166.0255         0.379535   
    681. A(H  73,Al 76,H  79)           95.6766         0.363127   
    682. A(Al 72,Al 76,H  79)           99.3899         0.423487   
    683. A(H  77,Al 76,H  78)           94.7351         0.363043   
    684. A(H  73,Al 76,H  78)           76.3934         0.347566   
    685. A(Al 72,Al 76,H  78)           38.2264         0.404500   
    686. A(H  73,Al 76,H  77)           95.3645         0.362976   
    687. A(Al 72,Al 76,H  77)           94.5842         0.423303   
    688. A(Al 72,Al 76,H  73)           38.2425         0.404423   
    689. A(O  27,H  78,H  53)           43.5641         0.095829   
    690. A(H  53,H  78,Al 76)          113.8139         0.120144   
    691. A(H  53,H  78,Al 72)          126.7314         0.119627   
    692. A(O  27,H  78,Al 76)           97.2481         0.145707   
    693. A(O  27,H  78,Al 72)           97.4732         0.144767   
    694. A(Al 72,H  78,Al 76)          104.0817         0.343342   
    695. A(C  47,H  78,H  53)           20.1918         0.094066   
    696. A(O  27,H  78,C  47)           24.4780         0.098225   
    697. A(C  47,H  78,Al 76)          102.7599         0.131073   
    698. A(C  47,H  78,Al 72)          118.2433         0.130376   
    699. A(C  37,H  79,C  39)          103.4251         0.101776   
    700. A(O  25,H  79,C  37)           27.5517         0.101990   
    701. A(O  15,H  79,C  37)           76.7111         0.102788   
    702. A(O  27,H  79,C  37)           87.7898         0.104447   
    703. A(C  37,H  79,Al 76)          112.1968         0.148718   
    704. A(O  25,H  79,C  39)          109.5101         0.102528   
    705. A(O  15,H  79,C  39)           28.0983         0.103359   
    706. A(O  27,H  79,C  39)           92.8431         0.105087   
    707. A(C  39,H  79,Al 76)          137.3971         0.151191   
    708. A(O  15,H  79,O  25)           89.3613         0.103599   
    709. A(O  25,H  79,O  27)           61.1594         0.105356   
    710. A(O  25,H  79,Al 76)          112.9102         0.152231   
    711. A(O  15,H  79,O  27)          100.3597         0.106361   
    712. A(O  15,H  79,Al 76)          147.7516         0.156117   
    713. A(O  27,H  79,Al 76)          110.6553         0.164194   
    714. A(C  47,H  79,H  54)           91.2949         0.093201   
    715. A(C  37,H  79,C  47)          110.5783         0.098422   
    716. A(C  39,H  79,C  47)           81.2842         0.098813   
    717. A(O  25,H  79,C  47)           84.6764         0.098977   
    718. A(O  15,H  79,C  47)           98.6551         0.099590   
    719. A(O  27,H  79,C  47)           23.7434         0.100864   
    720. A(C  47,H  79,Al 76)          106.1028         0.134867   
    721. A(C  37,H  79,H  54)          116.9922         0.094470   
    722. A(C  39,H  79,H  54)           20.9074         0.094696   
    723. A(O  25,H  79,H  54)          129.0688         0.094792   
    724. A(O  15,H  79,H  54)           41.0651         0.095148   
    725. A(O  27,H  79,H  54)          108.2662         0.095887   
    726. A(H  54,H  79,Al 76)          116.9106         0.115627   
    727. D(O   7,Zr  2,Zr  1,Zr  4)    -21.4173         0.010000   
    728. D(Zr  5,Zr  2,Zr  1,O   7)    128.3281         0.010000   
    729. D(Zr  5,Zr  2,Zr  1,Zr  4)    106.9108         0.010000   
    730. D(Zr  4,Zr  3,Zr  0,O   6)   -125.0115         0.010000   
    731. D(Zr  4,Zr  3,Zr  0,Zr  5)   -103.4907         0.010000   
    732. D(O   6,Zr  3,Zr  0,Zr  5)     21.5208         0.010000   
    733. D(Zr  3,Zr  4,Zr  1,Zr  2)   -103.7308         0.010000   
    734. D(O   7,Zr  4,Zr  3,Zr  0)     79.0278         0.010000   
    735. D(O   7,Zr  4,Zr  1,Zr  2)     22.1595         0.010000   
    736. D(Zr  1,Zr  4,Zr  3,O   6)     76.7940         0.010000   
    737. D(Zr  3,Zr  4,Zr  1,O   7)   -125.8902         0.010000   
    738. D(Zr  1,Zr  4,Zr  3,Zr  0)    107.0191         0.010000   
    739. D(O   6,Zr  5,Zr  0,Zr  3)    -22.7387         0.010000   
    740. D(Zr  2,Zr  5,Zr  0,O   6)    122.8186         0.010000   
    741. D(Zr  2,Zr  5,Zr  0,Zr  3)    100.0798         0.010000   
    742. D(Zr  0,Zr  5,Zr  2,Zr  1)   -103.2321         0.010000   
    743. D(Zr  0,Zr  5,Zr  2,O   7)    -75.5415         0.010000   
    744. D(O   6,Zr  5,Zr  2,Zr  1)    -73.5203         0.010000   
    745. D(Zr  3,O   6,Zr  0,O   9)    -31.0654         0.010000   
    746. D(Zr  0,O   6,Zr  5,O   8)    -89.7928         0.010000   
    747. D(Zr  5,O   6,Zr  3,Zr  0)   -129.6082         0.010000   
    748. D(Zr  0,O   6,Zr  3,O   9)     31.0039         0.010000   
    749. D(Zr  0,O   6,Zr  5,Zr  2)    -53.2521         0.010000   
    750. D(Zr  5,O   6,Zr  0,Zr  3)    144.5176         0.010000   
    751. D(Zr  3,O   6,Zr  5,Zr  0)    128.2920         0.010000   
    752. D(Zr  0,O   6,Zr  3,Zr  4)     51.8315         0.010000   
    753. D(Zr  3,O   6,Zr  0,Zr  5)   -144.5176         0.010000   
    754. D(Zr  2,O   7,Zr  1,O   8)     29.8138         0.010000   
    755. D(Zr  4,O   7,Zr  1,Zr  2)   -144.3289         0.010000   
    756. D(Zr  2,O   7,Zr  1,Zr  4)    144.3289         0.010000   
    757. D(Zr  4,O   7,Zr  2,Zr  1)    133.9822         0.010000   
    758. D(Zr  1,O   7,Zr  2,Zr  5)    -48.9583         0.010000   
    759. D(Zr  1,O   7,Zr  4,O   9)     85.0396         0.010000   
    760. D(Zr  2,O   7,Zr  4,Zr  1)   -133.2927         0.010000   
    761. D(Zr  1,O   7,Zr  2,O   8)    -29.8059         0.010000   
    762. D(Zr  1,O   7,Zr  4,Zr  3)     48.9605         0.010000   
    763. D(Zr  1,O   8,Zr  5,Zr  2)   -173.6728         0.010000   
    764. D(Zr  5,O   8,Zr  1,Zr  2)    173.6363         0.010000   
    765. D(Zr  1,O   8,Zr  5,Zr  0)   -106.5906         0.010000   
    766. D(Zr  2,O   8,Zr  5,Zr  0)     67.0822         0.010000   
    767. D(Zr  1,O   8,Zr  2,O   7)     29.6007         0.010000   
    768. D(Zr  5,O   8,Zr  2,Zr  1)   -176.4155         0.010000   
    769. D(Zr  1,O   8,Zr  2,Zr  5)    176.4155         0.010000   
    770. D(Zr  2,O   8,Zr  1,Zr  4)    -62.3522         0.010000   
    771. D(Zr  2,O   8,Zr  1,O   7)    -30.0597         0.010000   
    772. D(Zr  3,O   9,Zr  0,O   6)     32.5860         0.010000   
    773. D(Zr  3,O   9,Zr  4,Zr  1)    -61.5009         0.010000   
    774. D(Zr  0,O   9,Zr  4,Zr  3)    171.3838         0.010000   
    775. D(Zr  0,O   9,Zr  3,O   6)    -31.8467         0.010000   
    776. D(Zr  0,O   9,Zr  4,Zr  1)    109.8830         0.010000   
    777. D(Zr  4,O   9,Zr  3,Zr  0)    175.0311         0.010000   
    778. D(Zr  0,O   9,Zr  3,Zr  4)   -175.0311         0.010000   
    779. D(Zr  4,O   9,Zr  0,Zr  3)   -171.4500         0.010000   
    780. D(Zr  3,O   9,Zr  0,Zr  5)     66.1841         0.010000   
    781. D(Zr  4,O  10,Zr  1,Zr  2)     48.1597         0.010000   
    782. D(Zr  1,O  10,Zr  4,Zr  3)   -142.4090         0.010000   
    783. D(Zr  1,O  10,Zr  4,O   7)    -18.6240         0.010000   
    784. D(Zr  1,O  10,Zr  3,Zr  0)     84.2571         0.010000   
    785. D(Zr  1,O  10,Zr  3,Zr  4)    132.0386         0.010000   
    786. D(Zr  4,O  10,Zr  3,Zr  0)    -47.7815         0.010000   
    787. D(Zr  3,O  10,Zr  1,Zr  2)    -83.2919         0.010000   
    788. D(Zr  3,O  10,Zr  4,Zr  1)    142.4090         0.010000   
    789. D(Zr  3,O  10,Zr  1,Zr  4)   -131.4516         0.010000   
    790. D(Zr  5,O  11,Zr  0,Zr  3)    -53.1192         0.010000   
    791. D(Zr  5,O  11,Zr  2,Zr  1)     51.9918         0.010000   
    792. D(Zr  0,O  11,Zr  5,Zr  2)    144.3544         0.010000   
    793. D(Zr  0,O  11,Zr  2,Zr  1)    -77.0668         0.010000   
    794. D(Zr  2,O  11,Zr  5,Zr  0)   -144.3544         0.010000   
    795. D(Zr  0,O  11,Zr  5,O   6)     20.7834         0.010000   
    796. D(Zr  0,O  11,Zr  2,Zr  5)   -129.0586         0.010000   
    797. D(Zr  2,O  11,Zr  0,Zr  5)    127.7687         0.010000   
    798. D(Zr  2,O  11,Zr  0,Zr  3)     74.6495         0.010000   
    799. D(C  36,O  12,Zr  0,Zr  5)    -32.5953         0.010000   
    800. D(C  36,O  12,Zr  0,Zr  3)     14.1421         0.010000   
    801. D(C  37,O  13,Zr  0,Zr  5)    -70.3849         0.010000   
    802. D(C  37,O  13,Zr  0,Zr  3)     -4.3112         0.010000   
    803. D(C  38,O  14,Zr  0,Zr  3)    -58.4078         0.010000   
    804. D(C  38,O  14,Zr  0,Zr  5)     26.9850         0.010000   
    805. D(C  39,O  15,Zr  0,Zr  5)    -31.7297         0.010000   
    806. D(H  79,O  15,Zr  0,Zr  3)     32.7532         0.010000   
    807. D(C  39,O  15,Zr  0,Zr  3)    -67.1173         0.010000   
    808. D(C  40,O  16,Zr  1,Zr  2)     42.1909         0.010000   
    809. D(C  40,O  16,Zr  1,Zr  4)      6.1705         0.010000   
    810. D(C  41,O  17,Zr  1,Zr  4)      1.9465         0.010000   
    811. D(C  41,O  17,Zr  1,Zr  2)     79.8513         0.010000   
    812. D(C  42,O  18,Zr  1,Zr  2)     26.2817         0.010000   
    813. D(C  42,O  18,Zr  1,Zr  4)     87.5495         0.010000   
    814. D(C  43,O  19,Zr  1,Zr  4)     28.7640         0.010000   
    815. D(C  43,O  19,Zr  1,Zr  2)    -17.7720         0.010000   
    816. D(C  44,O  20,Zr  2,Zr  5)     -2.4866         0.010000   
    817. D(C  44,O  20,Zr  2,Zr  1)    -53.4823         0.010000   
    818. D(C  38,O  21,Zr  2,Zr  5)    -34.8743         0.010000   
    819. D(C  38,O  21,Zr  2,Zr  1)     49.4440         0.010000   
    820. D(C  42,O  22,Zr  2,Zr  5)     99.3287         0.010000   
    821. D(C  42,O  22,Zr  2,Zr  1)     33.9147         0.010000   
    822. D(C  45,O  23,Zr  2,Zr  5)     24.9082         0.010000   
    823. D(C  45,O  23,Zr  2,Zr  1)     74.5965         0.010000   
    824. D(H  64,O  24,Zr  3,Zr  0)    124.7382         0.010000   
    825. D(C  46,O  24,Zr  3,Zr  4)     43.5127         0.010000   
    826. D(C  46,O  24,Zr  3,Zr  0)    -39.6652         0.010000   
    827. D(H  66,O  25,Zr  3,Zr  0)    176.4597         0.010000   
    828. D(C  37,O  25,Zr  3,Zr  0)     -6.3306         0.010000   
    829. D(C  37,O  25,Zr  3,Zr  4)    -58.0724         0.010000   
    830. D(H  62,O  26,Zr  3,Zr  0)    165.9665         0.010000   
    831. D(C  41,O  26,Zr  3,Zr  4)     73.5185         0.010000   
    832. D(C  41,O  26,Zr  3,Zr  0)     18.3392         0.010000   
    833. D(H  79,O  27,Zr  3,Zr  0)    -32.1576         0.010000   
    834. D(C  47,O  27,Zr  3,Zr  4)     28.8043         0.010000   
    835. D(C  47,O  27,Zr  3,Zr  0)     93.0454         0.010000   
    836. D(C  47,O  28,Zr  4,Zr  1)     83.0578         0.010000   
    837. D(C  47,O  28,Zr  4,Zr  3)     22.3401         0.010000   
    838. D(C  39,O  29,Zr  4,Zr  3)     40.3144         0.010000   
    839. D(C  39,O  29,Zr  4,Zr  1)      0.7495         0.010000   
    840. D(C  43,O  30,Zr  4,Zr  3)    -17.2910         0.010000   
    841. D(C  43,O  30,Zr  4,Zr  1)     29.4391         0.010000   
    842. D(C  45,O  31,Zr  4,Zr  3)     77.4578         0.010000   
    843. D(C  45,O  31,Zr  4,Zr  1)      1.6763         0.010000   
    844. D(C  46,O  32,Zr  5,Zr  0)     24.2261         0.010000   
    845. D(C  46,O  32,Zr  5,Zr  2)    -61.1389         0.010000   
    846. D(C  36,O  33,Zr  5,Zr  2)     15.1038         0.010000   
    847. D(C  36,O  33,Zr  5,Zr  0)    -31.9817         0.010000   
    848. D(C  40,O  34,Zr  5,Zr  2)    -63.7418         0.010000   
    849. D(C  40,O  34,Zr  5,Zr  0)    -28.4983         0.010000   
    850. D(C  44,O  35,Zr  5,Zr  0)    -69.0585         0.010000   
    851. D(C  44,O  35,Zr  5,Zr  2)     -3.1943         0.010000   
    852. D(H  58,C  36,O  12,Zr  0)   -155.7029         0.045643   
    853. D(O  33,C  36,O  12,Zr  0)     24.3408         0.045643   
    854. D(H  58,C  36,O  33,Zr  5)   -157.0625         0.045683   
    855. D(O  12,C  36,O  33,Zr  5)     22.8939         0.045683   
    856. D(H  51,C  37,O  25,Zr  3)   -174.9447         0.076257   
    857. D(O  13,C  37,O  25,H  66)   -176.6637         0.076257   
    858. D(O  13,C  37,O  25,Zr  3)      5.9330         0.076257   
    859. D(H  51,C  37,O  13,Zr  0)   -177.2553         0.061182   
    860. D(O  25,C  37,O  13,Zr  0)      1.8689         0.061182   
    861. D(H  50,C  38,O  21,Zr  2)    177.0400         0.048242   
    862. D(O  14,C  38,O  21,Zr  2)     -3.6274         0.048242   
    863. D(H  50,C  38,O  14,Zr  0)   -172.0648         0.048563   
    864. D(O  21,C  38,O  14,Zr  0)      8.6026         0.048563   
    865. D(H  54,C  39,O  29,Zr  4)   -179.7285         0.052651   
    866. D(H  54,C  39,O  15,Zr  0)   -161.7770         0.057431   
    867. D(O  29,C  39,O  15,H  79)    -91.7090         0.057431   
    868. D(O  15,C  39,O  29,Zr  4)     -1.3564         0.052651   
    869. D(O  29,C  39,O  15,Zr  0)     19.8515         0.057431   
    870. D(H  56,C  40,O  34,Zr  5)   -166.1485         0.047788   
    871. D(O  16,C  40,O  34,Zr  5)     15.0510         0.047788   
    872. D(H  56,C  40,O  16,Zr  1)   -178.9676         0.047706   
    873. D(O  34,C  40,O  16,Zr  1)     -0.1668         0.047706   
    874. D(H  48,C  41,O  26,Zr  3)    164.7552         0.068718   
    875. D(O  17,C  41,O  26,H  62)   -168.3885         0.068718   
    876. D(O  17,C  41,O  26,Zr  3)    -14.5709         0.068718   
    877. D(O  26,C  41,O  17,Zr  1)    -35.1345         0.055488   
    878. D(H  48,C  41,O  17,Zr  1)    145.5396         0.055488   
    879. D(H  49,C  42,O  22,Zr  2)    151.4435         0.045801   
    880. D(O  18,C  42,O  22,Zr  2)    -29.4273         0.045801   
    881. D(H  49,C  42,O  18,Zr  1)    164.3542         0.046198   
    882. D(O  22,C  42,O  18,Zr  1)    -14.7755         0.046198   
    883. D(H  52,C  43,O  30,Zr  4)    158.0375         0.045762   
    884. D(O  19,C  43,O  30,Zr  4)    -22.0078         0.045762   
    885. D(H  52,C  43,O  19,Zr  1)    159.3079         0.045816   
    886. D(O  30,C  43,O  19,Zr  1)    -20.6468         0.045816   
    887. D(H  59,C  44,O  35,Zr  5)   -177.1700         0.046984   
    888. D(O  20,C  44,O  35,Zr  5)      2.8869         0.046984   
    889. D(H  59,C  44,O  20,Zr  2)   -178.7015         0.046915   
    890. D(O  35,C  44,O  20,Zr  2)      1.2416         0.046915   
    891. D(H  55,C  45,O  31,Zr  4)    145.1338         0.045819   
    892. D(O  23,C  45,O  31,Zr  4)    -35.7795         0.045819   
    893. D(H  55,C  45,O  23,Zr  2)    164.4303         0.046663   
    894. D(O  31,C  45,O  23,Zr  2)    -14.6576         0.046663   
    895. D(H  57,C  46,O  32,Zr  5)   -170.1310         0.053671   
    896. D(O  24,C  46,O  32,Zr  5)     10.7394         0.053671   
    897. D(H  57,C  46,O  24,Zr  3)   -179.7642         0.062562   
    898. D(O  32,C  46,O  24,H  64)   -165.4184         0.062562   
    899. D(O  32,C  46,O  24,Zr  3)     -0.6345         0.062562   
    900. D(H  53,C  47,O  28,Zr  4)    165.8443         0.060426   
    901. D(O  27,C  47,O  28,Zr  4)    -12.8425         0.060426   
    902. D(H  53,C  47,O  27,Zr  3)    156.4077         0.075210   
    903. D(O  28,C  47,O  27,H  79)     98.3094         0.075210   
    904. D(O  28,C  47,O  27,Zr  3)    -24.9072         0.075210   
    905. D(H  63,H  48,C  41,O  17)    123.1303         0.145378   
    906. D(H  62,H  48,C  41,O  26)     -9.9928         0.145378   
    907. D(H  62,H  48,C  41,O  17)    169.4314         0.145378   
    908. D(H  73,H  51,C  37,O  13)    127.7319         0.161772   
    909. D(H  65,H  51,C  37,O  25)     50.5959         0.161772   
    910. D(H  65,H  51,C  37,O  13)   -130.1817         0.161772   
    911. D(H  78,H  53,C  47,O  27)     24.2197         0.151047   
    912. D(H  70,H  53,C  47,O  28)    113.7292         0.151047   
    913. D(H  70,H  53,C  47,O  27)    -67.4432         0.151047   
    914. D(H  79,H  54,C  39,O  29)    108.0644         0.127215   
    915. D(H  79,H  54,C  39,O  15)    -70.5611         0.127215   
[...]
freq.      24.51  E(vib)   ...       0.56 
freq.      30.77  E(vib)   ...       0.55 
freq.      35.64  E(vib)   ...       0.54 
freq.      38.67  E(vib)   ...       0.54 
freq.      40.71  E(vib)   ...       0.54 
freq.      45.09  E(vib)   ...       0.53 
freq.      47.49  E(vib)   ...       0.53 
freq.      52.76  E(vib)   ...       0.52 
freq.      55.03  E(vib)   ...       0.52 
freq.      59.35  E(vib)   ...       0.51 
freq.      62.31  E(vib)   ...       0.51 
freq.      73.61  E(vib)   ...       0.49 
freq.      79.81  E(vib)   ...       0.49 
freq.      83.70  E(vib)   ...       0.48 
freq.      85.22  E(vib)   ...       0.48 
freq.      93.86  E(vib)   ...       0.47 
freq.      93.91  E(vib)   ...       0.47 
freq.      98.42  E(vib)   ...       0.46 
freq.     102.43  E(vib)   ...       0.46 
freq.     104.22  E(vib)   ...       0.46 
freq.     105.12  E(vib)   ...       0.45 
freq.     105.66  E(vib)   ...       0.45 
freq.     113.96  E(vib)   ...       0.44 
freq.     115.14  E(vib)   ...       0.44 
freq.     118.12  E(vib)   ...       0.44 
freq.     120.09  E(vib)   ...       0.44 
freq.     128.65  E(vib)   ...       0.43 
freq.     132.34  E(vib)   ...       0.42 
freq.     138.73  E(vib)   ...       0.42 
freq.     145.38  E(vib)   ...       0.41 
freq.     148.85  E(vib)   ...       0.40 
freq.     150.59  E(vib)   ...       0.40 
freq.     151.86  E(vib)   ...       0.40 
freq.     153.03  E(vib)   ...       0.40 
freq.     155.13  E(vib)   ...       0.40 
freq.     157.88  E(vib)   ...       0.40 
freq.     159.13  E(vib)   ...       0.39 
freq.     161.94  E(vib)   ...       0.39 
freq.     164.57  E(vib)   ...       0.39 
freq.     166.42  E(vib)   ...       0.39 
freq.     168.38  E(vib)   ...       0.38 
freq.     170.26  E(vib)   ...       0.38 
freq.     171.45  E(vib)   ...       0.38 
freq.     175.73  E(vib)   ...       0.38 
freq.     179.50  E(vib)   ...       0.37 
freq.     185.78  E(vib)   ...       0.37 
freq.     187.52  E(vib)   ...       0.36 
freq.     190.21  E(vib)   ...       0.36 
freq.     194.67  E(vib)   ...       0.36 
freq.     198.32  E(vib)   ...       0.35 
freq.     199.52  E(vib)   ...       0.35 
freq.     204.60  E(vib)   ...       0.35 
freq.     210.49  E(vib)   ...       0.34 
freq.     214.19  E(vib)   ...       0.34 
freq.     215.29  E(vib)   ...       0.34 
freq.     229.27  E(vib)   ...       0.32 
freq.     229.83  E(vib)   ...       0.32 
freq.     234.62  E(vib)   ...       0.32 
freq.     235.50  E(vib)   ...       0.32 
freq.     239.03  E(vib)   ...       0.32 
freq.     246.46  E(vib)   ...       0.31 
freq.     258.36  E(vib)   ...       0.30 
freq.     261.84  E(vib)   ...       0.29 
freq.     263.00  E(vib)   ...       0.29 
freq.     264.89  E(vib)   ...       0.29 
freq.     266.88  E(vib)   ...       0.29 
freq.     268.54  E(vib)   ...       0.29 
freq.     269.63  E(vib)   ...       0.29 
freq.     271.40  E(vib)   ...       0.29 
freq.     273.58  E(vib)   ...       0.29 
freq.     276.07  E(vib)   ...       0.28 
freq.     276.63  E(vib)   ...       0.28 
freq.     278.48  E(vib)   ...       0.28 
freq.     281.02  E(vib)   ...       0.28 
freq.     283.69  E(vib)   ...       0.28 
freq.     285.60  E(vib)   ...       0.28 
freq.     290.40  E(vib)   ...       0.27 
freq.     294.11  E(vib)   ...       0.27 
freq.     297.93  E(vib)   ...       0.27 
freq.     298.87  E(vib)   ...       0.26 
freq.     303.16  E(vib)   ...       0.26 
freq.     305.29  E(vib)   ...       0.26 
freq.     311.25  E(vib)   ...       0.25 
freq.     312.05  E(vib)   ...       0.25 
freq.     312.82  E(vib)   ...       0.25 
freq.     315.44  E(vib)   ...       0.25 
freq.     316.84  E(vib)   ...       0.25 
freq.     320.02  E(vib)   ...       0.25 
freq.     320.09  E(vib)   ...       0.25 
freq.     322.42  E(vib)   ...       0.25 
freq.     327.14  E(vib)   ...       0.24 
freq.     329.75  E(vib)   ...       0.24 
freq.     338.79  E(vib)   ...       0.23 
freq.     341.99  E(vib)   ...       0.23 
freq.     342.49  E(vib)   ...       0.23 
freq.     346.72  E(vib)   ...       0.23 
freq.     352.37  E(vib)   ...       0.23 
freq.     353.75  E(vib)   ...       0.22 
freq.     363.94  E(vib)   ...       0.22 
freq.     371.91  E(vib)   ...       0.21 
freq.     375.58  E(vib)   ...       0.21 
freq.     386.23  E(vib)   ...       0.20 
freq.     395.82  E(vib)   ...       0.20 
freq.     397.54  E(vib)   ...       0.20 
freq.     400.92  E(vib)   ...       0.19 
freq.     403.19  E(vib)   ...       0.19 
freq.     405.38  E(vib)   ...       0.19 
freq.     416.68  E(vib)   ...       0.18 
freq.     417.90  E(vib)   ...       0.18 
freq.     419.98  E(vib)   ...       0.18 
freq.     423.65  E(vib)   ...       0.18 
freq.     427.36  E(vib)   ...       0.18 
freq.     428.66  E(vib)   ...       0.18 
freq.     450.43  E(vib)   ...       0.17 
freq.     477.23  E(vib)   ...       0.15 
freq.     482.05  E(vib)   ...       0.15 
freq.     484.09  E(vib)   ...       0.15 
freq.     494.77  E(vib)   ...       0.14 
freq.     506.50  E(vib)   ...       0.14 
freq.     526.35  E(vib)   ...       0.13 
freq.     528.63  E(vib)   ...       0.13 
freq.     537.36  E(vib)   ...       0.12 
freq.     542.56  E(vib)   ...       0.12 
freq.     626.70  E(vib)   ...       0.09 
freq.     644.23  E(vib)   ...       0.09 
freq.     661.85  E(vib)   ...       0.08 
freq.     677.22  E(vib)   ...       0.08 
freq.     678.99  E(vib)   ...       0.08 
freq.     681.76  E(vib)   ...       0.08 
freq.     683.57  E(vib)   ...       0.07 
freq.     686.55  E(vib)   ...       0.07 
freq.     689.79  E(vib)   ...       0.07 
freq.     695.09  E(vib)   ...       0.07 
freq.     702.36  E(vib)   ...       0.07 
freq.     708.95  E(vib)   ...       0.07 
freq.     724.83  E(vib)   ...       0.06 
freq.     733.02  E(vib)   ...       0.06 
freq.     733.76  E(vib)   ...       0.06 
freq.     735.57  E(vib)   ...       0.06 
freq.     735.90  E(vib)   ...       0.06 
freq.     737.72  E(vib)   ...       0.06 
freq.     737.96  E(vib)   ...       0.06 
freq.     738.65  E(vib)   ...       0.06 
freq.     738.83  E(vib)   ...       0.06 
freq.     739.18  E(vib)   ...       0.06 
freq.     740.72  E(vib)   ...       0.06 
freq.     741.30  E(vib)   ...       0.06 
freq.     742.68  E(vib)   ...       0.06 
freq.     743.64  E(vib)   ...       0.06 
freq.     767.39  E(vib)   ...       0.06 
freq.     799.45  E(vib)   ...       0.05 
freq.     812.30  E(vib)   ...       0.05 
freq.     889.83  E(vib)   ...       0.04 
freq.     950.50  E(vib)   ...       0.03 
freq.     997.42  E(vib)   ...       0.02 
freq.     997.46  E(vib)   ...       0.02 
freq.     998.20  E(vib)   ...       0.02 
freq.     999.75  E(vib)   ...       0.02 
freq.    1000.31  E(vib)   ...       0.02 
freq.    1001.40  E(vib)   ...       0.02 
freq.    1001.53  E(vib)   ...       0.02 
freq.    1002.22  E(vib)   ...       0.02 
freq.    1005.16  E(vib)   ...       0.02 
freq.    1006.40  E(vib)   ...       0.02 
freq.    1006.58  E(vib)   ...       0.02 
freq.    1007.11  E(vib)   ...       0.02 
freq.    1137.76  E(vib)   ...       0.01 
freq.    1332.24  E(vib)   ...       0.01 
freq.    1345.00  E(vib)   ...       0.01 
freq.    1349.44  E(vib)   ...       0.01 
freq.    1351.43  E(vib)   ...       0.01 
freq.    1352.38  E(vib)   ...       0.01 
freq.    1352.78  E(vib)   ...       0.01 
freq.    1353.69  E(vib)   ...       0.01 
freq.    1353.91  E(vib)   ...       0.01 
freq.    1355.00  E(vib)   ...       0.01 
freq.    1355.74  E(vib)   ...       0.01 
freq.    1356.04  E(vib)   ...       0.01 
freq.    1356.85  E(vib)   ...       0.01 
freq.    1358.31  E(vib)   ...       0.01 
freq.    1359.69  E(vib)   ...       0.01 
freq.    1361.06  E(vib)   ...       0.01 
freq.    1362.83  E(vib)   ...       0.01 
freq.    1363.37  E(vib)   ...       0.01 
freq.    1363.90  E(vib)   ...       0.01 
freq.    1364.27  E(vib)   ...       0.01 
freq.    1365.30  E(vib)   ...       0.01 
freq.    1366.23  E(vib)   ...       0.01 
freq.    1367.32  E(vib)   ...       0.01 
freq.    1370.76  E(vib)   ...       0.01 
freq.    1371.52  E(vib)   ...       0.01 
freq.    1379.42  E(vib)   ...       0.01 
freq.    1403.73  E(vib)   ...       0.00 
freq.    1529.27  E(vib)   ...       0.00 
freq.    1536.00  E(vib)   ...       0.00 
freq.    1544.14  E(vib)   ...       0.00 
freq.    1560.54  E(vib)   ...       0.00 
freq.    1561.34  E(vib)   ...       0.00 
freq.    1565.88  E(vib)   ...       0.00 
freq.    1573.32  E(vib)   ...       0.00 
freq.    1574.60  E(vib)   ...       0.00 
freq.    1625.51  E(vib)   ...       0.00 
freq.    1630.54  E(vib)   ...       0.00 
freq.    1632.40  E(vib)   ...       0.00 
freq.    1635.53  E(vib)   ...       0.00 
freq.    1635.65  E(vib)   ...       0.00 
freq.    1704.75  E(vib)   ...       0.00 
freq.    1806.21  E(vib)   ...       0.00 
freq.    1837.27  E(vib)   ...       0.00 
freq.    1870.48  E(vib)   ...       0.00 
freq.    1883.69  E(vib)   ...       0.00 
freq.    1887.02  E(vib)   ...       0.00 
freq.    1888.20  E(vib)   ...       0.00 
freq.    1892.79  E(vib)   ...       0.00 
freq.    1896.27  E(vib)   ...       0.00 
freq.    1902.65  E(vib)   ...       0.00 
freq.    1902.84  E(vib)   ...       0.00 
freq.    1915.58  E(vib)   ...       0.00 
freq.    1979.64  E(vib)   ...       0.00 
freq.    2888.70  E(vib)   ...       0.00 
freq.    2889.32  E(vib)   ...       0.00 
freq.    2890.54  E(vib)   ...       0.00 
freq.    2893.96  E(vib)   ...       0.00 
freq.    2894.41  E(vib)   ...       0.00 
freq.    2899.01  E(vib)   ...       0.00 
freq.    2907.10  E(vib)   ...       0.00 
freq.    2910.54  E(vib)   ...       0.00 
freq.    2911.28  E(vib)   ...       0.00 
freq.    2911.90  E(vib)   ...       0.00 
freq.    2912.55  E(vib)   ...       0.00 
freq.    2916.68  E(vib)   ...       0.00 

------------
INNER ENERGY
------------

The inner energy is: U= E(el) + E(ZPE) + E(vib) + E(rot) + E(trans)
    E(el)   - is the total energy from the electronic structure calculation
              = E(kin-el) + E(nuc-el) + E(el-el) + E(nuc-nuc)
    E(ZPE)  - the the zero temperature vibrational energy from the frequency calculation
    E(vib)  - the the finite temperature correction to E(ZPE) due to population
              of excited vibrational states
    E(rot)  - is the rotational thermal energy
    E(trans)- is the translational thermal energy

Summary of contributions to the inner energy U:
Electronic energy                ...  -4220.48993595 Eh
Zero point energy                ...      0.41371270 Eh     259.61 kcal/mol
Thermal vibrational correction   ...      0.06825212 Eh      42.83 kcal/mol
Thermal rotational correction    ...      0.00141627 Eh       0.89 kcal/mol
Thermal translational correction ...      0.00141627 Eh       0.89 kcal/mol
-----------------------------------------------------------------------
Total thermal energy                  -4220.00513858 Eh


Summary of corrections to the electronic energy:
(perhaps to be used in another calculation)
Total thermal correction                  0.07108467 Eh      44.61 kcal/mol
Non-thermal (ZPE) correction              0.41371270 Eh     259.61 kcal/mol
-----------------------------------------------------------------------
Total correction                          0.48479737 Eh     304.21 kcal/mol


--------
ENTHALPY
--------

The enthalpy is H = U + kB*T
                kB is Boltzmann's constant
Total thermal energy              ...  -4220.00513858 Eh 
Thermal Enthalpy correction       ...      0.00094421 Eh       0.59 kcal/mol
-----------------------------------------------------------------------
Total Enthalpy                    ...  -4220.00419437 Eh


Note: Only C1 symmetry has been detected, increase convergence thresholds 
      if your molecule has a higher symmetry. Symmetry factor of 1.0 is   
      used for the rotational entropy correction. 
 

Note: Rotational entropy computed according to Herzberg 
Infrared and Raman Spectra, Chapter V,1, Van Nostrand Reinhold, 1945 
Point Group:  C1, Symmetry Number:   1  
Rotational constants in cm-1:     0.001642     0.001083     0.001073 

Vibrational entropy computed according to the QRRHO of S. Grimme
Chem.Eur.J. 2012 18 9955 using a reference frequency of 100.0 cm-1


-------
ENTROPY
-------

The entropy contributions are T*S = T*(S(el)+S(vib)+S(rot)+S(trans))
     S(el)   - electronic entropy
     S(vib)  - vibrational entropy
     S(rot)  - rotational entropy
     S(trans)- translational entropy
The entropies will be listed as multiplied by the temperature to get
units of energy

Electronic entropy                ...      0.00000000 Eh      0.00 kcal/mol
Vibrational entropy               ...      0.12315024 Eh     77.28 kcal/mol
Rotational entropy                ...      0.01898936 Eh     11.92 kcal/mol
Translational entropy             ...      0.02253999 Eh     14.14 kcal/mol
-----------------------------------------------------------------------
Final entropy term                ...      0.16467959 Eh    103.34 kcal/mol

In case the symmetry of your molecule has not been determined correctly
or in case you have a reason to use a different symmetry number we print 
out the resulting rotational entropy values for sn=1,12:

 non-linear molecules -----------------------------------
|  sn= 1 | S(rot)=       0.01898936 Eh     11.92 kcal/mol|
|  sn= 2 | S(rot)=       0.01833490 Eh     11.51 kcal/mol|
|  sn= 3 | S(rot)=       0.01795207 Eh     11.27 kcal/mol|
|  sn= 4 | S(rot)=       0.01768045 Eh     11.09 kcal/mol|
|  sn= 5 | S(rot)=       0.01746976 Eh     10.96 kcal/mol|
|  sn= 6 | S(rot)=       0.01729761 Eh     10.85 kcal/mol|
|  sn= 7 | S(rot)=       0.01715207 Eh     10.76 kcal/mol|
|  sn= 8 | S(rot)=       0.01702599 Eh     10.68 kcal/mol|
|  sn= 9 | S(rot)=       0.01691478 Eh     10.61 kcal/mol|
|  sn=10 | S(rot)=       0.01681530 Eh     10.55 kcal/mol|
|  sn=11 | S(rot)=       0.01672531 Eh     10.50 kcal/mol|
|  sn=12 | S(rot)=       0.01664316 Eh     10.44 kcal/mol|
 linear molecules ---------------------------------------
|  Dinfh | S(rot)=       0.01178178 Eh      7.39 kcal/mol|
|  Cinfv | S(rot)=       0.01243624 Eh      7.80 kcal/mol|
 --------------------------------------------------------


-------------------
GIBBS FREE ENERGY
-------------------

The Gibbs free energy is G = H - T*S

Total enthalpy                    ...  -4220.00419437 Eh 
Total entropy correction          ...     -0.16467959 Eh   -103.34 kcal/mol
-----------------------------------------------------------------------
Final Gibbs free energy         ...  -4220.16887396 Eh

For completeness - the Gibbs free energy minus the electronic energy
G-E(el)                           ...      0.32106199 Eh    201.47 kcal/mol


Maximum memory used throughout the entire PROP-calculation: 159.0 MB

--------------------------------
SUGGESTED CITATIONS FOR THIS RUN
--------------------------------

Below you find a list of papers that are relevant to this ORCA run
We neither can nor want to force you to cite these papers, but we appreciate if you do
You receive ORCA, which is the product of decades of hard work by many enthusiastic individuals, for free
The only thing we kindly ask in return is that you cite our papers,
We deeply appreciate it, if you show your appreciation for ORCA by not just citing the generic ORCA reference.

Please note that relegating all ORCA citations to the supporting information does *not* help us.
SI sections are not indexed - citations you put there will not count into any citation statistics
But we need these citations in order to attract the funding resources that allow us to do what we are doing

Therefore, if you are a happy ORCA user, please consider citing a few of the papers listed below in the main body of your paper

In addition to the list printed below, the program has created the file run.bibtex that contains the list in bibtex format
You can import this file easily into all common literature databanks and citation aid programs


List of essential papers. We consider these as the minimum necessary citations

  1. Neese, F.
     Software update: the ORCA program system, version 6.0
     WIRES Comput. Molec. Sci. 2025 15(1), e70019
     doi.org/10.1002/wcms.7019

List of papers to cite with high priority. The work reported in these papers was absolutely
necessary for this run to complete.
Our perspective: the developers of density functionals and basis sets usually get cited in chemistry papers
Good! But without the algorithms to do something with them, the functionals or basis sets would not do anything.
Hence, in our opinion, the algorithm design and method developments papers are equally worthy of getting cited

  1. Neese, F.
     An improvement of the resolution of the identity approximation for the formation of the Coulomb matrix
     J. Comp. Chem. 2003 24(14), 1740-1747
     doi.org/10.1002/jcc.10318
  2. Grimme, S.; Antony, J.; Ehrlich, S.; Krieg, H.
     A consistent and accurate ab initio parametrization of density functional dispersion correction (DFT-D) for the 94 elements H-Pu
     J. Chem. Phys. 2010 132 , 154104
     doi.org/10.1063/1.3382344
  3. Grimme, S.; Ehrlich, S.; Goerigk, L.
     Effect of the damping function in dispersion corrected density functional theory
     J. Comput. Chem. 2011 32(7), 1456-1465
     doi.org/10.1002/jcc.21759
  4. Bykov, D.; Petrenko, T.; Izsak, R.; Kossmann, S.; Becker, U.; Valeev, E.; Neese, F.
     Efficient implementation of the analytic second derivatives of Hartree-Fock and hybrid DFT energies: a detailed analysis of different approximations
     Molec. Phys. 2015 113 , 1961-1977
     doi.org/10.1080/00268976.2015.1025114
  5. Helmich-Paris, B.
     A trust-region augmented Hessian implementation for restricted and unrestricted Hartree–Fock and Kohn–Sham methods
     J. Chem. Phys. 2021 154 , 164104
     doi.org/10.1063/5.0040798
  6. Neese, F.
     The SHARK Integral Generation and Digestion System
     J. Comp. Chem. 2022 44(3), 381
     doi.org/10.1002/jcc.26942

List of suggested additional citations. These are papers that are important in the 'surrounding' of 
of this run, or papers that preceded the highly important papers. If you like your results we are grateful for a citation.

  1. Neese, F.
     The ORCA program system
     WIRES Comput. Molec. Sci. 2012 2(1), 73-78
     doi.org/10.1002/wcms.81
  2. Neese, F.
     Software update: the ORCA program system, version 4.0
     WIRES Comput. Molec. Sci. 2018 8(1), 1-6
     doi.org/10.1002/wcms.1327
  3. Neese, F.; Wennmohs, F.; Becker, U.; Riplinger, C.
     The ORCA quantum chemistry program package
     J. Chem. Phys. 2020 152(22), 224108
     doi.org/10.1063/5.0004608
  4. Neese, F.
     Software update: The ORCA program system—Version 5.0
     WIRES Comput. Molec. Sci. 2022 12(1), e1606
     doi.org/10.1002/wcms.1606

List of optional additional citations

  1. Neese, F.
     Approximate second-order SCF convergence for spin unrestricted wavefunctions
     Chem. Phys. Lett. 2000 325(1-3), 93-98
     doi.org/10.1016/s0009-2614(00)00662-x

Timings for individual modules:

Sum of individual times          ...     9908.102 sec (= 165.135 min)
Startup calculation              ...      390.359 sec (=   6.506 min)   3.9 %
SCF iterations                   ...     2130.565 sec (=  35.509 min)  21.5 %
Property integrals               ...     2472.315 sec (=  41.205 min)  25.0 %
SCF Response                     ...     1752.052 sec (=  29.201 min)  17.7 %
Property calculations            ...     2150.090 sec (=  35.835 min)  21.7 %
SCF Gradient evaluation          ...      976.086 sec (=  16.268 min)   9.9 %
Geometry relaxation              ...       36.635 sec (=   0.611 min)   0.4 %
                             ****ORCA TERMINATED NORMALLY****
TOTAL RUN TIME: 0 days 2 hours 45 minutes 30 seconds 732 msec
