
                                 *****************
                                 * O   R   C   A *
                                 *****************

                                            #,                                       
                                            ###                                      
                                            ####                                     
                                            #####                                    
                                            ######                                   
                                           ########,                                 
                                     ,,################,,,,,                         
                               ,,#################################,,                 
                          ,,##########################################,,             
                       ,#########################################, ''#####,          
                    ,#############################################,,   '####,        
                  ,##################################################,,,,####,       
                ,###########''''           ''''###############################       
              ,#####''   ,,,,##########,,,,          '''####'''          '####       
            ,##' ,,,,###########################,,,                        '##       
           ' ,,###''''                  '''############,,,                           
         ,,##''                                '''############,,,,        ,,,,,,###''
      ,#''                                            '''#######################'''  
     '                                                          ''''####''''         
             ,#######,   #######,   ,#######,      ##                                
            ,#'     '#,  ##    ##  ,#'     '#,    #''#        ,####,    ,#,          
            ##       ##  ##   ,#'  ##            #'  '#       #'       ,# #          
            ##       ##  #######   ##           ,######,      #####,      #          
            '#,     ,#'  ##    ##  '#,     ,#' ,#      #,     #,   #      #          
             '#######'   ##     ##  '#######'  #'      '#     '####' #    #          



                #########################################################
                #                        -***-                          #
                #          Department of theory and spectroscopy        #
                #                                                       #
                #                      Frank Neese                      #
                #                                                       #
                #     Directorship, Architecture, Infrastructure        #
                #                    SHARK, DRIVERS                     #
                #        Core code/Algorithms in most modules           #
                #                                                       #
                #        Max Planck Institute fuer Kohlenforschung      #
                #                Kaiser Wilhelm Platz 1                 #
                #                 D-45470 Muelheim/Ruhr                 #
                #                      Germany                          #
                #                                                       #
                #                  All rights reserved                  #
                #                        -***-                          #
                #########################################################


                         Program Version 6.1.0  -  RELEASE   -
                                (GIT: $679e74b$)
                          ($2025-06-10 18:02:51 +0200$)


 With contributions from (in alphabetic order):
[Max-Planck-Institut fuer Kohlenforschung]                               
  Daniel Aravena         : Magnetic Suceptibility                        
  Michael Atanasov       : Ab Initio Ligand Field Theory (pilot matlab implementation)
  Alexander A. Auer      : GIAO ZORA, VPT2 properties, NMR spectrum      
  Ute Becker             : All parallelization in ORCA, NUMFREQ, NUMCALC 
  Giovanni Bistoni       : ED, misc. LED, open-shell LED, HFLD           
  Dmytro Bykov           : pre 5.0 version of the SCF Hessian            
  Marcos Casanova-Páez   : Triplet and SCS-CIS(D). UHF-(DLPNO)-IP/EA/STEOM-CCSD. UHF-CVS-IP/STEOM-CCSD   
  Vijay G. Chilkuri      : MRCI spin determinant printing, contributions to CSF-ICE 
  Pauline Colinet        : FMM embedding                                 
  Dipayan Datta          : RHF DLPNO-CCSD density                        
  Achintya Kumar Dutta   : EOM-CC, STEOM-CC                              
  Nicolas Foglia         : Exact transition moments, OPA infrastructure, MCD improvements    
  Dmitry Ganyushin       : Spin-Orbit,Spin-Spin,Magnetic field MRCI      
  Miquel Garcia-Rates    : C-PCM and meta-GGA Hessian, CCSD/C-PCM, Gaussian charge scheme 
  Tiago L. C. Gouveia    : GS-ROHF, GS-ROCIS                             
  Yang Guo               : DLPNO-NEVPT2, F12-NEVPT2, CIM, IAO-localization        
  Andreas Hansen         : Spin unrestricted coupled pair/coupled cluster methods 
  Ingolf Harden          : AUTO-CI MPn and infrastructure                
  Benjamin Helmich-Paris : MC-RPA, TRAH-(SCF,CASSCF), AVAS, COSX integrals, SCF dyn. polar., MC-PDFT, srDFT 
  Lee Huntington         : MR-EOM, pCC                                   
  Robert Izsak           : Overlap fitted RIJCOSX, COSX-SCS-MP3, EOM     
  Riya Kayal             : Wick's Theorem for AUTO-CI, AUTO-CI UHF-CCSDT 
  Emily Kempfer          : AUTO-CI RHF CISDT and CCSDT, approximate NEVPT4
  Christian Kollmar      : KDIIS, OOCD, Brueckner-CCSD(T), CCSD density, CASPT2, CASPT2-K, improved NEVPT2 
  Axel Koslowski         : Symmetry handling                             
  Simone Kossmann        : meta-GGA functionals, TD-DFT gradient, OOMP2, (MP2 Hessian; deprecated post 5.0) 
  Lucas Lang             : DCDCAS, Hyperfine gauge corrections, ICE-SOC+SSC
  Marvin Lechner         : AUTO-CI (C++ implementation), FIC-MRCC        
  Spencer Leger          : CASSCF response                               
  Dagmar Lenk            : GEPOL surface, SMD, ORCA-2-JSON               
  Dimitrios Liakos       : Extrapolation schemes; Compound Job, Property file
  Dimitrios Manganas     : Further ROCIS development; embedding schemes. LFT, Crystal Embedding 
  Dimitrios Pantazis     : SARC Basis sets                               
  Anastasios Papadopoulos: AUTO-CI, single reference methods and gradients 
  Taras Petrenko         : pre 6.0 DFT Hessian and TD-DFT gradient,  ECA, NRVS 
  Petra Pikulova         : Analytic Raman intensities                    
  Peter Pinski           : DLPNO-MP2, DLPNO-MP2 Gradient                 
  Shashank Vittal Rao    : ES-AILFT, MagRelax                            
  Christoph Reimann      : Effective Core Potentials                     
  Marius Retegan         : Local ZFS, SOC                                
  Christoph Riplinger    : Optimizer, TS searches, QM/MM, DLPNO-CCSD(T), (RO)-DLPNO pert. Triples 
  Michael Roemelt        : Original ROCIS implementation, recursive CI coupling coefficients
  Masaaki Saitow         : Open-shell DLPNO-CCSD energy and density      
  Barbara Sandhoefer     : DKH picture change effects                    
  Yorick L. A. Schmerwitz: GMF and freeze-and-release deltaSCF, NEB S-IDPP initial path                    
  Kantharuban Sivalingam : CASSCF convergence/infrastructure, NEVPT2, NEVPT3, NEVPT4(SD), FIC-MRCI and CEPA variants
  Bernardo de Souza      : ESD, SOC TD-DFT                               
  Georgi L. Stoychev     : AutoAux, RI-MP2 NMR, DLPNO-MP2 response, X2C  
  Van Anh Tran           : RI-MP2 g-tensors                              
  Willem Van den Heuvel  : Paramagnetic NMR                              
  Zikuan Wang            : NOTCH, Electric field optimization            
  Frank Wennmohs         : Technical directorship and infrastructure     
  Hang Xu                : AUTO-CI-Response properties                   
                                                                         
[FACCTs GmbH]                                                            
  Markus Bursch, Nicolas Foglia, Miquel Garcia-Rates, Ingolf Harden, Hagen Neugebauer, Anastasios Papadopoulos, 
  Christoph Riplinger, Bernardo de Souza, Georgi L. Stoychev                                                    
                                                                 
  APM, various basis sets, CI-OPT, improved COSX, DLPNO-Multilevel,           
  DOCKER, DRACO, updates on ESD, Fragmentator, GOAT, IRC, LR-CPCM, L-BFGS, MBIS, meta-GGA TD-DFT gradient, ML-optimized integration grids, 
  MM, NACMEs, nearIR, NEB, NEB-TS, NL-DFT gradient (VV10), 2- and 3-layer-ONIOM, interface openCOSMO-RS, QMMM,   
  Crystal-QMMM, RESP, rigid body optimization, SF, symmetry and pop. for TD-DFT, various functionals, SOLVATOR                                   
                                                                         
[Other institutions]                                                     
  V. Asgeirsson          : NEB                                           
  Christoph Bannwarth    : sTDA-DFT, sTD-DFT, PBEh-3c, B97-3c, D3        
  Giovanni Bistoni       : ETS/NOCV, ADLD/ADEX, COVALED                  
  Martin Brehm           : Molecular dynamics                            
  Ronald Cardenas        : ETS/NOCV                                      
  Martina Colucci        : COVALED                                       
  Sebastian Ehlert       : rSCAN, r2SCAN, r2SCAN-3c, D4, dhf basis sets  
  Marvin Friede          : D4 for Fr, Ra, Ac-Lr                          
  Lars Goerigk           : TD-DFT with DH, B97 family of functionals     
  Stefan Grimme          : VdW corrections, initial TS optimization, DFT functionals, gCP, sTDA/sTD-DF 
  Waldemar Hujo          : DFT-NL                                        
  H. Jonsson             : NEB                                           
  Holger Kruse           : gCP                                           
  Marcel Mueller         : wB97X-3c, vDZP basis set                      
  Hagen Neugebauer       : wr2SCAN, Native XTB                           
  Gianluca Regni         : ADLD/ADEX                                     
  Tobias Risthaus        : pre 6.0 range-separated hybrid DFT and stability analysis
  Lukas Wittmann         : regularized MP2, r2SCAN double-hybrids, wr2SCAN        
                                                                         
We gratefully acknowledge several colleagues who have allowed us to      
interface, adapt or use parts of their codes:                            
  Ed Valeev, F. Pavosevic, A. Kumar             : LibInt (2-el integral package), F12 methods 
  Garnet Chan, S. Sharma, J. Yang, R. Olivares  : DMRG                   
  Ulf Ekstrom                                   : XCFun DFT Library      
  Mihaly Kallay                                 : mrcc  (arbitrary order and MRCC methods)
  Frank Weinhold                                : gennbo (NPA and NBO analysis)           
  Simon Mueller                                 : openCOSMO-RS                            
  Christopher J. Cramer and Donald G. Truhlar   : smd solvation model                     
  S Lehtola, MJT Oliveira, MAL Marques          : LibXC Library                           
  Liviu Ungur et al                             : ANISO software                          


 Your calculation uses the libint2 library for the computation of 2-el integrals
 For citations please refer to: http://libint.valeyev.net

 Your ORCA version has been built with support for libXC version: 7.0.0
 For citations please refer to: https://libxc.gitlab.io

 This ORCA versions uses:
   CBLAS   interface :  Fast vector & matrix operations
   LAPACKE interface :  Fast linear algebra routines
   SCALAPACK package :  Parallel linear algebra routines
   Shared memory     :  Shared parallel matrices
   BLAS/LAPACK       :  OpenBLAS 0.3.29  USE64BITINT DYNAMIC_ARCH NO_AFFINITY Prescott SINGLE_THREADED
        Core in use  :  Prescott
   Copyright (c) 2011-2014, The OpenBLAS Project


  ***********************************
  * Starting time: Sat Aug 16 17:44:23 2025
  * Host name:     cuda3
  * Process ID:    286677
  * Working dir.:  /local/scratch/mehlhorn/62070
  ***********************************



***************************************
The coordinates will be read from file: start.xyz
***************************************


Your calculation utilizes the geometrical counterpoise correction gCP
Please cite in your paper:
H.Kruse, S. Grimme J.Chem.Phys., 136, (2012), 154101 
   

Your calculation utilizes the atom-pairwise dispersion correction
with the Becke-Johnson damping scheme (D3BJ)


Your calculation employs the composite approach PBEh-3c.
Please cite in your paper:
Grimme, S.; Brandenburg, J. G.; Bannwarth, C.; Hansen A. J. Chem. Phys. 2015, 143, 054107 
   

================================================================================

----- Orbital basis set information -----
Your calculation utilizes the basis: def2-mSVP

----- AuxJ basis set information -----
Your calculation utilizes the auxiliary basis: def2-mSVP/J
================================================================================
                                        WARNINGS
                       Please study these warnings very carefully!
================================================================================


WARNING: Geometry Optimization
  ===> : Switching off AutoStart
         For restart on a previous wavefunction, please use MOREAD

================================================================================
                                       INPUT FILE
================================================================================
NAME = run.inp
|  1> # Geometry optimization for (AlH3)n cluster
|  2> 
|  3> %pal nprocs 24  end
|  4> 
|  5> %geom MaxIter 500 end
|  6> 
|  7> %elprop Polar 1 end # invoke raman
|  8> 
|  9> ! PBEh-3c
| 10> ! RKS	# closed shell for AlH3
| 11> ! Freq 	# Frequency analysis to check the stabiltity of the structures
| 12> 
| 13> 
| 14> ! NoPop # population analysis not necessary	
| 15> 
| 16> ! DEFGRID3
| 17> ! ExtremeSCF
| 18> ! VeryTightOpt
| 19> 
| 20> 
| 21> ! SmallPrint
| 22> 
| 23> 
| 24> * xyzFile 0 1 start.xyz # only maingroup elements H and Al so there should be no net spin
| 25> 
| 26>                          ****END OF INPUT****
================================================================================

                       *****************************
                       * Geometry Optimization Run *
                       *****************************

Geometry optimization settings:
Update method            Update   .... BFGS
Choice of coordinates    CoordSys .... (2022) Redundant Internals
Initial Hessian          InHess   .... Almloef's Model
Max. no of cycles        MaxIter  .... 500

Convergence Tolerances:
Energy Change            TolE     ....  2.0000e-07 Eh
Max. Gradient            TolMAXG  ....  3.0000e-05 Eh/bohr
RMS Gradient             TolRMSG  ....  8.0000e-06 Eh/bohr
Max. Displacement        TolMAXD  ....  2.0000e-04 bohr
RMS Displacement         TolRMSD  ....  1.0000e-04 bohr
Strict Convergence                .... False

------------------------------------------------------------------------------
                        ORCA OPTIMIZATION COORDINATE SETUP
------------------------------------------------------------------------------

The optimization will be done in redundant internal coordinates (2022)
Making redundant internal coordinates   ...  (2022 redundants) done
Evaluating the initial hessian          ...  (Almloef) done
Evaluating the coordinates              ...  done
Calculating the B-matrix                .... done
Calculating the G-matrix                .... done
The number of degrees of freedom        ....  117

    -----------------------------------------------------------------
                    Redundant Internal Coordinates


    -----------------------------------------------------------------
         Definition                    Initial Value    Approx d2E/dq
    -----------------------------------------------------------------
      1. B(Al  1,Al  0)                  3.0622         0.065912   
      2. B(H   2,Al  1)                  1.7226         0.246991   
      3. B(H   3,Al  1)                  1.5864         0.407364   
      4. B(H   4,Al  1)                  1.7227         0.246910   
      5. B(H   4,Al  0)                  1.7220         0.247542   
      6. B(H   5,Al  0)                  1.5868         0.406758   
      7. B(H   6,Al  0)                  1.7159         0.253200   
      8. B(H   7,Al  1)                  1.5864         0.407397   
      9. B(Al  8,H   6)                  1.7159         0.253137   
     10. B(Al  8,H   2)                  1.7220         0.247556   
     11. B(Al  8,Al  1)                  3.0659         0.065020   
     12. B(Al  8,Al  0)                  3.0732         0.063297   
     13. B(H   9,Al  8)                  1.5868         0.406762   
     14. B(H  10,Al  8)                  1.5874         0.405873   
     15. B(H  11,Al  0)                  1.5875         0.405806   
     16. A(H   4,Al  0,H   6)           98.0851         0.327835   
     17. A(Al  1,Al  0,H   4)           27.2634         0.303830   
     18. A(Al  1,Al  0,Al  8)           59.9608         0.281458   
     19. A(Al  8,Al  0,H  11)          103.5673         0.327070   
     20. A(H   4,Al  0,H   5)          104.4110         0.354886   
     21. A(H   6,Al  0,H  11)          106.7661         0.356107   
     22. A(Al  1,Al  0,H   5)          131.5048         0.329389   
     23. A(Al  1,Al  0,H  11)           88.7869         0.329261   
     24. A(H   5,Al  0,H  11)          128.8787         0.386360   
     25. A(H   5,Al  0,H   6)          105.8828         0.356249   
     26. A(H   4,Al  0,Al  8)           74.2358         0.301871   
     27. A(Al  1,Al  0,H   6)           86.3833         0.304932   
     28. A(H   5,Al  0,Al  8)          122.5105         0.327197   
     29. A(H   4,Al  0,H  11)          108.6349         0.354745   
     30. A(H   6,Al  0,Al  8)           26.4256         0.302963   
     31. A(H   2,Al  1,H   7)          104.7658         0.354846   
     32. A(H   3,Al  1,H   4)          104.7603         0.354821   
     33. A(Al  0,Al  1,H   3)          127.3478         0.329470   
     34. A(H   2,Al  1,H   4)           95.8450         0.326359   
     35. A(H   4,Al  1,Al  8)           74.4431         0.303045   
     36. A(H   3,Al  1,Al  8)           98.6375         0.328730   
     37. A(H   2,Al  1,H   3)          109.3937         0.354841   
     38. A(H   2,Al  1,Al  8)           27.1138         0.303061   
     39. A(Al  0,Al  1,Al  8)           60.1979         0.282632   
     40. A(H   7,Al  1,Al  8)          127.3487         0.328734   
     41. A(Al  0,Al  1,H   4)           27.2515         0.303706   
     42. A(H   4,Al  1,H   7)          109.3862         0.354826   
     43. A(Al  0,Al  1,H   7)           98.7251         0.329474   
     44. A(Al  0,Al  1,H   2)           74.2291         0.303722   
     45. A(H   3,Al  1,H   7)          128.0682         0.386724   
     46. A(Al  1,H   2,Al  8)          125.7617         0.326500   
     47. A(Al  0,H   4,Al  1)          125.4851         0.326479   
     48. A(Al  0,H   6,Al  8)          127.1500         0.329046   
     49. A(Al  1,Al  8,H   2)           27.1244         0.303172   
     50. A(Al  0,Al  8,H   2)           73.9129         0.301874   
     51. A(Al  0,Al  8,Al  1)           59.8412         0.280866   
     52. A(H   6,Al  8,H  10)          106.6748         0.356102   
     53. A(H   2,Al  8,H  10)          108.6589         0.354758   
     54. A(Al  1,Al  8,H  10)           89.0497         0.328531   
     55. A(Al  0,Al  8,H  10)          104.3239         0.327079   
     56. A(H   6,Al  8,H   9)          105.9660         0.356234   
     57. A(H   9,Al  8,H  10)          128.8696         0.386372   
     58. A(H   2,Al  8,H   9)          104.3829         0.354890   
     59. A(Al  1,Al  8,H   9)          131.3129         0.328649   
     60. A(Al  0,Al  8,H   9)          121.8776         0.327197   
     61. A(H   2,Al  8,H   6)           98.1226         0.327825   
     62. A(Al  1,Al  8,H   6)           86.2626         0.304255   
     63. A(Al  0,Al  8,H   6)           26.4245         0.302951   
     64. D(H   2,Al  1,Al  0,H   4)   -141.2078         0.010000   
     65. D(H   3,Al  1,Al  0,H   6)     76.9003         0.010000   
     66. D(H   3,Al  1,Al  0,H   5)    -31.1727         0.010000   
     67. D(H   3,Al  1,Al  0,Al  8)     77.3281         0.010000   
     68. D(H   2,Al  1,Al  0,Al  8)    -25.2939         0.010000   
     69. D(H   3,Al  1,Al  0,H   4)    -38.5858         0.010000   
     70. D(H   2,Al  1,Al  0,H   6)    -25.7217         0.010000   
     71. D(H   2,Al  1,Al  0,H   5)   -133.7947         0.010000   
     72. D(H   2,Al  1,Al  0,H  11)     81.1628         0.010000   
     73. D(H   3,Al  1,Al  0,H  11)   -176.2152         0.010000   
     74. D(Al  8,H   2,Al  1,H   7)    149.5196         0.010000   
     75. D(Al  8,H   2,Al  1,H   3)    -70.2339         0.010000   
     76. D(Al  8,H   2,Al  1,Al  0)     54.4382         0.010000   
     77. D(Al  8,H   2,Al  1,H   4)     37.6777         0.010000   
     78. D(Al  1,H   4,Al  0,H   5)   -174.2745         0.010000   
     79. D(Al  0,H   4,Al  1,H   7)    -70.6105         0.010000   
     80. D(Al  0,H   4,Al  1,Al  8)     54.1134         0.010000   
     81. D(Al  0,H   4,Al  1,H   3)    149.1542         0.010000   
     82. D(Al  0,H   4,Al  1,H   2)     37.3055         0.010000   
     83. D(Al  1,H   4,Al  0,H  11)     45.3204         0.010000   
     84. D(Al  1,H   4,Al  0,Al  8)    -54.0053         0.010000   
     85. D(Al  1,H   4,Al  0,H   6)    -65.4966         0.010000   
     86. D(Al  8,H   6,Al  0,H   4)     25.5189         0.010000   
     87. D(Al  8,H   6,Al  0,Al  1)      0.8321         0.010000   
     88. D(Al  8,H   6,Al  0,H   5)    133.0829         0.010000   
     89. D(Al  8,H   6,Al  0,H  11)    -86.8068         0.010000   
     90. D(Al  1,Al  8,Al  0,H  11)    -80.5199         0.010000   
     91. D(Al  1,Al  8,Al  0,H   6)    179.0407         0.010000   
     92. D(Al  1,Al  8,Al  0,H   5)    122.6300         0.010000   
     93. D(H   2,Al  8,Al  0,Al  1)     25.3464         0.010000   
     94. D(Al  1,Al  8,Al  0,H   4)     25.3487         0.010000   
     95. D(H   9,Al  8,H   6,Al  0)    131.1921         0.010000   
     96. D(H   2,Al  8,H   6,Al  0)     23.6252         0.010000   
     97. D(Al  1,Al  8,H   6,Al  0)     -0.8312         0.010000   
     98. D(H  10,Al  8,H   2,Al  1)     45.7658         0.010000   
     99. D(H   9,Al  8,H   2,Al  1)   -173.8452         0.010000   
    100. D(H   6,Al  8,H   2,Al  1)    -64.9738         0.010000   
    101. D(H   6,Al  8,Al  1,H   2)    115.9815         0.010000   
    102. D(H   6,Al  8,Al  1,Al  0)      0.4278         0.010000   
    103. D(H   2,Al  8,Al  1,H   7)    -38.0976         0.010000   
    104. D(H   2,Al  8,Al  1,H   4)   -140.8639         0.010000   
    105. D(H   2,Al  8,Al  1,H   3)    116.1210         0.010000   
    106. D(H   2,Al  8,Al  1,Al  0)   -115.5537         0.010000   
    107. D(Al  0,Al  8,Al  1,H   7)     77.4561         0.010000   
    108. D(Al  0,Al  8,Al  1,H   4)    -25.3102         0.010000   
    109. D(Al  0,Al  8,H   2,Al  1)    -54.2771         0.010000   
    110. D(Al  0,Al  8,Al  1,H   3)   -128.3254         0.010000   
    111. D(Al  0,Al  8,Al  1,H   2)    115.5537         0.010000   
    112. D(H   6,Al  8,Al  0,Al  1)   -179.0407         0.010000   
    113. D(H   2,Al  8,Al  0,H  11)    -55.1734         0.010000   
    114. D(H   2,Al  8,Al  0,H   6)   -155.6129         0.010000   
    115. D(H   2,Al  8,Al  0,H   5)    147.9764         0.010000   
    116. D(H  10,Al  8,H   6,Al  0)    -88.7155         0.010000   
    117. D(H   2,Al  8,Al  0,H   4)     50.6951         0.010000   
    -----------------------------------------------------------------

Number of atoms                         .... 12
Number of degrees of freedom            .... 117


         *************************************************************
         *                GEOMETRY OPTIMIZATION CYCLE   1            *
         *************************************************************
---------------------------------
CARTESIAN COORDINATES (ANGSTROEM)
---------------------------------
  Al    -0.229465    1.518719    2.565333
  Al     0.000121   -0.000507   -0.083536
  H      0.872783   -0.936113    1.069964
  H     -1.104267   -0.908414   -0.771134
  H     -0.863230    0.941627    1.071787
  H     -1.473542    2.184480    3.291334
  H      0.004056    0.000973    3.330927
  H      1.098729    0.903679   -0.785103
  Al     0.255690   -1.515992    2.569382
  H      1.513180   -2.162656    3.289507
  H     -1.180669   -2.143678    2.318759
  H      1.213553    2.126193    2.303140

----------------------------
CARTESIAN COORDINATES (A.U.)
----------------------------
  NO LB      ZA    FRAG     MASS         X           Y           Z
   0 Al   13.0000    0    26.982   -0.433626    2.869962    4.847776
   1 Al   13.0000    0    26.982    0.000229   -0.000959   -0.157861
   2 H     1.0000    0     1.008    1.649321   -1.768997    2.021939
   3 H     1.0000    0     1.008   -2.086762   -1.716654   -1.457233
   4 H     1.0000    0     1.008   -1.631268    1.779418    2.025385
   5 H     1.0000    0     1.008   -2.784590    4.128070    6.219720
   6 H     1.0000    0     1.008    0.007665    0.001839    6.294540
   7 H     1.0000    0     1.008    2.076297    1.707705   -1.483630
   8 Al   13.0000    0    26.982    0.483184   -2.864810    4.855428
   9 H     1.0000    0     1.008    2.859496   -4.086827    6.216267
  10 H     1.0000    0     1.008   -2.231141   -4.050964    4.381820
  11 H     1.0000    0     1.008    2.293282    4.017922    4.352305

--------------------------------
INTERNAL COORDINATES (ANGSTROEM)
--------------------------------
 Al     0   0   0     0.000000000000     0.00000000     0.00000000
 Al     1   0   0     3.062231852220     0.00000000     0.00000000
 H      2   1   0     1.722631792243    74.22913359     0.00000000
 H      2   1   3     1.586429302671   127.34776376   102.62200927
 H      1   2   3     1.722024901215    27.26343208   218.79222111
 H      1   2   3     1.586834590663   131.50484193   226.20526448
 H      1   2   3     1.715872586925    86.38332633   334.27831826
 H      2   1   3     1.586407342652    98.72509446   257.02087331
 Al     7   1   2     1.715941375183   127.14995378     0.83209086
 H      9   7   1     1.586832060228   105.96604999   131.19212961
 H      9   7   1     1.587427891101   106.67476505   271.28446731
 H      1   2   3     1.587472406968    88.78687095    81.16283218

---------------------------
INTERNAL COORDINATES (A.U.)
---------------------------
 Al     0   0   0     0.000000000000     0.00000000     0.00000000
 Al     1   0   0     5.786779559266     0.00000000     0.00000000
 H      2   1   0     3.255302316926    74.22913359     0.00000000
 H      2   1   3     2.997916912876   127.34776376   102.62200927
 H      1   2   3     3.254155459090    27.26343208   218.79222111
 H      1   2   3     2.998682796186   131.50484193   226.20526448
 H      1   2   3     3.242529269992    86.38332633   334.27831826
 H      2   1   3     2.997875414453    98.72509446   257.02087331
 Al     7   1   2     3.242659260960   127.14995378     0.83209086
 H      9   7   1     2.998678014358   105.96604999   131.19212961
 H      9   7   1     2.999803971529   106.67476505   271.28446731
 H      1   2   3     2.999888094326    88.78687095    81.16283218

---------------------
BASIS SET INFORMATION
---------------------
There are 2 groups of distinct atoms

 Group   1 Type Al  : 10s7p1d contracted to 4s3p1d pattern {5311/511/1}
 Group   2 Type H   : 4s contracted to 2s pattern {31}

Atom   0Al   basis set group =>   1
Atom   1Al   basis set group =>   1
Atom   2H    basis set group =>   2
Atom   3H    basis set group =>   2
Atom   4H    basis set group =>   2
Atom   5H    basis set group =>   2
Atom   6H    basis set group =>   2
Atom   7H    basis set group =>   2
Atom   8Al   basis set group =>   1
Atom   9H    basis set group =>   2
Atom  10H    basis set group =>   2
Atom  11H    basis set group =>   2
---------------------------------
AUXILIARY/J BASIS SET INFORMATION
---------------------------------
There are 2 groups of distinct atoms

 Group   1 Type Al  : 14s5p5d2f1g contracted to 8s4p3d1f1g pattern {71111111/2111/311/2/1}
 Group   2 Type H   : 5s2p1d contracted to 3s1p1d pattern {311/2/1}

Atom   0Al   basis set group =>   1
Atom   1Al   basis set group =>   1
Atom   2H    basis set group =>   2
Atom   3H    basis set group =>   2
Atom   4H    basis set group =>   2
Atom   5H    basis set group =>   2
Atom   6H    basis set group =>   2
Atom   7H    basis set group =>   2
Atom   8Al   basis set group =>   1
Atom   9H    basis set group =>   2
Atom  10H    basis set group =>   2
Atom  11H    basis set group =>   2


           ************************************************************
           *        Program running with 24 parallel MPI-processes    *
           *              working on a common directory               *
           ************************************************************
------------------------------------------------------------------------------
                             ORCA STARTUP CALCULATIONS
                           -- RI-GTO INTEGRALS CHOSEN --
------------------------------------------------------------------------------
------------------------------------------------------------------------------
                   ___                                                        
                  /   \      - P O W E R E D   B Y -                         
                 /     \                                                     
                 |  |  |   _    _      __       _____    __    __             
                 |  |  |  | |  | |    /  \     |  _  \  |  |  /  |          
                  \  \/   | |  | |   /    \    | | | |  |  | /  /          
                 / \  \   | |__| |  /  /\  \   | |_| |  |  |/  /          
                |  |  |   |  __  | /  /__\  \  |    /   |      \           
                |  |  |   | |  | | |   __   |  |    \   |  |\   \          
                \     /   | |  | | |  |  |  |  | |\  \  |  | \   \       
                 \___/    |_|  |_| |__|  |__|  |_| \__\ |__|  \__/        
                                                                              
                      - O R C A' S   B I G   F R I E N D -                    
                                      &                                       
                       - I N T E G R A L  F E E D E R -                       
                                                                              
 v1 FN, 2020, v2 2021, v3 2022-2024                                           
------------------------------------------------------------------------------


----------------------
SHARK INTEGRAL PACKAGE
----------------------

Number of atoms                             ...     12
Number of basis functions                   ...     72
Number of shells                            ...     42
Maximum angular momentum                    ...      2
Integral batch strategy                     ... SHARK/LIBINT Hybrid
RI-J (if used) integral strategy            ... SPLIT-RIJ (Revised 2003 algorithm where possible)
Printlevel                                  ...      1
Contraction scheme used                     ... SEGMENTED contraction
Prescreening option                         ... SCHWARTZ
   Thresh                                   ... 3.000e-16
   Tcut                                     ... 3.000e-16
   Tpresel                                  ... 3.000e-16 
Coulomb Range Separation                    ... NOT USED
Exchange Range Separation                   ... NOT USED
Multipole approximations                    ... NOT USED
Finite Nucleus Model                        ... NOT USED
CABS basis                                  ... NOT available
Auxiliary Coulomb fitting basis             ... AVAILABLE
   # of basis functions in Aux-J            ...    252
   # of shells in Aux-J                     ...     96
   Maximum angular momentum in Aux-J        ...      4
Auxiliary J/K fitting basis                 ... NOT available
Auxiliary Correlation fitting basis         ... NOT available
Auxiliary 'external' fitting basis          ... NOT available

Checking pre-screening integrals            ... done (  0.0 sec) Dimension = 42
   => SHARK Basis and OBASIS are compatible. Storing Pre-screening
Shell pair information
Shell pair cut-off parameter TPreSel        ...   3.0e-16
Total number of shell pairs                 ...       903
Shell pairs after pre-screening             ...       882
Total number of primitive shell pairs       ...      4191
Primitive shell pairs kept                  ...      3041
          la=0 lb=0:    450 shell pairs
          la=1 lb=0:    264 shell pairs
          la=1 lb=1:     45 shell pairs
          la=2 lb=0:     90 shell pairs
          la=2 lb=1:     27 shell pairs
          la=2 lb=2:      6 shell pairs

Checking whether 4 symmetric matrices of dimension 72 fit in memory
:Max Core in MB      =   4096.00
 MB in use           =      4.47
 MB left             =   4091.53
 MB needed           =      0.08
 Data fit in memory  = YES
Calculating RI/J V-Matrix + Cholesky decomp.... done (  0.0 sec)
Calculating Nuclear repulsion               ... done (  0.0 sec) ENN=    170.928148442860 Eh

Diagonalization of the overlap matrix:
Smallest eigenvalue                        ... 1.083e-02
Time for diagonalization                   ...    0.002 sec
Threshold for overlap eigenvalues          ... 1.000e-07
Number of eigenvalues below threshold      ... 0
Time for construction of square roots      ...    0.001 sec
Total time needed                          ...    0.005 sec

-------------------
DFT GRID GENERATION
-------------------

General Integration Accuracy     IntAcc      ... 4.959
Radial Grid Type                 RadialGrid  ... OptM3 with GC (2021)
Angular Grid (max. ang.)         AngularGrid ... 6 (Lebedev-590)
Angular grid pruning method      GridPruning ... 4 (adaptive)
Weight generation scheme         WeightScheme... mBecke (2022)
Basis function cutoff            BFCut       ... 3.0000e-16
Integration weight cutoff        WCut        ... 1.0000e-14
Partially contracted basis set               ... off
Rotationally invariant grid construction     ... off
Angular grids for H and He will be reduced by one unit

Total number of grid points                  ...   128059
Total number of batches                      ...     2007
Average number of points per batch           ...       63
Average number of grid points per atom       ...    10672

--------------------
COSX GRID GENERATION
--------------------

GRIDX 1
-------
General Integration Accuracy     IntAcc      ... 4.020
Radial Grid Type                 RadialGrid  ... OptM3 with GC (2021)
Angular Grid (max. ang.)         AngularGrid ... 2 (Lebedev-110)
Angular grid pruning method      GridPruning ... 4 (adaptive)
Weight generation scheme         WeightScheme... mBecke (2022)
Basis function cutoff            BFCut       ... 3.0000e-16
Integration weight cutoff        WCut        ... 1.0000e-14
Partially contracted basis set               ... on
Rotationally invariant grid construction     ... off
Angular grids for H and He will be reduced by one unit

Total number of grid points                  ...    12853
Total number of batches                      ...      106
Average number of points per batch           ...      121
Average number of grid points per atom       ...     1071
UseSFitting                                  ... on

GRIDX 2
-------
General Integration Accuracy     IntAcc      ... 4.338
Radial Grid Type                 RadialGrid  ... OptM3 with GC (2021)
Angular Grid (max. ang.)         AngularGrid ... 3 (Lebedev-194)
Angular grid pruning method      GridPruning ... 4 (adaptive)
Weight generation scheme         WeightScheme... mBecke (2022)
Basis function cutoff            BFCut       ... 3.0000e-16
Integration weight cutoff        WCut        ... 1.0000e-14
Partially contracted basis set               ... on
Rotationally invariant grid construction     ... off
Angular grids for H and He will be reduced by one unit

Total number of grid points                  ...    29704
Total number of batches                      ...      238
Average number of points per batch           ...      124
Average number of grid points per atom       ...     2475
UseSFitting                                  ... on

GRIDX 3
-------
General Integration Accuracy     IntAcc      ... 4.871
Radial Grid Type                 RadialGrid  ... OptM3 with GC (2021)
Angular Grid (max. ang.)         AngularGrid ... 4 (Lebedev-302)
Angular grid pruning method      GridPruning ... 4 (adaptive)
Weight generation scheme         WeightScheme... mBecke (2022)
Basis function cutoff            BFCut       ... 3.0000e-16
Integration weight cutoff        WCut        ... 1.0000e-14
Partially contracted basis set               ... on
Rotationally invariant grid construction     ... off
Angular grids for H and He will be reduced by one unit

Total number of grid points                  ...    59622
Total number of batches                      ...      469
Average number of points per batch           ...      127
Average number of grid points per atom       ...     4968
UseSFitting                                  ... on
Grids setup in   3.3 sec
Initializing property integral containers    ... done (  0.0 sec)

SHARK setup successfully completed in   3.4 seconds

Maximum memory used throughout the entire STARTUP-calculation: 26.0 MB


           ************************************************************
           *        Program running with 24 parallel MPI-processes    *
           *              working on a common directory               *
           ************************************************************
-------------------------------------------------------------------------------
                                 ORCA GUESS
                   Start orbitals & Density for SCF / CASSCF
-------------------------------------------------------------------------------

------------
SCF SETTINGS
------------
Hamiltonian:
 Density Functional     Method          .... DFT(GTOs)
 Exchange Functional    Exchange        .... PBE
   PBE kappa parameter   XKappa         ....  1.024500
   PBE mue parameter    XMuePBE         ....  0.123457
 Correlation Functional Correlation     .... PBE
   PBE beta parameter  CBetaPBE         ....  0.030000
 LDA part of GGA corr.  LDAOpt          .... PW91-LDA
 Gradients option       PostSCFGGA      .... off
 Hybrid DFT is turned on
   Fraction HF Exchange ScalHFX         ....  0.420000
   Scaling of DF-GGA-X  ScalDFX         ....  0.580000
   Scaling of DF-GGA-C  ScalDFC         ....  1.000000
   Scaling of DF-LDA-C  ScalLDAC        ....  1.000000
   Perturbative correction              ....  0.000000
 RI-approximation to the Coulomb term is turned on
   Number of AuxJ basis functions       .... 252
   RIJ-COSX (HFX calculated with COS-X)).... on


General Settings:
 Integral files         IntName         .... run
 Hartree-Fock type      HFTyp           .... RHF
 Total Charge           Charge          ....    0
 Multiplicity           Mult            ....    1
 Number of Electrons    NEL             ....   48
 Basis Dimension        Dim             ....   72
 Nuclear Repulsion      ENuc            ....    170.9281484429 Eh

Convergence Acceleration:
 AO-DIIS                CNVDIIS         .... on
   Start iteration      DIISMaxIt       ....    12
   Startup error        DIISStart       ....  0.200000
   # of expansion vecs  DIISMaxEq       ....     5
   Bias factor          DIISBfac        ....   1.050
   Max. coefficient     DIISMaxC        ....  10.000
 MO-DIIS                CNVKDIIS        .... off
 Trust-Rad. Augm. Hess. CNVTRAH         .... auto
   Auto Start mean grad. ratio tolernc. ....  1.125000
   Auto Start start iteration           ....    50
   Auto Start num. interpolation iter.  ....    10
   Max. Number of Micro iterations      ....    24
   Max. Number of Macro iterations      .... Maxiter - #DIIS iter
   Number of Davidson start vectors     ....     2
   Converg. threshold    (grad. norm)   ....   1.000e-09
   Grad. Scal. Fac. for Micro threshold ....   0.100
   Minimum threshold for Micro iter.    ....   1.000e-02
   NR start threshold (gradient norm)   ....   1.000e-04
   Initial trust radius                 ....   0.400
   Minimum AH scaling param. (alpha)    ....   1.000
   Maximum AH scaling param. (alpha)    .... 1000.000
   Quad. conv. algorithm                .... NR
   White noise on init. David. guess    .... on
   Maximum white noise                  ....   0.010
   Pseudo random numbers                .... off
   Inactive MOs                         .... canonical
   Orbital update algorithm             .... Taylor
   Preconditioner                       .... Diag
   Full preconditioner red. dimension   ....   250
 SOSCF                 CNVSOSCF           .... on
   Start iteration     SOSCFMaxIt         ....   150
   Startup grad/error  SOSCFStart         ....  0.003300
   Hessian update      SOSCFHessUp        .... L-BFGS
   Autom. constraints  SOSCFAutoConstrain .... off
 Level Shifting         CNVShift        .... on
   Level shift para.    LevelShift      ....    0.2500
   Turn off err/grad.   ShiftErr        ....    0.0010
 Zerner damping         CNVZerner       .... off
 Static damping         CNVDamp         .... on
   Fraction old density DampFac         ....    0.7000
   Max. Damping (<1)    DampMax         ....    0.9800
   Min. Damping (>=0)   DampMin         ....    0.0000
   Turn off err/grad.   DampErr         ....    0.1000

SCF Procedure:
 Maximum # iterations   MaxIter         ....   125
 SCF integral mode      SCFMode         .... Direct
   Integral package                     .... SHARK and LIBINT hybrid scheme
 Reset frequency        DirectResetFreq ....    20
 Integral Threshold     Thresh          ....  3.000e-16 Eh
 Primitive CutOff       TCut            ....  3.000e-16 Eh

Convergence Tolerance:
 Convergence Check Mode ConvCheckMode   .... All-Criteria
 Convergence forced     ConvForced      .... 0
 Energy Change          TolE            ....  1.000e-14 Eh
 Max Density Change     TolMaxP         ....  1.000e-14
 RMS Density Change     TolRMSP         ....  1.000e-14
 Orbital Gradient       TolG            ....  1.000e-09
 Orbital Rotation angle TolX            ....  1.000e-09
 DIIS Error             TolErr          ....  1.000e-14

--------------------------------
INITIAL GUESS: MINIMAL BASIS EHT
--------------------------------
The minimal basis has 36 functions
EHT matrix was diagonalized
Basis set overlap was calculated now projecting the orbitals
Using GuessMode=FMatrix for the initial guess
C*T matrix was formed
Effective Fockian was calculated
Effective Fockian was diagonalized
Initial density was built
                      ------------------
                      INITIAL GUESS DONE
                      ------------------
             **** ENERGY FILE WAS UPDATED (run.en.tmp) ****
Finished Guess after   0.6 sec
Maximum memory used throughout the entire GUESS-calculation: 6.7 MB


           ************************************************************
           *        Program running with 24 parallel MPI-processes    *
           *              working on a common directory               *
           ************************************************************

-------------------------------------------------------------------------------------------
                                      ORCA LEAN-SCF
                              memory conserving SCF solver
-------------------------------------------------------------------------------------------

----------------------------------------D-I-I-S--------------------------------------------
Iteration    Energy (Eh)           Delta-E    RMSDP     MaxDP     DIISErr   Damp  Time(sec)
-------------------------------------------------------------------------------------------
               ***  Starting incremental Fock matrix formation  ***
    1    -730.6372621099371827     0.00e+00  5.00e-02  9.43e-02  3.40e-01  0.700   0.6
    2    -730.9664791966506527    -3.29e-01  4.18e-02  7.47e-02  2.43e-01  0.700   0.3
                               ***Turning on AO-DIIS***
    3    -731.1955076612787252    -2.29e-01  2.93e-02  4.86e-02  1.69e-01  0.700   0.3
    4    -731.3509116311197431    -1.55e-01  2.09e-02  3.33e-02  1.18e-01  0.700   0.3
    5    -731.4577949218830781    -1.07e-01  1.48e-02  2.33e-02  8.22e-02  0.700   0.3
    6    -731.5318726526086266    -7.41e-02  3.50e-02  5.49e-02  5.74e-02  0.000   0.3
                              *** Initializing SOSCF ***
---------------------------------------S-O-S-C-F--------------------------------------
Iteration    Energy (Eh)           Delta-E    RMSDP     MaxDP     MaxGrad    Time(sec)
--------------------------------------------------------------------------------------
    7    -731.7025954524654026    -1.71e-01  7.36e-04  1.34e-03  7.43e-04     0.3
               *** Restarting incremental Fock matrix formation ***
    8    -731.7026013473382591    -5.89e-06  5.11e-04  1.49e-03  2.64e-04     0.4
    9    -731.7026039708939606    -2.62e-06  1.23e-04  3.39e-04  5.27e-05     0.4
   10    -731.7026040788368846    -1.08e-07  4.94e-06  8.19e-06  2.45e-06     0.4
   11    -731.7026040792738968    -4.37e-10  1.23e-06  1.68e-06  9.64e-07     0.4
   12    -731.7026040792786716    -4.77e-12  3.15e-07  1.21e-06  1.58e-07     0.4
   13    -731.7026040792725325     6.14e-12  5.45e-08  2.06e-07  3.26e-08     0.4
   14    -731.7026040792732147    -6.82e-13  2.65e-09  3.31e-09  2.69e-09     0.3
   15    -731.7026040792729873     2.27e-13  0.00e+00  0.00e+00  9.95e-10     0.3
                           ***RMSP convergence achieved***
                           ***MAXP convergence achieved***
                       ***Gradient convergence achieved***
                    ***Orbital Rotation convergence achieved***
   16    -731.7026040792729873     0.00e+00  0.00e+00  0.00e+00  9.95e-10     0.2
                          ***Energy convergence achieved***

               *****************************************************
               *                     SUCCESS                       *
               *           SCF CONVERGED AFTER  16 CYCLES          *
               *****************************************************

Recomputing exchange energy using gridx3       ... done (    0.438 sec)
Old exchange energy                            :    -24.166983802 Eh
New exchange energy                            :    -24.166980279 Eh
Exchange energy change after final integration :      0.000003523 Eh
Total energy after final integration           :   -731.702600556 Eh
             **** ENERGY FILE WAS UPDATED (run.en.tmp) ****

----------------
TOTAL SCF ENERGY
----------------

Total Energy       :       -731.70260055611573 Eh          -19910.64000 eV

Components:
Nuclear Repulsion  :        170.92814844286016 Eh            4651.19138 eV
Electronic Energy  :       -902.63075252213321 Eh          -24561.83148 eV
One Electron Energy:      -1356.16587139158469 Eh          -36903.14948 eV
Two Electron Energy:        453.53511886945148 Eh           12341.31800 eV

Virial components:
Potential Energy   :      -1461.76109030374460 Eh          -39776.54147 eV
Kinetic Energy     :        730.05848974762887 Eh           19865.90147 eV
Virial Ratio       :          2.00225202614801

DFT components:
N(Alpha)           :       24.000002614074 electrons
N(Beta)            :       24.000002614074 electrons
N(Total)           :       48.000005228148 electrons
E(X)               :      -32.144589638891 Eh       
E(C)               :       -2.218081196699 Eh       
E(XC)              :      -34.362670835590 Eh       

---------------
SCF CONVERGENCE
---------------

  Last Energy change         ...    0.0000e+00  Tolerance :   1.0000e-14
  Last MAX-Density change    ...    0.0000e+00  Tolerance :   1.0000e-14
  Last RMS-Density change    ...    0.0000e+00  Tolerance :   1.0000e-14
  Last DIIS Error            ...    7.4255e-04  Tolerance :   1.0000e-14
  Last Orbital Gradient      ...    9.9493e-10  Tolerance :   1.0000e-09
  Last Orbital Rotation      ...    0.0000e+00  Tolerance :   1.0000e-09


----------------
ORBITAL ENERGIES
----------------

  NO   OCC          E(Eh)            E(eV) 
   0   2.0000     -56.625137     -1540.8483 
   1   2.0000     -56.625106     -1540.8475 
   2   2.0000     -56.623997     -1540.8173 
   3   2.0000      -4.366543      -118.8197 
   4   2.0000      -4.366525      -118.8192 
   5   2.0000      -4.365317      -118.7863 
   6   2.0000      -2.857365       -77.7528 
   7   2.0000      -2.857313       -77.7514 
   8   2.0000      -2.856274       -77.7232 
   9   2.0000      -2.855857       -77.7118 
  10   2.0000      -2.855805       -77.7104 
  11   2.0000      -2.854483       -77.6744 
  12   2.0000      -2.851130       -77.5832 
  13   2.0000      -2.851109       -77.5826 
  14   2.0000      -2.849838       -77.5480 
  15   2.0000      -0.598875       -16.2962 
  16   2.0000      -0.495841       -13.4925 
  17   2.0000      -0.493067       -13.4170 
  18   2.0000      -0.401289       -10.9196 
  19   2.0000      -0.394013       -10.7216 
  20   2.0000      -0.381280       -10.3751 
  21   2.0000      -0.373524       -10.1641 
  22   2.0000      -0.361470        -9.8361 
  23   2.0000      -0.354271        -9.6402 
  24   0.0000      -0.009690        -0.2637 
  25   0.0000      -0.004787        -0.1303 
  26   0.0000      -0.002462        -0.0670 
  27   0.0000       0.017031         0.4634 
  28   0.0000       0.046251         1.2586 
  29   0.0000       0.062372         1.6972 
  30   0.0000       0.064529         1.7559 
  31   0.0000       0.095756         2.6056 
  32   0.0000       0.098813         2.6888 
  33   0.0000       0.108898         2.9633 
  34   0.0000       0.158526         4.3137 
*Only the first 10 virtual orbitals were printed.
-------
TIMINGS
-------

Total SCF time: 0 days 0 hours 0 min 6 sec 

Total time                  ....       6.886 sec
Sum of individual times     ....       6.625 sec  ( 96.2%)

SCF preparation             ....       0.651 sec  (  9.5%)
Fock matrix formation       ....       5.662 sec  ( 82.2%)
  Startup                   ....       0.007 sec  (  0.1% of F)
  Split-RI-J                ....       0.316 sec  (  5.6% of F)
  Chain of spheres X        ....       3.783 sec  ( 66.8% of F)
  XC integration            ....       1.526 sec  ( 27.0% of F)
    XC Preparation          ....       0.000 sec  (  0.0% of XC)
    Basis function eval.    ....       0.405 sec  ( 26.5% of XC)
    Density eval.           ....       0.216 sec  ( 14.1% of XC)
    XC-Functional eval.     ....       0.116 sec  (  7.6% of XC)
    XC-Potential eval.      ....       0.164 sec  ( 10.8% of XC)
Diagonalization             ....       0.000 sec  (  0.0%)
Density matrix formation    ....       0.059 sec  (  0.9%)
Total Energy calculation    ....       0.031 sec  (  0.5%)
Population analysis         ....       0.000 sec  (  0.0%)
Orbital Transformation      ....       0.016 sec  (  0.2%)
Orbital Orthonormalization  ....       0.000 sec  (  0.0%)
DIIS solution               ....       0.108 sec  (  1.6%)
SOSCF solution              ....       0.098 sec  (  1.4%)
Finished LeanSCF after   6.9 sec

Maximum memory used throughout the entire LEANSCF-calculation: 7.7 MB


           ************************************************************
           *        Program running with 24 parallel MPI-processes    *
           *              working on a common directory               *
           ************************************************************

------------------------------------------------------------------------------
                         ORCA PROPERTY INTEGRAL CALCULATIONS
------------------------------------------------------------------------------

GBWName                                   ... run.gbw
Number of atoms                           ...     12
Number of basis functions                 ...     72
Max core memory                           ...   4096 MB

Dipole integrals                          ... YES
Quadrupole integrals                      ...  NO
Linear momentum integrals                 ...  NO
Angular momentum integrals                ...  NO
Higher moments length integrals           ...  NO
Higher moments velocity integrals         ...  NO
Kinetic energy integrals                  ...  NO
GIAO right hand sides                     ...  NO
GIAO dipole derivative integrals          ...  NO
SOC integrals                             ...  NO
EPR diamagnetic integrals (GIAO)          ...  NO
EPR gauge integrals                       ...  NO
Field gradient integrals                  ...  NO (   0 nuclei)
Spin-dipole/Fermi contact integrals       ...  NO (   0 nuclei)
Contact density integrals                 ...  NO (   0 nuclei)
Nucleus-orbit integrals                   ...  NO (   0 nuclei)
Geometric perturbations                   ...  NO (  12 nuclei)

Choice of electric origin   ... Center of mass
Position of electric origin ... (  0.0166,  0.0014,  3.1811) 
Choice of magnetic origin   ... GIAO
Position of magnetic origin ... (  0.0000,  0.0000,  0.0000) 

Calculating integrals                     ... Electric Dipole (Length)     done (  0.0 sec)

Property integrals calculated in   0.0 sec

Maximum memory used throughout the entire PROPINT-calculation: 6.8 MB


-------------------------------------------------------------------------------
                          DFT DISPERSION CORRECTION                            
                                                                               
                              DFTD3 V3.1  Rev 1                                
                          USING Becke-Johnson damping                          
-------------------------------------------------------------------------------
The PBEh-3c composite method is recognized
Using three-body term ABC
Active option DFTDOPT                   ...         4   

molecular C6(AA) [au] = 2779.577318 


            DFT-D V3
 parameters
 s6 scaling factor         :     1.0000 
 a1 scaling factor         :     0.4860 
 s8 scaling factor         :     0.0000 
 a2 scaling factor         :     4.5000 
 Damping factor alpha9(ATM):    16.0000 
 ad hoc parameters k1-k3   :    16.0000     1.3333    -4.0000 

 Edisp/kcal,au: -2.731707923993  -0.004353253211 
 E6   /kcal   :  -2.740516207 
 E8   /kcal   :  -0.000000000 
 E6(ABC)      :   0.008808283 
 % E8         :   0.000000000 
 % E6(ABC)    :  -0.322445996 

-------------------------   ----------------
Dispersion correction           -0.004353253
-------------------------   ----------------

------------------   -----------------
gCP correction             0.020330923
------------------   -----------------

-------------------------   --------------------
FINAL SINGLE POINT ENERGY      -731.686622886526
-------------------------   --------------------



           ************************************************************
           *        Program running with 24 parallel MPI-processes    *
           *              working on a common directory               *
           ************************************************************
------------------------------------------------------------------------------
                         ORCA SCF GRADIENT CALCULATION
------------------------------------------------------------------------------

Nuc. rep. gradient        (SHARK) ... done (  0.0 sec)
HCore & Overlap gradient  (SHARK) ... done (  0.0 sec)
Split-RIJ-J gradient      (SHARK) ... done (  0.2 sec)
done (  2.0 sec)
XC gradient                       ... done (  0.6 sec)
Dispersion correction             ... done (  0.1 sec)

-------------------
DISPERSION GRADIENT
-------------------

   1   Al  :   -0.000017459    0.000115330    0.000068145
   2   Al  :   -0.000000660   -0.000000016   -0.000135263
   3   H   :    0.000036003   -0.000042790   -0.000026852
   4   H   :   -0.000034549   -0.000019892   -0.000080088
   5   H   :   -0.000036389    0.000042892   -0.000026743
   6   H   :   -0.000040096    0.000056645    0.000040013
   7   H   :   -0.000000222    0.000000016    0.000067172
   8   H   :    0.000033751    0.000019656   -0.000080438
   9   Al  :    0.000018083   -0.000115282    0.000068549
  10   H   :    0.000040789   -0.000056469    0.000040015
  11   H   :   -0.000040540   -0.000081301    0.000032982
  12   H   :    0.000041289    0.000081211    0.000032508

Difference to translation invariance:
           :    0.0000000000    0.0000000000    0.0000000000

Difference to rotation invariance:
           :   -0.0000000000    0.0000000000    0.0000000000

Norm of the Dispersion gradient    ...    0.0003386291
RMS gradient                       ...    0.0000564382
MAX gradient                       ...    0.0001352626
gCP correction                   ... done

------------------
CARTESIAN GRADIENT
------------------

   1   Al  :    0.001817997   -0.001343728   -0.001282044
   2   Al  :   -0.000003022    0.000001428    0.001557258
   3   H   :    0.004180604   -0.001130379   -0.001146057
   4   H   :   -0.003205045   -0.002406481   -0.002163476
   5   H   :   -0.004192431    0.001157923   -0.001125729
   6   H   :   -0.003650681    0.001809753    0.001961622
   7   H   :   -0.000049296   -0.000004208    0.004418895
   8   H   :    0.003191104    0.002396866   -0.002191949
   9   Al  :   -0.001800175    0.001330222   -0.001253857
  10   H   :    0.003687376   -0.001760436    0.001937885
  11   H   :   -0.003849989   -0.002262489   -0.000337339
  12   H   :    0.003873558    0.002211529   -0.000375209

Difference to translation invariance:
           :   -0.0000000000    0.0000000000    0.0000000000

Difference to rotation invariance:
           :   -0.0000015096   -0.0000002567    0.0000263146

Norm of the Cartesian gradient     ...    0.0140717414
RMS gradient                       ...    0.0023452902
MAX gradient                       ...    0.0044188951

-------
TIMINGS
-------

Total SCF gradient time     ....        3.076 sec

Densities                   ....       0.000 sec  (  0.0%)
One electron gradient       ....       0.033 sec  (  1.1%)
RI-J Coulomb gradient       ....       0.240 sec  (  7.8%)
COSX gradient               ....       2.033 sec  ( 66.1%)
XC gradient                 ....       0.641 sec  ( 20.8%)

Maximum memory used throughout the entire SCFGRAD-calculation: 26.5 MB
------------------------------------------------------------------------------
                         ORCA GEOMETRY RELAXATION STEP
------------------------------------------------------------------------------

Reading the OPT-File                    .... done
Getting information on internals        .... done
Copying old internal coords+grads       .... done
Making the new internal coordinates     .... (2022 redundants) done
Validating the new internal coordinates .... (2022 redundants) done
Calculating the B-matrix                .... done
Calculating the G,G- and P matrices     .... done
Transforming gradient to internals      .... done
Projecting the internal gradient        .... done
Number of atoms                         ....  12
Number of internal coordinates          .... 117
Current Energy                          ....  -731.686622887 Eh
Current gradient norm                   ....     0.014071741 Eh/bohr
Maximum allowed component of the step   ....  0.300
Current trust radius                    ....  0.300
Evaluating the initial hessian          ....  (Almloef) done
Projecting the Hessian                  .... done
Forming the augmented Hessian           .... done
Diagonalizing the augmented Hessian     .... done
Last element of RFO vector              ....  0.999057329
Lowest eigenvalues of augmented Hessian:
 -0.000519610  0.018991917  0.022454139  0.032492087  0.059300198
Length of the computed step             ....  0.043451244
The final length of the internal step   ....  0.043451244
Converting the step to Cartesian space:
 Initial RMS(Int)=    0.0040170689
Transforming coordinates:
 Iter   0:  RMS(Cart)=    0.0074838667 RMS(Int)=    0.0040176898
done
Storing new coordinates                 .... done

                                .--------------------.
          ----------------------|Geometry convergence|-------------------------
          Item                value                   Tolerance       Converged
          ---------------------------------------------------------------------
          RMS gradient        0.0011983155            0.0000080000      NO
          MAX gradient        0.0045460929            0.0000300000      NO
          RMS step            0.0040170689            0.0001000000      NO
          MAX step            0.0111455544            0.0002000000      NO
          -------------------------------------------------------------------------
          ........................................................
          Max(Bonds)      0.0059      Max(Angles)    0.27
          Max(Dihed)        0.25      Max(Improp)    0.00
          ---------------------------------------------------------------------

The optimization has not yet converged - more geometry cycles are needed


    ---------------------------------------------------------------------------
                         Redundant Internal Coordinates
                            (Angstroem and degrees)

        Definition                    Value    dE/dq     Step     New-Value
    ----------------------------------------------------------------------------
     1. B(Al  1,Al  0)                3.0622  0.001312 -0.0053    3.0569   
     2. B(H   2,Al  1)                1.7226  0.001531 -0.0050    1.7177   
     3. B(H   3,Al  1)                1.5864  0.004546 -0.0059    1.5805   
     4. B(H   4,Al  1)                1.7227  0.001671 -0.0050    1.7178   
     5. B(H   4,Al  0)                1.7220  0.001933 -0.0053    1.7167   
     6. B(H   5,Al  0)                1.5868  0.004518 -0.0059    1.5810   
     7. B(H   6,Al  0)                1.7159  0.002006 -0.0050    1.7109   
     8. B(H   7,Al  1)                1.5864  0.004545 -0.0059    1.5805   
     9. B(Al  8,H   6)                1.7159  0.001974 -0.0050    1.7110   
    10. B(Al  8,H   2)                1.7220  0.001779 -0.0053    1.7167   
    11. B(Al  8,Al  1)                3.0659  0.001351 -0.0054    3.0605   
    12. B(Al  8,Al  0)                3.0732  0.001266 -0.0054    3.0679   
    13. B(H   9,Al  8)                1.5868  0.004519 -0.0059    1.5810   
    14. B(H  10,Al  8)                1.5874  0.004432 -0.0058    1.5817   
    15. B(H  11,Al  0)                1.5875  0.004430 -0.0058    1.5817   
    16. A(H   4,Al  0,H   6)           98.09  0.000955   -0.15     97.93   
    17. A(Al  1,Al  0,H   4)           27.26  0.000614   -0.13     27.13   
    18. A(Al  1,Al  0,Al  8)           59.96  0.000013   -0.00     59.96   
    19. A(Al  8,Al  0,H  11)          103.57  0.000331   -0.08    103.49   
    20. A(H   4,Al  0,H   5)          104.41 -0.000756    0.14    104.56   
    21. A(H   6,Al  0,H  11)          106.77  0.000288   -0.08    106.69   
    22. A(Al  1,Al  0,H   5)          131.50 -0.000147    0.01    131.51   
    23. A(Al  1,Al  0,H  11)           88.79  0.000273   -0.05     88.74   
    24. A(H   5,Al  0,H  11)          128.88 -0.000200    0.07    128.95   
    25. A(H   5,Al  0,H   6)          105.88 -0.000597    0.09    105.97   
    26. A(H   4,Al  0,Al  8)           74.24  0.000350   -0.06     74.17   
    27. A(Al  1,Al  0,H   6)           86.38  0.000806   -0.13     86.25   
    28. A(H   5,Al  0,Al  8)          122.51 -0.000106    0.00    122.51   
    29. A(H   4,Al  0,H  11)          108.63  0.000638   -0.13    108.50   
    30. A(H   6,Al  0,Al  8)           26.43  0.000794   -0.13     26.29   
    31. A(H   2,Al  1,H   7)          104.77 -0.000404    0.08    104.85   
    32. A(H   3,Al  1,H   4)          104.76 -0.000488    0.08    104.84   
    33. A(Al  0,Al  1,H   3)          127.35  0.000087   -0.05    127.30   
    34. A(H   2,Al  1,H   4)           95.84  0.000929   -0.19     95.65   
    35. A(H   4,Al  1,Al  8)           74.44  0.000349   -0.06     74.38   
    36. A(H   3,Al  1,Al  8)           98.64  0.000038   -0.01     98.62   
    37. A(H   2,Al  1,H   3)          109.39  0.000193   -0.06    109.34   
    38. A(H   2,Al  1,Al  8)           27.11  0.000557   -0.14     26.98   
    39. A(Al  0,Al  1,Al  8)           60.20 -0.000014    0.00     60.20   
    40. A(H   7,Al  1,Al  8)          127.35  0.000091   -0.05    127.30   
    41. A(Al  0,Al  1,H   4)           27.25  0.000655   -0.14     27.11   
    42. A(H   4,Al  1,H   7)          109.39  0.000288   -0.06    109.33   
    43. A(Al  0,Al  1,H   7)           98.73  0.000079   -0.01     98.72   
    44. A(Al  0,Al  1,H   2)           74.23  0.000306   -0.06     74.17   
    45. A(H   3,Al  1,H   7)          128.07 -0.000161    0.06    128.13   
    46. A(Al  1,H   2,Al  8)          125.76 -0.001075    0.27    126.03   
    47. A(Al  0,H   4,Al  1)          125.49 -0.001269    0.27    125.76   
    48. A(Al  0,H   6,Al  8)          127.15 -0.001593    0.27    127.42   
    49. A(Al  1,Al  8,H   2)           27.12  0.000518   -0.13     26.99   
    50. A(Al  0,Al  8,H   2)           73.91  0.000298   -0.06     73.85   
    51. A(Al  0,Al  8,Al  1)           59.84  0.000001    0.00     59.84   
    52. A(H   6,Al  8,H  10)          106.67  0.000248   -0.07    106.60   
    53. A(H   2,Al  8,H  10)          108.66  0.000511   -0.13    108.53   
    54. A(Al  1,Al  8,H  10)           89.05  0.000229   -0.05     89.00   
    55. A(Al  0,Al  8,H  10)          104.32  0.000306   -0.08    104.24   
    56. A(H   6,Al  8,H   9)          105.97 -0.000443    0.08    106.05   
    57. A(H   9,Al  8,H  10)          128.87 -0.000258    0.07    128.94   
    58. A(H   2,Al  8,H   9)          104.38 -0.000660    0.14    104.53   
    59. A(Al  1,Al  8,H   9)          131.31 -0.000141    0.01    131.32   
    60. A(Al  0,Al  8,H   9)          121.88  0.000022    0.00    121.88   
    61. A(H   2,Al  8,H   6)           98.12  0.000948   -0.16     97.96   
    62. A(Al  1,Al  8,H   6)           86.26  0.000800   -0.13     86.13   
    63. A(Al  0,Al  8,H   6)           26.42  0.000799   -0.13     26.29   
    64. D(H   2,Al  1,Al  0,H   4)   -141.21 -0.000415    0.08   -141.13   
    65. D(H   3,Al  1,Al  0,H   6)     76.90 -0.000039    0.02     76.92   
    66. D(H   3,Al  1,Al  0,H   5)    -31.17  0.000067    0.02    -31.15   
    67. D(H   3,Al  1,Al  0,Al  8)     77.33 -0.000023    0.02     77.35   
    68. D(H   2,Al  1,Al  0,Al  8)    -25.29 -0.000476    0.13    -25.17   
    69. D(H   3,Al  1,Al  0,H   4)    -38.59  0.000038   -0.03    -38.62   
    70. D(H   2,Al  1,Al  0,H   6)    -25.72 -0.000492    0.13    -25.59   
    71. D(H   2,Al  1,Al  0,H   5)   -133.79 -0.000386    0.13   -133.67   
    72. D(H   2,Al  1,Al  0,H  11)     81.16 -0.000257    0.06     81.23   
    73. D(H   3,Al  1,Al  0,H  11)   -176.22  0.000196   -0.05   -176.26   
    74. D(Al  8,H   2,Al  1,H   7)    149.52  0.000140   -0.05    149.47   
    75. D(Al  8,H   2,Al  1,H   3)    -70.23 -0.000267    0.06    -70.18   
    76. D(Al  8,H   2,Al  1,Al  0)     54.44 -0.000123   -0.00     54.44   
    77. D(Al  8,H   2,Al  1,H   4)     37.68 -0.000379    0.06     37.73   
    78. D(Al  1,H   4,Al  0,H   5)   -174.27  0.000016    0.04   -174.23   
    79. D(Al  0,H   4,Al  1,H   7)    -70.61 -0.000255    0.05    -70.56   
    80. D(Al  0,H   4,Al  1,Al  8)     54.11 -0.000104   -0.01     54.10   
    81. D(Al  0,H   4,Al  1,H   3)    149.15  0.000145   -0.06    149.09   
    82. D(Al  0,H   4,Al  1,H   2)     37.31 -0.000255    0.04     37.35   
    83. D(Al  1,H   4,Al  0,H  11)     45.32  0.000399   -0.06     45.26   
    84. D(Al  1,H   4,Al  0,Al  8)    -54.01  0.000085    0.01    -53.99   
    85. D(Al  1,H   4,Al  0,H   6)    -65.50 -0.000491    0.12    -65.37   
    86. D(Al  8,H   6,Al  0,H   4)     25.52  0.000635   -0.14     25.38   
    87. D(Al  8,H   6,Al  0,Al  1)      0.83  0.000008   -0.00      0.83   
    88. D(Al  8,H   6,Al  0,H   5)    133.08  0.000014   -0.02    133.06   
    89. D(Al  8,H   6,Al  0,H  11)    -86.81 -0.000501    0.08    -86.72   
    90. D(Al  1,Al  8,Al  0,H  11)    -80.52 -0.000125    0.01    -80.51   
    91. D(Al  1,Al  8,Al  0,H   6)    179.04 -0.000010    0.00    179.04   
    92. D(Al  1,Al  8,Al  0,H   5)    122.63 -0.000144    0.01    122.64   
    93. D(H   2,Al  8,Al  0,Al  1)     25.35  0.000441   -0.12     25.22   
    94. D(Al  1,Al  8,Al  0,H   4)     25.35  0.000532   -0.13     25.22   
    95. D(H   9,Al  8,H   6,Al  0)    131.19  0.000029   -0.02    131.17   
    96. D(H   2,Al  8,H   6,Al  0)     23.63  0.000513   -0.14     23.49   
    97. D(Al  1,Al  8,H   6,Al  0)     -0.83 -0.000008    0.00     -0.83   
    98. D(H  10,Al  8,H   2,Al  1)     45.77  0.000408   -0.07     45.69   
    99. D(H   9,Al  8,H   2,Al  1)   -173.85 -0.000076    0.04   -173.81   
   100. D(H   6,Al  8,H   2,Al  1)    -64.97 -0.000400    0.11    -64.86   
   101. D(H   6,Al  8,Al  1,H   2)    115.98  0.000002    0.04    116.02   
   102. D(H   6,Al  8,Al  1,Al  0)      0.43  0.000016   -0.00      0.43   
   103. D(H   2,Al  8,Al  1,H   7)    -38.10  0.000048   -0.02    -38.12   
   104. D(H   2,Al  8,Al  1,H   4)   -140.86 -0.000556    0.09   -140.77   
   105. D(H   2,Al  8,Al  1,H   3)    116.12 -0.000069    0.01    116.13   
   106. D(H   2,Al  8,Al  1,Al  0)   -115.55  0.000014   -0.04   -115.60   
   107. D(Al  0,Al  8,Al  1,H   7)     77.46  0.000034    0.02     77.48   
   108. D(Al  0,Al  8,Al  1,H   4)    -25.31 -0.000570    0.13    -25.18   
   109. D(Al  0,Al  8,H   2,Al  1)    -54.28  0.000109    0.00    -54.27   
   110. D(Al  0,Al  8,Al  1,H   3)   -128.33 -0.000083    0.05   -128.28   
   111. D(Al  0,Al  8,Al  1,H   2)    115.55 -0.000014    0.04    115.60   
   112. D(H   6,Al  8,Al  0,Al  1)   -179.04  0.000010   -0.00   -179.04   
   113. D(H   2,Al  8,Al  0,H  11)    -55.17  0.000316   -0.12    -55.29   
   114. D(H   2,Al  8,Al  0,H   6)   -155.61  0.000431   -0.12   -155.74   
   115. D(H   2,Al  8,Al  0,H   5)    147.98  0.000297   -0.12    147.86   
   116. D(H  10,Al  8,H   6,Al  0)    -88.72 -0.000470    0.09    -88.63   
   117. D(H   2,Al  8,Al  0,H   4)     50.70  0.000973   -0.25     50.44   
    ----------------------------------------------------------------------------

Geometry step timings:
Preparation and reading OPT file:      0.000 s ( 0.484 %)
Internal coordinates            :      0.000 s ( 0.726 %)
B/P matrices and projection     :      0.003 s (32.945 %)
Hessian update/contruction      :      0.002 s (19.620 %)
Making the step                 :      0.003 s (31.597 %)
Converting the step to Cartesian:      0.000 s ( 3.873 %)
Storing new data                :      0.000 s ( 0.622 %)
Checking convergence            :      0.000 s ( 0.703 %)
Final printing                  :      0.001 s ( 9.383 %)
Total time                      :      0.009 s

Time for energy+gradient        :     16.826 s
Time for complete geometry iter :     17.532 s

         *************************************************************
         *                GEOMETRY OPTIMIZATION CYCLE   2            *
         *************************************************************
---------------------------------
CARTESIAN COORDINATES (ANGSTROEM)
---------------------------------
  Al    -0.229785    1.515950    2.563851
  Al     0.000137   -0.000528   -0.080407
  H      0.867221   -0.933622    1.071961
  H     -1.100703   -0.905009   -0.764619
  H     -0.857558    0.939183    1.073736
  H     -1.469450    2.178714    3.287329
  H      0.004125    0.000967    3.323638
  H      1.095201    0.900206   -0.778638
  Al     0.255973   -1.513222    2.567824
  H      1.508985   -2.156944    3.285474
  H     -1.175722   -2.137241    2.317843
  H      1.208515    2.119856    2.302367

----------------------------
CARTESIAN COORDINATES (A.U.)
----------------------------
  NO LB      ZA    FRAG     MASS         X           Y           Z
   0 Al   13.0000    0    26.982   -0.434231    2.864730    4.844975
   1 Al   13.0000    0    26.982    0.000258   -0.000999   -0.151946
   2 H     1.0000    0     1.008    1.638810   -1.764290    2.025712
   3 H     1.0000    0     1.008   -2.080027   -1.710220   -1.444920
   4 H     1.0000    0     1.008   -1.620549    1.774798    2.029068
   5 H     1.0000    0     1.008   -2.776857    4.117173    6.212152
   6 H     1.0000    0     1.008    0.007796    0.001828    6.280765
   7 H     1.0000    0     1.008    2.069629    1.701143   -1.471412
   8 Al   13.0000    0    26.982    0.483719   -2.859576    4.852484
   9 H     1.0000    0     1.008    2.851569   -4.076033    6.208646
  10 H     1.0000    0     1.008   -2.221792   -4.038800    4.380089
  11 H     1.0000    0     1.008    2.283763    4.005948    4.350843

--------------------------------
INTERNAL COORDINATES (ANGSTROEM)
--------------------------------
 Al     0   0   0     0.000000000000     0.00000000     0.00000000
 Al     1   0   0     3.056904708223     0.00000000     0.00000000
 H      2   1   0     1.717686982068    74.16499557     0.00000000
 H      2   1   3     1.580531329310   127.29848963   102.51202033
 H      1   2   3     1.716740921429    27.12870271   218.86803420
 H      1   2   3     1.580963699653   131.51283555   226.33410738
 H      1   2   3     1.710895390337    86.24905469   334.40944938
 H      2   1   3     1.580510785830    98.71589245   256.94126333
 Al     7   1   2     1.710979660960   127.41596876     0.83086955
 H      9   7   1     1.580961197312   106.05019091   131.17340383
 H      9   7   1     1.581656810596   106.60281080   271.37006699
 H      1   2   3     1.581703192514    88.74007196    81.22598034

---------------------------
INTERNAL COORDINATES (A.U.)
---------------------------
 Al     0   0   0     0.000000000000     0.00000000     0.00000000
 Al     1   0   0     5.776712716036     0.00000000     0.00000000
 H      2   1   0     3.245957979910    74.16499557     0.00000000
 H      2   1   3     2.986771358479   127.29848963   102.51202033
 H      1   2   3     3.244170184397    27.12870271   218.86803420
 H      1   2   3     2.987588420015   131.51283555   226.33410738
 H      1   2   3     3.233123731525    86.24905469   334.40944938
 H      2   1   3     2.986732536928    98.71589245   256.94126333
 Al     7   1   2     3.233282979925   127.41596876     0.83086955
 H      9   7   1     2.987583691276   106.05019091   131.17340383
 H      9   7   1     2.988898209878   106.60281080   271.37006699
 H      1   2   3     2.988985859000    88.74007196    81.22598034



           ************************************************************
           *        Program running with 24 parallel MPI-processes    *
           *              working on a common directory               *
           ************************************************************
------------------------------------------------------------------------------
                   ___                                                        
                  /   \      - P O W E R E D   B Y -                         
                 /     \                                                     
                 |  |  |   _    _      __       _____    __    __             
                 |  |  |  | |  | |    /  \     |  _  \  |  |  /  |          
                  \  \/   | |  | |   /    \    | | | |  |  | /  /          
                 / \  \   | |__| |  /  /\  \   | |_| |  |  |/  /          
                |  |  |   |  __  | /  /__\  \  |    /   |      \           
                |  |  |   | |  | | |   __   |  |    \   |  |\   \          
                \     /   | |  | | |  |  |  |  | |\  \  |  | \   \       
                 \___/    |_|  |_| |__|  |__|  |_| \__\ |__|  \__/        
                                                                              
                      - O R C A' S   B I G   F R I E N D -                    
                                      &                                       
                       - I N T E G R A L  F E E D E R -                       
                                                                              
 v1 FN, 2020, v2 2021, v3 2022-2024                                           
------------------------------------------------------------------------------


----------------------
SHARK INTEGRAL PACKAGE
----------------------

Number of atoms                             ...     12
Number of basis functions                   ...     72
Number of shells                            ...     42
Maximum angular momentum                    ...      2
Integral batch strategy                     ... SHARK/LIBINT Hybrid
RI-J (if used) integral strategy            ... SPLIT-RIJ (Revised 2003 algorithm where possible)
Printlevel                                  ...      1
Contraction scheme used                     ... SEGMENTED contraction
Prescreening option                         ... SCHWARTZ
   Thresh                                   ... 3.000e-16
   Tcut                                     ... 3.000e-16
   Tpresel                                  ... 3.000e-16 
Coulomb Range Separation                    ... NOT USED
Exchange Range Separation                   ... NOT USED
Multipole approximations                    ... NOT USED
Finite Nucleus Model                        ... NOT USED
CABS basis                                  ... NOT available
Auxiliary Coulomb fitting basis             ... AVAILABLE
   # of basis functions in Aux-J            ...    252
   # of shells in Aux-J                     ...     96
   Maximum angular momentum in Aux-J        ...      4
Auxiliary J/K fitting basis                 ... NOT available
Auxiliary Correlation fitting basis         ... NOT available
Auxiliary 'external' fitting basis          ... NOT available

Checking pre-screening integrals            ... done (  0.0 sec) Dimension = 42
   => SHARK Basis and OBASIS are compatible. Storing Pre-screening
Shell pair information
Shell pair cut-off parameter TPreSel        ...   3.0e-16
Total number of shell pairs                 ...       903
Shell pairs after pre-screening             ...       882
Total number of primitive shell pairs       ...      4191
Primitive shell pairs kept                  ...      3044
          la=0 lb=0:    450 shell pairs
          la=1 lb=0:    264 shell pairs
          la=1 lb=1:     45 shell pairs
          la=2 lb=0:     90 shell pairs
          la=2 lb=1:     27 shell pairs
[...]
      1       0.013153  -0.006070   0.000112  -0.004483  -0.001648   0.000054
      2       0.000983  -0.001957   0.004023  -0.012662  -0.005979   0.007041
      3      -0.000149   0.004143  -0.000452  -0.005464  -0.023978  -0.028821
      4      -0.000230   0.007309  -0.000567  -0.003537  -0.015704  -0.020850
      5      -0.006787  -0.001173  -0.016415  -0.000056   0.000306   0.000247
      6       0.005540   0.010204  -0.016569  -0.008014   0.005083  -0.004778
      7      -0.049510  -0.060209   0.095625   0.013653  -0.031555   0.001855
      8       0.088456   0.100034  -0.168423  -0.028214   0.051061  -0.006506
      9       0.092941  -0.056275   0.500189   0.106029   0.306893   0.390802
     10       0.065604  -0.037755   0.360266   0.077535   0.221748   0.279699
     11       0.051406  -0.033051   0.289387   0.062112   0.185442   0.229031
     12      -0.005197   0.010257   0.013770   0.009130   0.000507  -0.004672
     13       0.053211  -0.067114  -0.088672  -0.027260  -0.021390   0.001974
     14       0.094356  -0.111920  -0.156122  -0.049312  -0.031767   0.006785
     15       0.272222  -0.230186   0.016755  -0.585292  -0.280741   0.283628
     16      -0.128084   0.113381  -0.007446   0.285695   0.137527  -0.137084
     17      -0.149242   0.122946  -0.005800   0.323767   0.154036  -0.154734
     18      -0.001358   0.048466  -0.002714   0.005080   0.019320  -0.008334
     19       0.008965  -0.307775   0.017250  -0.021866  -0.079591   0.028180
     20      -0.001962   0.000203  -0.001395  -0.002065   0.000553  -0.000057
     21      -0.087578  -0.115595  -0.483791   0.037709   0.325266   0.388783
     22      -0.061882  -0.080433  -0.348934   0.026547   0.235526   0.278332
     23       0.049982   0.069561   0.289724  -0.025410  -0.202314  -0.235811
     24      -0.009101  -0.010300   0.003419  -0.023834   0.027812  -0.020884
     25      -0.012948  -0.006995   0.000629   0.002803  -0.002960  -0.000279
     26       0.001004   0.002681   0.003799  -0.008384   0.010838  -0.007087
     27      -0.264279  -0.256351   0.007974   0.392760  -0.515516   0.291787
     28       0.118780   0.120479  -0.004537  -0.183509   0.241568  -0.135150
     29      -0.142782  -0.134744   0.007321   0.214484  -0.279512   0.156645
     30       0.529497   0.525861  -0.126633   0.248308  -0.238016   0.272228
     31       0.243600   0.244251  -0.057159   0.118211  -0.113661   0.126715
     32       0.065454   0.068363  -0.015879   0.030104  -0.025270   0.033226
     33      -0.564596   0.513550   0.068648  -0.325482  -0.100690   0.267002
     34      -0.250009   0.229258   0.028965  -0.149375  -0.046482   0.119603
     35       0.072820  -0.069366  -0.008795   0.039396   0.009536  -0.033941


-----------
IR SPECTRUM
-----------

 Mode   freq       eps      Int      T**2         TX        TY        TZ
       cm**-1   L/(mol*cm) km/mol    a.u.
----------------------------------------------------------------------------
  7:    115.78   0.000245    1.24  0.000661  (-0.001330  0.000159  0.025681)
  8:    144.92   0.000139    0.70  0.000300  ( 0.016064  0.006437  0.000201)
  9:    236.66   0.000547    2.76  0.000721  (-0.000095  0.000192 -0.026859)
 10:    306.99   0.002173   10.98  0.002208  ( 0.041279 -0.022449 -0.000725)
 11:    326.22   0.000067    0.34  0.000065  (-0.000443  0.000170  0.008018)
 12:    431.53   0.000751    3.79  0.000543  (-0.018536  0.014117 -0.000176)
 13:    445.98   0.000075    0.38  0.000053  (-0.000169  0.000117  0.007259)
 14:    453.81   0.002000   10.10  0.001375  (-0.000162  0.000457 -0.037078)
 15:    515.16   0.000027    0.13  0.000016  (-0.003891  0.000937  0.000378)
 16:    547.71   0.014329   72.41  0.008164  (-0.068359  0.059082  0.000590)
 17:    604.88   0.029606  149.61  0.015274  (-0.000532 -0.000494  0.123585)
 18:    709.59   0.139224  703.58  0.061228  ( 0.007566  0.247196 -0.008060)
 19:    710.28   0.108897  550.32  0.047844  ( 0.002383  0.009060  0.218533)
 20:    753.94   0.000344    1.74  0.000142  ( 0.000200  0.000163  0.011924)
 21:    785.95   0.040471  204.52  0.016069  (-0.080540  0.097801 -0.004156)
 22:    812.07   0.039626  200.25  0.015227  ( 0.001190  0.009891  0.122997)
 23:    818.11   0.050167  253.53  0.019136  (-0.057247 -0.125813  0.005462)
 24:   1056.87   0.049525  250.28  0.014623  (-0.006162  0.001273  0.120763)
 25:   1071.82   0.060648  306.49  0.017658  ( 0.123186 -0.049610  0.004670)
 26:   1139.33   0.000031    0.16  0.000009  (-0.002182  0.000943  0.001704)
 27:   1816.95   0.004781   24.16  0.000821  ( 0.004648 -0.028262 -0.000908)
 28:   1894.61   0.250249  1264.66  0.041219  ( 0.000964  0.001329  0.203018)
 29:   1914.75   0.255156  1289.45  0.041585  ( 0.026714 -0.202160  0.001593)
 30:   2015.11   0.001989   10.05  0.000308  ( 0.001393 -0.000868 -0.017473)
 31:   2019.65   0.008059   40.73  0.001245  (-0.030406  0.017907 -0.000293)
 32:   2020.23   0.000033    0.16  0.000005  ( 0.001622 -0.001302  0.000840)
 33:   2029.60   0.007053   35.64  0.001084  ( 0.006878 -0.006688 -0.031502)
 34:   2029.66   0.009857   49.81  0.001515  ( 0.027585 -0.026377  0.007668)
 35:   2036.08   0.086832  438.81  0.013308  (-0.109994 -0.034780  0.000309)

* The epsilon (eps) is given for a Dirac delta lineshape.
** The dipole moment derivative (T) already includes vibrational overlap.

--------------
RAMAN SPECTRUM  
--------------

 Mode    freq (cm**-1)   Activity   Depolarization
-------------------------------------------------------------------
   7:       115.78      1.766089      0.522140
   8:       144.92      0.499909      0.748005
   9:       236.66      4.864636      0.749815
  10:       306.99      4.496805      0.749839
  11:       326.22     11.204366      0.380376
  12:       431.53     11.153885      0.750000
  13:       445.98      9.679344      0.749092
  14:       453.81      6.610942      0.749139
  15:       515.16      1.759571      0.749991
  16:       547.71      3.478463      0.749769
  17:       604.88      2.056344      0.155344
  18:       709.59      4.039716      0.749986
  19:       710.28     13.172800      0.746689
  20:       753.94      6.215716      0.676757
  21:       785.95      5.948239      0.749999
  22:       812.07      8.409769      0.649426
  23:       818.11      3.549805      0.749053
  24:      1056.87      6.048762      0.566767
  25:      1071.82      8.499672      0.745323
  26:      1139.33     91.543587      0.037124
  27:      1816.95      2.002189      0.750000
  28:      1894.61      8.573119      0.732883
  29:      1914.75     12.015455      0.749989
  30:      2015.11    381.040593      0.035839
  31:      2019.65     10.918543      0.594119
  32:      2020.23    126.188580      0.050313
  33:      2029.60     96.644979      0.367383
  34:      2029.66     54.272487      0.709636
  35:      2036.08     28.411481      0.750000

The first frequency considered to be a vibration is 7
The total number of vibrations considered is 29


--------------------------
THERMOCHEMISTRY AT 298.15K
--------------------------

Temperature         ...   298.15 K
Pressure            ...     1.00 atm
Total Mass          ...    90.02 AMU
Quasi RRHO          ...     True
Cut-Off Frequency   ...     1.00 cm^-1

Throughout the following assumptions are being made:
  (1) The electronic state is orbitally nondegenerate
  (2) There are no thermally accessible electronically excited states
  (3) Hindered rotations indicated by low frequency modes are not
      treated as such but are treated as vibrations and this may
      cause some error
  (4) All equations used are the standard statistical mechanics
      equations for an ideal gas
  (5) All vibrations are strictly harmonic

freq.     115.78  E(vib)   ...       0.44 
freq.     144.92  E(vib)   ...       0.41 
freq.     236.66  E(vib)   ...       0.32 
freq.     306.99  E(vib)   ...       0.26 
freq.     326.22  E(vib)   ...       0.24 
freq.     431.53  E(vib)   ...       0.18 
freq.     445.98  E(vib)   ...       0.17 
freq.     453.81  E(vib)   ...       0.16 
freq.     515.16  E(vib)   ...       0.13 
freq.     547.71  E(vib)   ...       0.12 
freq.     604.88  E(vib)   ...       0.10 
freq.     709.59  E(vib)   ...       0.07 
freq.     710.28  E(vib)   ...       0.07 
freq.     753.94  E(vib)   ...       0.06 
freq.     785.95  E(vib)   ...       0.05 
freq.     812.07  E(vib)   ...       0.05 
freq.     818.11  E(vib)   ...       0.05 
freq.    1056.87  E(vib)   ...       0.02 
freq.    1071.82  E(vib)   ...       0.02 
freq.    1139.33  E(vib)   ...       0.01 
freq.    1816.95  E(vib)   ...       0.00 
freq.    1894.61  E(vib)   ...       0.00 
freq.    1914.75  E(vib)   ...       0.00 
freq.    2015.11  E(vib)   ...       0.00 
freq.    2019.65  E(vib)   ...       0.00 
freq.    2020.23  E(vib)   ...       0.00 
freq.    2029.60  E(vib)   ...       0.00 
freq.    2029.66  E(vib)   ...       0.00 
freq.    2036.08  E(vib)   ...       0.00 

------------
INNER ENERGY
------------

The inner energy is: U= E(el) + E(ZPE) + E(vib) + E(rot) + E(trans)
    E(el)   - is the total energy from the electronic structure calculation
              = E(kin-el) + E(nuc-el) + E(el-el) + E(nuc-nuc)
    E(ZPE)  - the the zero temperature vibrational energy from the frequency calculation
    E(vib)  - the the finite temperature correction to E(ZPE) due to population
              of excited vibrational states
    E(rot)  - is the rotational thermal energy
    E(trans)- is the translational thermal energy

Summary of contributions to the inner energy U:
Electronic energy                ...   -731.68775211 Eh
Zero point energy                ...      0.06780789 Eh      42.55 kcal/mol
Thermal vibrational correction   ...      0.00465808 Eh       2.92 kcal/mol
Thermal rotational correction    ...      0.00141627 Eh       0.89 kcal/mol
Thermal translational correction ...      0.00141627 Eh       0.89 kcal/mol
-----------------------------------------------------------------------
Total thermal energy                   -731.61245359 Eh


Summary of corrections to the electronic energy:
(perhaps to be used in another calculation)
Total thermal correction                  0.00749063 Eh       4.70 kcal/mol
Non-thermal (ZPE) correction              0.06780789 Eh      42.55 kcal/mol
-----------------------------------------------------------------------
Total correction                          0.07529852 Eh      47.25 kcal/mol


--------
ENTHALPY
--------

The enthalpy is H = U + kB*T
                kB is Boltzmann's constant
Total thermal energy              ...   -731.61245359 Eh 
Thermal Enthalpy correction       ...      0.00094421 Eh       0.59 kcal/mol
-----------------------------------------------------------------------
Total Enthalpy                    ...   -731.61150938 Eh


Note: Only C1 symmetry has been detected, increase convergence thresholds 
      if your molecule has a higher symmetry. Symmetry factor of 1.0 is   
      used for the rotational entropy correction. 
 

Note: Rotational entropy computed according to Herzberg 
Infrared and Raman Spectra, Chapter V,1, Van Nostrand Reinhold, 1945 
Point Group:  C1, Symmetry Number:   1  
Rotational constants in cm-1:     0.104567     0.103542     0.055918 

Vibrational entropy computed according to the QRRHO of S. Grimme
Chem.Eur.J. 2012 18 9955 using a reference frequency of 100.0 cm-1


-------
ENTROPY
-------

The entropy contributions are T*S = T*(S(el)+S(vib)+S(rot)+S(trans))
     S(el)   - electronic entropy
     S(vib)  - vibrational entropy
     S(rot)  - rotational entropy
     S(trans)- translational entropy
The entropies will be listed as multiplied by the temperature to get
units of energy

Electronic entropy                ...      0.00000000 Eh      0.00 kcal/mol
Vibrational entropy               ...      0.00756345 Eh      4.75 kcal/mol
Rotational entropy                ...      0.01300880 Eh      8.16 kcal/mol
Translational entropy             ...      0.01872231 Eh     11.75 kcal/mol
-----------------------------------------------------------------------
Final entropy term                ...      0.03929455 Eh     24.66 kcal/mol

In case the symmetry of your molecule has not been determined correctly
or in case you have a reason to use a different symmetry number we print 
out the resulting rotational entropy values for sn=1,12:

 non-linear molecules -----------------------------------
|  sn= 1 | S(rot)=       0.01300880 Eh      8.16 kcal/mol|
|  sn= 2 | S(rot)=       0.01235434 Eh      7.75 kcal/mol|
|  sn= 3 | S(rot)=       0.01197151 Eh      7.51 kcal/mol|
|  sn= 4 | S(rot)=       0.01169989 Eh      7.34 kcal/mol|
|  sn= 5 | S(rot)=       0.01148920 Eh      7.21 kcal/mol|
|  sn= 6 | S(rot)=       0.01131705 Eh      7.10 kcal/mol|
|  sn= 7 | S(rot)=       0.01117151 Eh      7.01 kcal/mol|
|  sn= 8 | S(rot)=       0.01104543 Eh      6.93 kcal/mol|
|  sn= 9 | S(rot)=       0.01093422 Eh      6.86 kcal/mol|
|  sn=10 | S(rot)=       0.01083474 Eh      6.80 kcal/mol|
|  sn=11 | S(rot)=       0.01074475 Eh      6.74 kcal/mol|
|  sn=12 | S(rot)=       0.01066260 Eh      6.69 kcal/mol|
 linear molecules ---------------------------------------
|  Dinfh | S(rot)=       0.00804869 Eh      5.05 kcal/mol|
|  Cinfv | S(rot)=       0.00870315 Eh      5.46 kcal/mol|
 --------------------------------------------------------


-------------------
GIBBS FREE ENERGY
-------------------

The Gibbs free energy is G = H - T*S

Total enthalpy                    ...   -731.61150938 Eh 
Total entropy correction          ...     -0.03929455 Eh    -24.66 kcal/mol
-----------------------------------------------------------------------
Final Gibbs free energy         ...   -731.65080393 Eh

For completeness - the Gibbs free energy minus the electronic energy
G-E(el)                           ...      0.03694818 Eh     23.19 kcal/mol


Maximum memory used throughout the entire PROP-calculation: 26.7 MB

--------------------------------
SUGGESTED CITATIONS FOR THIS RUN
--------------------------------

Below you find a list of papers that are relevant to this ORCA run
We neither can nor want to force you to cite these papers, but we appreciate if you do
You receive ORCA, which is the product of decades of hard work by many enthusiastic individuals, for free
The only thing we kindly ask in return is that you cite our papers,
We deeply appreciate it, if you show your appreciation for ORCA by not just citing the generic ORCA reference.

Please note that relegating all ORCA citations to the supporting information does *not* help us.
SI sections are not indexed - citations you put there will not count into any citation statistics
But we need these citations in order to attract the funding resources that allow us to do what we are doing

Therefore, if you are a happy ORCA user, please consider citing a few of the papers listed below in the main body of your paper

In addition to the list printed below, the program has created the file run.bibtex that contains the list in bibtex format
You can import this file easily into all common literature databanks and citation aid programs


List of essential papers. We consider these as the minimum necessary citations

  1. Neese, F.
     Software update: the ORCA program system, version 6.0
     WIRES Comput. Molec. Sci. 2025 15(1), e70019
     doi.org/10.1002/wcms.7019

List of papers to cite with high priority. The work reported in these papers was absolutely
necessary for this run to complete.
Our perspective: the developers of density functionals and basis sets usually get cited in chemistry papers
Good! But without the algorithms to do something with them, the functionals or basis sets would not do anything.
Hence, in our opinion, the algorithm design and method developments papers are equally worthy of getting cited

  1. Neese, F.
     An improvement of the resolution of the identity approximation for the formation of the Coulomb matrix
     J. Comp. Chem. 2003 24(14), 1740-1747
     doi.org/10.1002/jcc.10318
  2. Neese, F.; Wennmohs, F.; Hansen, A.; Becker, U.
     Efficient, approximate and parallel Hartree-Fock and hybrid DFT calculations. A 'chain-of-spheres' algorithm for the Hartree-Fock exchange
     Chem. Phys. 2009 356(1-3), 98-109
     doi.org/10.1016/j.chemphys.2008.10.036
  3. Grimme, S.; Antony, J.; Ehrlich, S.; Krieg, H.
     A consistent and accurate ab initio parametrization of density functional dispersion correction (DFT-D) for the 94 elements H-Pu
     J. Chem. Phys. 2010 132 , 154104
     doi.org/10.1063/1.3382344
  4. Grimme, S.; Ehrlich, S.; Goerigk, L.
     Effect of the damping function in dispersion corrected density functional theory
     J. Comput. Chem. 2011 32(7), 1456-1465
     doi.org/10.1002/jcc.21759
  5. Bykov, D.; Petrenko, T.; Izsak, R.; Kossmann, S.; Becker, U.; Valeev, E.; Neese, F.
     Efficient implementation of the analytic second derivatives of Hartree-Fock and hybrid DFT energies: a detailed analysis of different approximations
     Molec. Phys. 2015 113 , 1961-1977
     doi.org/10.1080/00268976.2015.1025114
  6. Helmich-Paris, B.; de Souza, B.; Neese, F.; Izsák, R.
     An improved chain of spheres for exchange algorithm
     J. Chem. Phys. 2021 155(10), 104109
     doi.org/10.1063/5.0058766
  7. Neese, F.
     The SHARK Integral Generation and Digestion System
     J. Comp. Chem. 2022 44(3), 381
     doi.org/10.1002/jcc.26942
  8. Petra, P.; Frank, N.
     Efficient calculation of analytic Raman intensities
     to be submitted 2025  , 

List of suggested additional citations. These are papers that are important in the 'surrounding' of 
of this run, or papers that preceded the highly important papers. If you like your results we are grateful for a citation.

  1. Izsak, R.; Neese, F.
     An overlap fitted chain of spheres exchange method
     J. Chem. Phys. 2011 135 , 144105
     doi.org/10.1063/1.3646921
  2. Izsak, R.; Hansen, A.; Neese, F.
     The resolution of identity and chain of spheres approximations for the LPNO-CCSD singles Fock term
     Molec. Phys. 2012 110 , 2413-2417
     doi.org/10.1080/00268976.2012.687466
  3. Neese, F.
     The ORCA program system
     WIRES Comput. Molec. Sci. 2012 2(1), 73-78
     doi.org/10.1002/wcms.81
  4. Izsak, R.; Neese, F.; Klopper, W.
     Robust fitting techniques in the chain of spheres approximation to the Fock exchange: The role of the complementary space
     J. Chem. Phys. 2013 139 , 
     doi.org/10.1063/1.4819264
  5. Neese, F.
     Software update: the ORCA program system, version 4.0
     WIRES Comput. Molec. Sci. 2018 8(1), 1-6
     doi.org/10.1002/wcms.1327
  6. Neese, F.; Wennmohs, F.; Becker, U.; Riplinger, C.
     The ORCA quantum chemistry program package
     J. Chem. Phys. 2020 152(22), 224108
     doi.org/10.1063/5.0004608
  7. Neese, F.
     Software update: The ORCA program system—Version 5.0
     WIRES Comput. Molec. Sci. 2022 12(1), e1606
     doi.org/10.1002/wcms.1606

List of optional additional citations

  1. Neese, F.
     Approximate second-order SCF convergence for spin unrestricted wavefunctions
     Chem. Phys. Lett. 2000 325(1-3), 93-98
     doi.org/10.1016/s0009-2614(00)00662-x

Timings for individual modules:

Sum of individual times          ...      383.876 sec (=   6.398 min)
Startup calculation              ...       94.842 sec (=   1.581 min)  24.7 %
SCF iterations                   ...      134.555 sec (=   2.243 min)  35.1 %
Property integrals               ...       25.228 sec (=   0.420 min)   6.6 %
SCF Response                     ...        6.566 sec (=   0.109 min)   1.7 %
Property calculations            ...       39.691 sec (=   0.662 min)  10.3 %
SCF Gradient evaluation          ...       82.788 sec (=   1.380 min)  21.6 %
Geometry relaxation              ...        0.206 sec (=   0.003 min)   0.1 %
                             ****ORCA TERMINATED NORMALLY****
TOTAL RUN TIME: 0 days 0 hours 6 minutes 43 seconds 205 msec
