
                                 *****************
                                 * O   R   C   A *
                                 *****************

                                            #,                                       
                                            ###                                      
                                            ####                                     
                                            #####                                    
                                            ######                                   
                                           ########,                                 
                                     ,,################,,,,,                         
                               ,,#################################,,                 
                          ,,##########################################,,             
                       ,#########################################, ''#####,          
                    ,#############################################,,   '####,        
                  ,##################################################,,,,####,       
                ,###########''''           ''''###############################       
              ,#####''   ,,,,##########,,,,          '''####'''          '####       
            ,##' ,,,,###########################,,,                        '##       
           ' ,,###''''                  '''############,,,                           
         ,,##''                                '''############,,,,        ,,,,,,###''
      ,#''                                            '''#######################'''  
     '                                                          ''''####''''         
             ,#######,   #######,   ,#######,      ##                                
            ,#'     '#,  ##    ##  ,#'     '#,    #''#        ,####,    ,#,          
            ##       ##  ##   ,#'  ##            #'  '#       #'       ,# #          
            ##       ##  #######   ##           ,######,      #####,      #          
            '#,     ,#'  ##    ##  '#,     ,#' ,#      #,     #,   #      #          
             '#######'   ##     ##  '#######'  #'      '#     '####' #    #          



                #########################################################
                #                        -***-                          #
                #          Department of theory and spectroscopy        #
                #                                                       #
                #                      Frank Neese                      #
                #                                                       #
                #     Directorship, Architecture, Infrastructure        #
                #                    SHARK, DRIVERS                     #
                #        Core code/Algorithms in most modules           #
                #                                                       #
                #        Max Planck Institute fuer Kohlenforschung      #
                #                Kaiser Wilhelm Platz 1                 #
                #                 D-45470 Muelheim/Ruhr                 #
                #                      Germany                          #
                #                                                       #
                #                  All rights reserved                  #
                #                        -***-                          #
                #########################################################


                         Program Version 6.1.0  -  RELEASE   -
                                (GIT: $679e74b$)
                          ($2025-06-10 18:02:51 +0200$)


 With contributions from (in alphabetic order):
[Max-Planck-Institut fuer Kohlenforschung]                               
  Daniel Aravena         : Magnetic Suceptibility                        
  Michael Atanasov       : Ab Initio Ligand Field Theory (pilot matlab implementation)
  Alexander A. Auer      : GIAO ZORA, VPT2 properties, NMR spectrum      
  Ute Becker             : All parallelization in ORCA, NUMFREQ, NUMCALC 
  Giovanni Bistoni       : ED, misc. LED, open-shell LED, HFLD           
  Dmytro Bykov           : pre 5.0 version of the SCF Hessian            
  Marcos Casanova-Páez   : Triplet and SCS-CIS(D). UHF-(DLPNO)-IP/EA/STEOM-CCSD. UHF-CVS-IP/STEOM-CCSD   
  Vijay G. Chilkuri      : MRCI spin determinant printing, contributions to CSF-ICE 
  Pauline Colinet        : FMM embedding                                 
  Dipayan Datta          : RHF DLPNO-CCSD density                        
  Achintya Kumar Dutta   : EOM-CC, STEOM-CC                              
  Nicolas Foglia         : Exact transition moments, OPA infrastructure, MCD improvements    
  Dmitry Ganyushin       : Spin-Orbit,Spin-Spin,Magnetic field MRCI      
  Miquel Garcia-Rates    : C-PCM and meta-GGA Hessian, CCSD/C-PCM, Gaussian charge scheme 
  Tiago L. C. Gouveia    : GS-ROHF, GS-ROCIS                             
  Yang Guo               : DLPNO-NEVPT2, F12-NEVPT2, CIM, IAO-localization        
  Andreas Hansen         : Spin unrestricted coupled pair/coupled cluster methods 
  Ingolf Harden          : AUTO-CI MPn and infrastructure                
  Benjamin Helmich-Paris : MC-RPA, TRAH-(SCF,CASSCF), AVAS, COSX integrals, SCF dyn. polar., MC-PDFT, srDFT 
  Lee Huntington         : MR-EOM, pCC                                   
  Robert Izsak           : Overlap fitted RIJCOSX, COSX-SCS-MP3, EOM     
  Riya Kayal             : Wick's Theorem for AUTO-CI, AUTO-CI UHF-CCSDT 
  Emily Kempfer          : AUTO-CI RHF CISDT and CCSDT, approximate NEVPT4
  Christian Kollmar      : KDIIS, OOCD, Brueckner-CCSD(T), CCSD density, CASPT2, CASPT2-K, improved NEVPT2 
  Axel Koslowski         : Symmetry handling                             
  Simone Kossmann        : meta-GGA functionals, TD-DFT gradient, OOMP2, (MP2 Hessian; deprecated post 5.0) 
  Lucas Lang             : DCDCAS, Hyperfine gauge corrections, ICE-SOC+SSC
  Marvin Lechner         : AUTO-CI (C++ implementation), FIC-MRCC        
  Spencer Leger          : CASSCF response                               
  Dagmar Lenk            : GEPOL surface, SMD, ORCA-2-JSON               
  Dimitrios Liakos       : Extrapolation schemes; Compound Job, Property file
  Dimitrios Manganas     : Further ROCIS development; embedding schemes. LFT, Crystal Embedding 
  Dimitrios Pantazis     : SARC Basis sets                               
  Anastasios Papadopoulos: AUTO-CI, single reference methods and gradients 
  Taras Petrenko         : pre 6.0 DFT Hessian and TD-DFT gradient,  ECA, NRVS 
  Petra Pikulova         : Analytic Raman intensities                    
  Peter Pinski           : DLPNO-MP2, DLPNO-MP2 Gradient                 
  Shashank Vittal Rao    : ES-AILFT, MagRelax                            
  Christoph Reimann      : Effective Core Potentials                     
  Marius Retegan         : Local ZFS, SOC                                
  Christoph Riplinger    : Optimizer, TS searches, QM/MM, DLPNO-CCSD(T), (RO)-DLPNO pert. Triples 
  Michael Roemelt        : Original ROCIS implementation, recursive CI coupling coefficients
  Masaaki Saitow         : Open-shell DLPNO-CCSD energy and density      
  Barbara Sandhoefer     : DKH picture change effects                    
  Yorick L. A. Schmerwitz: GMF and freeze-and-release deltaSCF, NEB S-IDPP initial path                    
  Kantharuban Sivalingam : CASSCF convergence/infrastructure, NEVPT2, NEVPT3, NEVPT4(SD), FIC-MRCI and CEPA variants
  Bernardo de Souza      : ESD, SOC TD-DFT                               
  Georgi L. Stoychev     : AutoAux, RI-MP2 NMR, DLPNO-MP2 response, X2C  
  Van Anh Tran           : RI-MP2 g-tensors                              
  Willem Van den Heuvel  : Paramagnetic NMR                              
  Zikuan Wang            : NOTCH, Electric field optimization            
  Frank Wennmohs         : Technical directorship and infrastructure     
  Hang Xu                : AUTO-CI-Response properties                   
                                                                         
[FACCTs GmbH]                                                            
  Markus Bursch, Nicolas Foglia, Miquel Garcia-Rates, Ingolf Harden, Hagen Neugebauer, Anastasios Papadopoulos, 
  Christoph Riplinger, Bernardo de Souza, Georgi L. Stoychev                                                    
                                                                 
  APM, various basis sets, CI-OPT, improved COSX, DLPNO-Multilevel,           
  DOCKER, DRACO, updates on ESD, Fragmentator, GOAT, IRC, LR-CPCM, L-BFGS, MBIS, meta-GGA TD-DFT gradient, ML-optimized integration grids, 
  MM, NACMEs, nearIR, NEB, NEB-TS, NL-DFT gradient (VV10), 2- and 3-layer-ONIOM, interface openCOSMO-RS, QMMM,   
  Crystal-QMMM, RESP, rigid body optimization, SF, symmetry and pop. for TD-DFT, various functionals, SOLVATOR                                   
                                                                         
[Other institutions]                                                     
  V. Asgeirsson          : NEB                                           
  Christoph Bannwarth    : sTDA-DFT, sTD-DFT, PBEh-3c, B97-3c, D3        
  Giovanni Bistoni       : ETS/NOCV, ADLD/ADEX, COVALED                  
  Martin Brehm           : Molecular dynamics                            
  Ronald Cardenas        : ETS/NOCV                                      
  Martina Colucci        : COVALED                                       
  Sebastian Ehlert       : rSCAN, r2SCAN, r2SCAN-3c, D4, dhf basis sets  
  Marvin Friede          : D4 for Fr, Ra, Ac-Lr                          
  Lars Goerigk           : TD-DFT with DH, B97 family of functionals     
  Stefan Grimme          : VdW corrections, initial TS optimization, DFT functionals, gCP, sTDA/sTD-DF 
  Waldemar Hujo          : DFT-NL                                        
  H. Jonsson             : NEB                                           
  Holger Kruse           : gCP                                           
  Marcel Mueller         : wB97X-3c, vDZP basis set                      
  Hagen Neugebauer       : wr2SCAN, Native XTB                           
  Gianluca Regni         : ADLD/ADEX                                     
  Tobias Risthaus        : pre 6.0 range-separated hybrid DFT and stability analysis
  Lukas Wittmann         : regularized MP2, r2SCAN double-hybrids, wr2SCAN        
                                                                         
We gratefully acknowledge several colleagues who have allowed us to      
interface, adapt or use parts of their codes:                            
  Ed Valeev, F. Pavosevic, A. Kumar             : LibInt (2-el integral package), F12 methods 
  Garnet Chan, S. Sharma, J. Yang, R. Olivares  : DMRG                   
  Ulf Ekstrom                                   : XCFun DFT Library      
  Mihaly Kallay                                 : mrcc  (arbitrary order and MRCC methods)
  Frank Weinhold                                : gennbo (NPA and NBO analysis)           
  Simon Mueller                                 : openCOSMO-RS                            
  Christopher J. Cramer and Donald G. Truhlar   : smd solvation model                     
  S Lehtola, MJT Oliveira, MAL Marques          : LibXC Library                           
  Liviu Ungur et al                             : ANISO software                          


 Your calculation uses the libint2 library for the computation of 2-el integrals
 For citations please refer to: http://libint.valeyev.net

 Your ORCA version has been built with support for libXC version: 7.0.0
 For citations please refer to: https://libxc.gitlab.io

 This ORCA versions uses:
   CBLAS   interface :  Fast vector & matrix operations
   LAPACKE interface :  Fast linear algebra routines
   SCALAPACK package :  Parallel linear algebra routines
   Shared memory     :  Shared parallel matrices
   BLAS/LAPACK       :  OpenBLAS 0.3.29  USE64BITINT DYNAMIC_ARCH NO_AFFINITY Bulldozer SINGLE_THREADED
        Core in use  :  Bulldozer
   Copyright (c) 2011-2014, The OpenBLAS Project


  ***********************************
  * Starting time: Wed Aug 27 18:18:03 2025
  * Host name:     chromium08
  * Process ID:    715949
  * Working dir.:  /local/scratch/mehlhorn/62299
  ***********************************



***************************************
The coordinates will be read from file: start.xyz
***************************************


Your calculation utilizes the atom-pairwise dispersion correction
with the Becke-Johnson damping scheme (D3BJ)


Warning: RI is on but no J-basis has been assigned. Assigning Def2/J (nothing to worry about!)
================================================================================

----- Orbital basis set information -----
Your calculation utilizes the basis: def2-TZVP
   F. Weigend and R. Ahlrichs, Phys. Chem. Chem. Phys. 7, 3297 (2005).

----- AuxJ basis set information -----
Your calculation utilizes the auxiliary basis: def2/J
   H-Rn: F. Weigend, Phys. Chem. Chem. Phys. 8, 1057 (2006).
   Fr-Lr: K. Eichkorn, F. Weigend, O. Treutler, R. Ahlrichs; Theor. Chem. Acc. 97, 119 (1997).

================================================================================
                                        WARNINGS
                       Please study these warnings very carefully!
================================================================================


WARNING: Geometry Optimization
  ===> : Switching off AutoStart
         For restart on a previous wavefunction, please use MOREAD

================================================================================
                                       INPUT FILE
================================================================================
NAME = run.inp
|  1> # Geometry optimization for (AlH3)n cluster
|  2> 
|  3> %pal nprocs 24  end
|  4> 
|  5> %geom MaxIter 500 end
|  6> 
|  7> %cpcm
|  8> 	epsilon 1.95778548766667
|  9> end
| 10> 
| 11> ! PBE def2-TZVP
| 12> ! RKS	# closed shell for AlH3
| 13> ! D3    #  dispersion correction
| 14> ! Freq 	# Frequency analysis to check the stabiltity of the structures
| 15> 
| 16> ! NoPop # population analysis not necessary	
| 17> 
| 18> ! DEFGRID3
| 19> ! TightSCF
| 20> ! TightOpt
| 21> 
| 22> ! SmallPrint
| 23> 
| 24> 
| 25> * xyzFile 0 1 start.xyz # only maingroup elements H and Al so there should be no net spin
| 26> 
| 27>                          ****END OF INPUT****
================================================================================

                       *****************************
                       * Geometry Optimization Run *
                       *****************************

Geometry optimization settings:
Update method            Update   .... BFGS
Choice of coordinates    CoordSys .... (2022) Redundant Internals
Initial Hessian          InHess   .... Almloef's Model
Max. no of cycles        MaxIter  .... 500

Convergence Tolerances:
Energy Change            TolE     ....  1.0000e-06 Eh
Max. Gradient            TolMAXG  ....  1.0000e-04 Eh/bohr
RMS Gradient             TolRMSG  ....  3.0000e-05 Eh/bohr
Max. Displacement        TolMAXD  ....  1.0000e-03 bohr
RMS Displacement         TolRMSD  ....  6.0000e-04 bohr
Strict Convergence                .... False

------------------------------------------------------------------------------
                        ORCA OPTIMIZATION COORDINATE SETUP
------------------------------------------------------------------------------

The optimization will be done in redundant internal coordinates (2022)
Making redundant internal coordinates   ...  (2022 redundants) done
Evaluating the initial hessian          ...  (Almloef) done
Evaluating the coordinates              ...  done
Calculating the B-matrix                .... done
Calculating the G-matrix                .... done
The number of degrees of freedom        ....  329

    -----------------------------------------------------------------
                    Redundant Internal Coordinates


    -----------------------------------------------------------------
         Definition                    Initial Value    Approx d2E/dq
    -----------------------------------------------------------------
      1. B(Al  1,Al  0)                  3.0566         0.067290   
      2. B(H   2,Al  1)                  1.7125         0.256313   
      3. B(H   3,Al  1)                  1.5905         0.401308   
      4. B(H   4,Al  0)                  1.7187         0.250561   
      5. B(H   4,Al  1)                  1.7121         0.256725   
      6. B(H   5,Al  0)                  1.5914         0.399972   
      7. B(H   6,Al  0)                  1.6997         0.268730   
      8. B(H   7,Al  1)                  1.5864         0.407439   
      9. B(Al  8,H   2)                  1.7171         0.252061   
     10. B(Al  8,Al  1)                  3.0579         0.066966   
     11. B(H   9,Al  8)                  1.7019         0.266579   
     12. B(H  10,Al  8)                  1.5917         0.399502   
     13. B(H  11,Al  0)                  1.5899         0.402148   
     14. B(Al 12,H   6)                  1.7403         0.231504   
     15. B(Al 12,Al  0)                  3.0642         0.065443   
     16. B(Al 12,H   9)                  1.7414         0.230529   
     17. B(Al 12,Al  8)                  3.0611         0.066181   
     18. B(H  13,Al 12)                  1.8009         0.185293   
     19. B(H  14,Al 12)                  1.5968         0.392205   
     20. B(H  15,Al  8)                  1.5901         0.401936   
     21. B(Al 16,H  13)                  1.6786         0.290384   
     22. B(Al 16,Al 12)                  3.2626         0.031575   
     23. B(H  17,Al 16)                  1.5891         0.403449   
     24. B(H  18,Al 16)                  1.5888         0.403864   
     25. B(Al 19,Al 16)                  2.9757         0.090585   
     26. B(Al 19,Al 12)                  2.6269         0.326259   
     27. B(H  20,Al 19)                  1.5780         0.420201   
     28. B(H  21,Al 19)                  1.6683         0.301585   
     29. B(H  21,Al 12)                  1.8915         0.132836   
     30. B(H  22,Al 19)                  1.6642         0.306114   
     31. B(H  22,Al 12)                  1.9083         0.124881   
     32. B(H  23,Al 19)                  1.6839         0.284766   
     33. B(H  23,Al 16)                  1.7701         0.207448   
     34. A(H   5,Al  0,Al 12)          132.7866         0.328088   
     35. A(H   4,Al  0,H   6)           98.9092         0.331740   
     36. A(Al  1,Al  0,H   4)           26.9548         0.305433   
     37. A(H   6,Al  0,H  11)          109.1548         0.359176   
     38. A(H   4,Al  0,H   5)          107.9105         0.354603   
     39. A(Al  1,Al  0,H   5)           92.3746         0.329600   
     40. A(H   5,Al  0,H   6)          105.8553         0.358845   
     41. A(H   4,Al  0,H  11)          104.6576         0.354929   
     42. A(H   4,Al  0,Al 12)           84.5430         0.304073   
     43. A(H   5,Al  0,H  11)          126.8905         0.384623   
     44. A(Al  1,Al  0,Al 12)           78.8096         0.283827   
     45. A(Al  1,Al  0,H  11)          130.5075         0.329895   
     46. A(H   6,Al  0,Al 12)           27.3772         0.307508   
     47. A(Al  1,Al  0,H   6)           82.3037         0.308889   
     48. A(H  11,Al  0,Al 12)           90.6305         0.328382   
     49. A(Al  0,Al  1,H   2)          102.5608         0.306547   
     50. A(H   2,Al  1,H   3)          108.8763         0.356172   
     51. A(Al  0,Al  1,H   7)          125.4314         0.330609   
     52. A(H   3,Al  1,H   4)          108.9152         0.356269   
     53. A(H   2,Al  1,H   4)           92.2733         0.330479   
     54. A(H   7,Al  1,Al  8)          124.6599         0.330345   
     55. A(H   2,Al  1,H   7)          106.4653         0.357091   
     56. A(H   4,Al  1,H   7)          106.5169         0.357188   
     57. A(H   4,Al  1,Al  8)          103.2811         0.306389   
     58. A(H   2,Al  1,Al  8)           26.9623         0.306310   
     59. A(Al  0,Al  1,Al  8)          101.2308         0.284844   
     60. A(H   3,Al  1,Al  8)           81.9913         0.329519   
     61. A(H   3,Al  1,H   7)          127.9542         0.385723   
     62. A(Al  0,Al  1,H   4)           27.0674         0.306626   
     63. A(Al  0,Al  1,H   3)           81.8770         0.329782   
     64. A(Al  1,H   2,Al  8)          126.1526         0.329479   
     65. A(Al  0,H   4,Al  1)          125.9778         0.329242   
     66. A(Al  0,H   6,Al 12)          125.9356         0.327432   
     67. A(H   2,Al  8,H  15)          104.7790         0.355257   
     68. A(H   2,Al  8,H  10)          108.0070         0.354891   
     69. A(Al  1,Al  8,H   2)           26.8851         0.305489   
     70. A(H   9,Al  8,H  10)          105.7849         0.358283   
     71. A(H   9,Al  8,H  15)          109.0079         0.358653   
     72. A(Al 12,Al  8,H  15)           91.1685         0.328962   
     73. A(Al  1,Al  8,H  15)          130.8078         0.329604   
     74. A(H  10,Al  8,Al 12)          132.7100         0.328632   
     75. A(H   9,Al  8,Al 12)           27.5909         0.307665   
     76. A(H   2,Al  8,Al 12)           83.8545         0.304911   
     77. A(H   2,Al  8,H   9)           99.2157         0.331626   
     78. A(Al  1,Al  8,H  10)           91.8890         0.329273   
     79. A(Al  1,Al  8,Al 12)           78.8364         0.284109   
     80. A(H  10,Al  8,H  15)          126.7170         0.384509   
     81. A(Al  1,Al  8,H   9)           83.2798         0.308250   
     82. A(Al  8,H   9,Al 12)          125.4962         0.326772   
     83. A(H   9,Al 12,H  14)          102.7349         0.348486   
     84. A(Al  8,Al 12,H  14)           76.0275         0.327635   
     85. A(H   6,Al 12,H  14)          102.9052         0.348734   
     86. A(H   6,Al 12,H   9)           94.1474         0.319300   
     87. A(Al  0,Al 12,H  14)           76.5843         0.327029   
     88. A(H  14,Al 12,H  22)           95.5061         0.314869   
     89. A(H   9,Al 12,H  13)           77.3987         0.307981   
     90. A(Al  8,Al 12,H  13)          103.9120         0.290384   
     91. A(Al  8,Al 12,H  22)           90.2036         0.273179   
     92. A(H   6,Al 12,H  22)          159.2954         0.289464   
     93. A(H   6,Al 12,H  13)           79.8288         0.308190   
     94. A(Al  0,Al 12,H  13)          106.1034         0.289874   
     95. A(Al  8,Al 12,H   9)           26.9129         0.300591   
     96. A(Al 19,Al 12,H  21)           39.2536         0.356993   
     97. A(Al 16,Al 12,H  21)           64.1576         0.246967   
     98. A(H  14,Al 12,H  21)           96.0320         0.318048   
     99. A(Al  0,Al 12,H   9)          104.1838         0.300055   
    100. A(H  21,Al 12,H  22)           78.0801         0.265780   
    101. A(H   9,Al 12,H  21)          159.0984         0.292091   
    102. A(H   6,Al 12,H  21)           90.5111         0.292285   
    103. A(H   6,Al 12,Al  8)          103.2669         0.300793   
    104. A(Al  0,Al 12,H  21)           88.9488         0.275298   
    105. A(Al  0,Al 12,Al  8)          100.9852         0.283095   
    106. A(H  14,Al 12,Al 19)          101.4478         0.431410   
    107. A(H  13,Al 12,Al 19)           76.3998         0.377961   
    108. A(H   9,Al 12,Al 19)          126.0214         0.392606   
    109. A(Al  0,Al 12,H   6)           26.6873         0.300256   
    110. A(Al  0,Al 12,H  22)          164.1147         0.272712   
    111. A(Al  8,Al 12,Al 19)          129.3263         0.368209   
    112. A(H   6,Al 12,Al 19)          125.8743         0.392896   
    113. A(Al  0,Al 12,Al 19)          128.1441         0.367501   
    114. A(Al 19,Al 12,H  22)           39.1722         0.353273   
    115. A(Al 16,Al 12,Al 19)           59.5365         0.325149   
    116. A(Al 16,Al 12,H  22)           75.0793         0.244774   
    117. A(H  13,Al 12,H  22)           81.7199         0.279611   
    118. A(H  14,Al 12,Al 16)          159.2141         0.290832   
    119. A(H  13,Al 12,Al 16)           19.6024         0.259326   
    120. A(H   9,Al 12,Al 16)           96.0025         0.267959   
    121. A(Al  8,Al 12,Al 16)          121.6958         0.253579   
    122. A(H   6,Al 12,Al 16)           84.4227         0.268130   
    123. A(Al  0,Al 12,Al 16)          107.6156         0.253161   
    124. A(H   9,Al 12,H  22)           90.9113         0.289272   
    125. A(Al  8,Al 12,H  21)          165.2690         0.275771   
    126. A(H  13,Al 12,H  21)           83.4122         0.282294   
    127. A(Al 12,H  13,Al 16)          139.3015         0.319726   
    128. A(H  18,Al 16,H  23)          105.9288         0.344049   
    129. A(H  13,Al 16,H  23)           94.5467         0.325700   
    130. A(Al 12,Al 16,H  23)           78.4109         0.263737   
    131. A(H  17,Al 16,H  23)          102.4868         0.343990   
    132. A(Al 19,Al 16,H  23)           29.6805         0.310811   
    133. A(H  18,Al 16,Al 19)          102.3032         0.346910   
    134. A(H  17,Al 16,Al 19)          122.8382         0.346850   
    135. A(H  13,Al 16,Al 19)           67.9305         0.328355   
    136. A(Al 12,Al 16,Al 19)           49.5448         0.265697   
    137. A(H  17,Al 16,H  18)          127.9468         0.385489   
    138. A(H  13,Al 16,H  18)          110.3699         0.364222   
    139. A(Al 12,Al 16,H  18)          101.7141         0.292175   
    140. A(H  13,Al 16,H  17)          109.7554         0.364158   
    141. A(Al 12,Al 16,H  17)          126.3620         0.292127   
    142. A(Al 12,Al 16,H  13)           21.0961         0.277557   
    143. A(H  22,Al 19,H  23)          102.1705         0.346349   
    144. A(H  21,Al 19,H  23)          100.4038         0.345482   
    145. A(H  20,Al 19,H  23)          114.6104         0.365478   
    146. A(Al 16,Al 19,H  23)           31.3671         0.327299   
    147. A(Al 12,Al 19,H  23)          101.2204         0.407478   
    148. A(H  21,Al 19,H  22)           91.8104         0.349714   
    149. A(H  20,Al 19,H  22)          121.8018         0.370039   
    150. A(Al 16,Al 19,H  22)           86.8486         0.331230   
    151. A(Al 12,Al 19,H  22)           46.4096         0.412732   
    152. A(H  20,Al 19,H  21)          121.6025         0.369093   
    153. A(Al 16,Al 19,H  21)           73.6455         0.330414   
    154. A(Al 12,Al 19,H  21)           45.8411         0.411642   
    155. A(Al 16,Al 19,H  20)          144.0842         0.349235   
    156. A(Al 12,Al 19,H  20)          144.1496         0.436796   
    157. A(Al 12,Al 19,Al 16)           70.9187         0.388768   
    158. A(Al 12,H  21,Al 19)           94.9053         0.304825   
    159. A(Al 12,H  22,Al 19)           94.4182         0.302548   
    160. A(Al 16,H  23,Al 19)          118.9524         0.324655   
    161. D(H   2,Al  1,Al  0,H   6)    -57.9125         0.010000   
    162. D(H   2,Al  1,Al  0,H   4)     69.7138         0.010000   
    163. D(H   3,Al  1,Al  0,H   4)    177.3527         0.010000   
    164. D(H   2,Al  1,Al  0,Al 12)    -30.3743         0.010000   
    165. D(H   3,Al  1,Al  0,Al 12)     77.2646         0.010000   
    166. D(H   3,Al  1,Al  0,H   5)    -55.9573         0.010000   
    167. D(H   3,Al  1,Al  0,H   6)     49.7263         0.010000   
    168. D(H   3,Al  1,Al  0,H  11)    158.3910         0.010000   
    169. D(H   2,Al  1,Al  0,H  11)     50.7521         0.010000   
    170. D(H   2,Al  1,Al  0,H   5)   -163.5962         0.010000   
    171. D(Al  8,H   2,Al  1,H   7)   -136.6295         0.010000   
    172. D(Al  8,H   2,Al  1,Al  0)     90.1196         0.010000   
    173. D(Al  8,H   2,Al  1,H   4)    115.4064         0.010000   
    174. D(Al  8,H   2,Al  1,H   3)      4.5248         0.010000   
    175. D(Al  0,H   4,Al  1,H   3)     -2.7705         0.010000   
    176. D(Al  0,H   4,Al  1,Al  8)    -88.7313         0.010000   
    177. D(Al  1,H   4,Al  0,H   6)     52.6043         0.010000   
    178. D(Al  1,H   4,Al  0,Al 12)     75.9817         0.010000   
    179. D(Al  0,H   4,Al  1,H   7)    138.4660         0.010000   
    180. D(Al  1,H   4,Al  0,H  11)    165.2047         0.010000   
    181. D(Al  0,H   4,Al  1,H   2)   -113.6170         0.010000   
    182. D(Al  1,H   4,Al  0,H   5)    -57.3515         0.010000   
    183. D(Al 12,H   6,Al  0,H   5)    170.7994         0.010000   
    184. D(Al 12,H   6,Al  0,H  11)    -49.8019         0.010000   
    185. D(Al 12,H   6,Al  0,H   4)     59.1997         0.010000   
    186. D(Al 12,H   6,Al  0,Al  1)     80.5083         0.010000   
    187. D(H   2,Al  8,Al  1,Al  0)    -95.6631         0.010000   
    188. D(H   2,Al  8,Al  1,H   4)    -68.0300         0.010000   
    189. D(H   2,Al  8,Al  1,H   7)     53.1903         0.010000   
    190. D(H   2,Al  8,Al  1,H   3)   -175.6768         0.010000   
    191. D(H   9,Al  8,Al  1,Al  0)     30.4239         0.010000   
    192. D(H  10,Al  8,H   2,Al  1)     55.6337         0.010000   
    193. D(H  15,Al  8,H   2,Al  1)   -166.9813         0.010000   
    194. D(H  10,Al  8,Al  1,Al  0)    136.0984         0.010000   
    195. D(H   9,Al  8,H   2,Al  1)    -54.3966         0.010000   
    196. D(H   9,Al  8,Al  1,H   7)    179.2773         0.010000   
    197. D(Al 12,Al  8,H   2,Al  1)    -77.3935         0.010000   
    198. D(H   9,Al  8,Al  1,H   3)    -49.5897         0.010000   
    199. D(H   9,Al  8,Al  1,H   2)    126.0870         0.010000   
    200. D(H   9,Al  8,Al  1,H   4)     58.0571         0.010000   
    201. D(Al 12,H   9,Al  8,H  15)     52.2209         0.010000   
    202. D(Al 12,H   9,Al  8,Al  1)    -78.7294         0.010000   
    203. D(Al 12,H   9,Al  8,H  10)   -168.7972         0.010000   
    204. D(Al 12,H   9,Al  8,H   2)    -57.0006         0.010000   
    205. D(Al  8,Al 12,H   6,Al  0)    -88.1010         0.010000   
    206. D(H  13,Al 12,H   6,Al  0)    169.8548         0.010000   
    207. D(H   9,Al 12,H   6,Al  0)   -113.7510         0.010000   
    208. D(H   9,Al 12,Al  0,H  11)   -155.8603         0.010000   
    209. D(H   9,Al 12,Al  0,H   6)     70.3242         0.010000   
    210. D(H   9,Al 12,Al  0,H   5)     58.2265         0.010000   
    211. D(H  14,Al 12,H   6,Al  0)     -9.6661         0.010000   
    212. D(Al  8,Al 12,Al  0,H   5)     85.6232         0.010000   
    213. D(Al  8,Al 12,Al  0,H  11)   -128.4636         0.010000   
    214. D(Al  8,Al 12,Al  0,H   6)     97.7209         0.010000   
    215. D(H   9,Al 12,Al  0,H   4)    -51.1959         0.010000   
    216. D(Al  8,Al 12,Al  0,H   4)    -23.7992         0.010000   
    217. D(Al  8,Al 12,Al  0,Al  1)      2.8362         0.010000   
    218. D(Al 16,Al 12,H   6,Al  0)    150.6097         0.010000   
    219. D(H   6,Al 12,Al  0,H  11)    133.8155         0.010000   
    220. D(H   9,Al 12,Al  0,Al  1)    -24.5605         0.010000   
    221. D(H   6,Al 12,Al  0,H   5)    -12.0977         0.010000   
    222. D(H   6,Al 12,Al  0,H   4)   -121.5200         0.010000   
    223. D(H   6,Al 12,Al  0,Al  1)    -94.8847         0.010000   
    224. D(H  22,Al 12,H   9,Al  8)    -88.6543         0.010000   
    225. D(Al 19,Al 12,H   9,Al  8)   -107.3778         0.010000   
    226. D(Al 16,Al 12,H   9,Al  8)   -163.7466         0.010000   
    227. D(H  14,Al 12,H   9,Al  8)      7.1989         0.010000   
    228. D(H  13,Al 12,H   9,Al  8)   -169.9612         0.010000   
    229. D(H   6,Al 12,H   9,Al  8)    111.4375         0.010000   
    230. D(Al  0,Al 12,H   9,Al  8)     86.3496         0.010000   
    231. D(H   9,Al 12,Al  8,H  15)   -131.6311         0.010000   
    232. D(H   9,Al 12,Al  8,H   2)    123.6295         0.010000   
    233. D(H   9,Al 12,Al  8,Al  1)     96.8979         0.010000   
    234. D(H   6,Al 12,Al  8,H  15)    155.8462         0.010000   
    235. D(H   6,Al 12,Al  8,H  10)    -57.7828         0.010000   
    236. D(H   6,Al 12,Al  8,H   2)     51.1068         0.010000   
    237. D(H   6,Al 12,Al  8,Al  1)     24.3752         0.010000   
    238. D(H   9,Al 12,Al  8,H  10)     14.7399         0.010000   
    239. D(Al  0,Al 12,Al  8,H  15)    128.6363         0.010000   
    240. D(Al  0,Al 12,Al  8,H  10)    -84.9927         0.010000   
    241. D(Al  0,Al 12,Al  8,H   9)    -99.7326         0.010000   
    242. D(H   6,Al 12,Al  8,H   9)    -72.5227         0.010000   
    243. D(Al  0,Al 12,Al  8,H   2)     23.8969         0.010000   
    244. D(H  22,Al 12,H   6,Al  0)    142.5421         0.010000   
    245. D(H  21,Al 12,H   6,Al  0)     86.6409         0.010000   
    246. D(H  21,Al 12,H   9,Al  8)   -146.1504         0.010000   
    247. D(Al 19,Al 12,H   6,Al  0)    104.9785         0.010000   
    248. D(Al  0,Al 12,Al  8,Al  1)     -2.8347         0.010000   
    249. D(Al 16,H  13,Al 12,H  21)    -10.3805         0.010000   
    250. D(Al 16,H  13,Al 12,Al 19)     28.9008         0.010000   
    251. D(Al 16,H  13,Al 12,H   9)    161.2828         0.010000   
    252. D(Al 16,H  13,Al 12,Al  8)    156.6204         0.010000   
    253. D(Al 16,H  13,Al 12,H   6)   -102.0906         0.010000   
    254. D(Al 16,H  13,Al 12,H  22)     68.4741         0.010000   
    255. D(Al 16,H  13,Al 12,Al  0)    -97.3675         0.010000   
    256. D(H  23,Al 16,H  13,Al 12)    -40.0019         0.010000   
    257. D(Al 19,Al 16,H  13,Al 12)    -26.5812         0.010000   
    258. D(H  17,Al 16,H  13,Al 12)   -145.0138         0.010000   
    259. D(H  17,Al 16,Al 12,H  14)   -130.6492         0.010000   
    260. D(H  17,Al 16,Al 12,H  13)     42.0757         0.010000   
    261. D(H  17,Al 16,Al 12,Al  8)     15.1585         0.010000   
    262. D(H  17,Al 16,Al 12,H   6)    117.3218         0.010000   
    263. D(H  17,Al 16,Al 12,Al  0)    130.6926         0.010000   
    264. D(H  13,Al 16,Al 12,H  22)   -107.6973         0.010000   
    265. D(H  13,Al 16,Al 12,H  21)    168.5283         0.010000   
    266. D(H  17,Al 16,Al 12,H   9)     23.7213         0.010000   
    267. D(H  13,Al 16,Al 12,Al 19)   -146.9770         0.010000   
    268. D(H  13,Al 16,Al 12,H  14)   -172.7249         0.010000   
    269. D(H  13,Al 16,Al 12,H   9)    -18.3544         0.010000   
    270. D(H  18,Al 16,H  13,Al 12)     68.8547         0.010000   
    271. D(H  13,Al 16,Al 12,Al  8)    -26.9172         0.010000   
    272. D(H  13,Al 16,Al 12,H   6)     75.2461         0.010000   
    273. D(H  13,Al 16,Al 12,Al  0)     88.6169         0.010000   
    274. D(H  20,Al 19,Al 12,H  13)    179.2637         0.010000   
    275. D(H  20,Al 19,Al 12,H   9)    116.2278         0.010000   
    276. D(H  20,Al 19,Al 12,Al  8)     82.2803         0.010000   
    277. D(H  20,Al 19,Al 12,Al  0)    -80.7821         0.010000   
    278. D(Al 16,Al 19,Al 12,H  22)   -104.4176         0.010000   
    279. D(Al 16,Al 19,Al 12,H  21)     85.4455         0.010000   
    280. D(Al 16,Al 19,Al 12,H  14)    170.9503         0.010000   
    281. D(Al 16,Al 19,Al 12,H  13)    -10.8424         0.010000   
    282. D(H  20,Al 19,Al 12,H   6)   -114.2632         0.010000   
    283. D(Al 16,Al 19,Al 12,H   9)    -73.8783         0.010000   
    284. D(Al 16,Al 19,Al 12,Al  8)   -107.8258         0.010000   
    285. D(Al 16,Al 19,Al 12,H   6)     55.6307         0.010000   
    286. D(H  20,Al 19,Al 12,H  14)      1.0564         0.010000   
    287. D(Al 16,Al 19,Al 12,Al  0)     89.1118         0.010000   
    288. D(H  21,Al 19,Al 16,Al 12)     48.1850         0.010000   
    289. D(H  20,Al 19,Al 16,H  23)    -25.7265         0.010000   
    290. D(H  20,Al 19,Al 16,H  18)     74.9121         0.010000   
    291. D(H  20,Al 19,Al 16,H  17)    -77.9412         0.010000   
    292. D(H  20,Al 19,Al 16,H  13)   -177.8701         0.010000   
    293. D(H  20,Al 19,Al 16,Al 12)    169.9100         0.010000   
    294. D(Al 12,Al 19,Al 16,H  23)    164.3635         0.010000   
    295. D(Al 12,Al 19,Al 16,H  18)    -94.9979         0.010000   
    296. D(Al 12,Al 19,Al 16,H  17)    112.1488         0.010000   
    297. D(Al 12,Al 19,Al 16,H  13)     12.2199         0.010000   
    298. D(Al 12,H  21,Al 19,H  23)    -95.5937         0.010000   
    299. D(Al 12,H  21,Al 19,H  22)      7.1304         0.010000   
    300. D(Al 12,H  21,Al 19,H  20)    136.8100         0.010000   
    301. D(Al 12,H  21,Al 19,Al 16)    -79.0511         0.010000   
    302. D(Al 19,H  21,Al 12,H  22)     -6.3489         0.010000   
    303. D(Al 19,H  21,Al 12,Al 16)     72.6892         0.010000   
    304. D(Al 19,H  21,Al 12,H  14)   -100.7252         0.010000   
    305. D(Al 19,H  21,Al 12,H  13)     76.5405         0.010000   
    306. D(Al 19,H  21,Al 12,H   9)     53.1740         0.010000   
    307. D(Al 19,H  21,Al 12,Al  8)    -44.2947         0.010000   
    308. D(Al 19,H  21,Al 12,H   6)    156.2405         0.010000   
    309. D(Al 19,H  21,Al 12,Al  0)   -177.1168         0.010000   
    310. D(Al 12,H  22,Al 19,H  23)     93.9865         0.010000   
    311. D(Al 12,H  22,Al 19,H  21)     -7.0623         0.010000   
    312. D(Al 12,H  22,Al 19,Al 16)     66.4453         0.010000   
    313. D(Al 19,H  22,Al 12,H  21)      6.3600         0.010000   
    314. D(Al 19,H  22,Al 12,Al 16)    -59.7614         0.010000   
    315. D(Al 19,H  22,Al 12,H  14)    101.3826         0.010000   
    316. D(Al 19,H  22,Al 12,H  13)    -78.6047         0.010000   
    317. D(Al 19,H  22,Al 12,H   9)   -155.7308         0.010000   
    318. D(Al 12,H  22,Al 19,H  20)   -136.5932         0.010000   
    319. D(Al 19,H  22,Al 12,Al  8)    177.3642         0.010000   
    320. D(Al 19,H  22,Al 12,H   6)    -51.4501         0.010000   
    321. D(Al 19,H  22,Al 12,Al  0)     42.2367         0.010000   
    322. D(Al 16,H  23,Al 19,H  22)    -62.4953         0.010000   
    323. D(Al 16,H  23,Al 19,H  21)     31.6597         0.010000   
    324. D(Al 16,H  23,Al 19,H  20)    163.7357         0.010000   
    325. D(Al 16,H  23,Al 19,Al 12)    -15.0515         0.010000   
    326. D(Al 19,H  23,Al 16,H  18)    -86.9481         0.010000   
    327. D(Al 19,H  23,Al 16,H  17)    137.1475         0.010000   
    328. D(Al 19,H  23,Al 16,H  13)     25.7463         0.010000   
    329. D(Al 19,H  23,Al 16,Al 12)     12.0848         0.010000   
    -----------------------------------------------------------------

Number of atoms                         .... 24
Number of degrees of freedom            .... 329


         *************************************************************
         *                GEOMETRY OPTIMIZATION CYCLE   1            *
         *************************************************************
---------------------------------
CARTESIAN COORDINATES (ANGSTROEM)
---------------------------------
  Al    -0.108935    1.139316    3.119658
  Al     0.326872   -0.303862    0.460694
  H      1.498309   -1.485531    0.865923
  H     -1.118895   -0.877299    0.793315
  H      0.823242    0.724192    1.736642
  H     -1.466375    1.799006    2.614915
  H     -0.518784   -0.425865    3.640336
  H      0.820961    0.376229   -0.884651
  Al     1.179881   -3.078617    1.421904
  H      0.174899   -2.709792    2.744891
  H      0.242955   -3.794800    0.352853
  H      0.938371    1.769792    4.136296
  Al     0.602209   -1.681077    4.083416
  H     -0.942163   -2.424199    4.636420
  H      2.009602   -1.078910    3.629260
  H      2.578285   -3.605803    1.964950
  Al    -1.792153   -2.681810    6.060765
  H     -2.555670   -4.073436    5.986413
  H     -2.327448   -1.303597    6.642318
  Al     1.138806   -2.472419    6.530099
  H      2.264657   -2.543276    7.633490
  H      0.666340   -1.021802    5.855107
  H      1.335654   -3.166584    5.030435
  H     -0.354261   -3.084476    7.011379

----------------------------
CARTESIAN COORDINATES (A.U.)
----------------------------
  NO LB      ZA    FRAG     MASS         X           Y           Z
   0 Al   13.0000    0    26.982   -0.205857    2.152996    5.895299
   1 Al   13.0000    0    26.982    0.617699   -0.574216    0.870586
   2 H     1.0000    0     1.008    2.831394   -2.807247    1.636357
   3 H     1.0000    0     1.008   -2.114406   -1.657855    1.499149
   4 H     1.0000    0     1.008    1.555702    1.368524    3.281778
   5 H     1.0000    0     1.008   -2.771048    3.399629    4.941474
   6 H     1.0000    0     1.008   -0.980359   -0.804768    6.879239
   7 H     1.0000    0     1.008    1.551391    0.710970   -1.671747
   8 Al   13.0000    0    26.982    2.229652   -5.817742    2.687010
   9 H     1.0000    0     1.008    0.330510   -5.120766    5.187092
  10 H     1.0000    0     1.008    0.459119   -7.171133    0.666796
  11 H     1.0000    0     1.008    1.773265    3.344422    7.816467
  12 Al   13.0000    0    26.982    1.138010   -3.176774    7.716537
  13 H     1.0000    0     1.008   -1.780429   -4.581072    8.761563
  14 H     1.0000    0     1.008    3.797598   -2.038844    6.858307
  15 H     1.0000    0     1.008    4.872253   -6.813980    3.713217
  16 Al   13.0000    0    26.982   -3.386679   -5.067887   11.453186
  17 H     1.0000    0     1.008   -4.829517   -7.697678   11.312682
  18 H     1.0000    0     1.008   -4.398240   -2.463442   12.552163
  19 Al   13.0000    0    26.982    2.152031   -4.672195   12.340098
  20 H     1.0000    0     1.008    4.279582   -4.806094   14.425206
  21 H     1.0000    0     1.008    1.259200   -1.930927   11.064549
  22 H     1.0000    0     1.008    2.524021   -5.983976    9.506144
  23 H     1.0000    0     1.008   -0.669456   -5.828815   13.249586

--------------------------------
INTERNAL COORDINATES (ANGSTROEM)
--------------------------------
 Al     0   0   0     0.000000000000     0.00000000     0.00000000
 Al     1   0   0     3.056595965784     0.00000000     0.00000000
 H      2   1   0     1.712546897410   102.56083878     0.00000000
 H      2   1   3     1.590506564251    81.87696686   107.63887853
 H      2   1   3     1.712109636403    27.06739853   290.28622414
 H      1   2   3     1.591414427349    92.37457846   196.40382714
 H      1   2   3     1.699668961349    82.30366590   302.08746628
 H      2   1   3     1.586379722674   125.43144709   239.00855608
 Al     3   2   1     1.717100145258   126.15262196    90.11955643
 H      9   3   2     1.701856445221    99.21566260   305.60344898
 H      9   3   2     1.591734633871   108.00699874    55.63365545
 H      1   2   3     1.589937803152   130.50748164    50.75208237
 Al     7   1   2     1.740258773464   125.93559371    80.50832985
 H     13   7   1     1.800868738365    79.82879489   169.85477384
 H     13   7   1     1.596752502665   102.90518430   350.33391786
 H      9   3   2     1.590081094301   104.77902481   193.01868012
 Al    14  13   7     1.678573172127   139.30147146   257.90939529
 H     17  14  13     1.589058568518   109.75538058   214.98617128
 H     17  14  13     1.588778109890   110.36987029    68.85466971
 Al    13   7   1     2.626864714995   125.87433624   104.97854417
 H     20  13   7     1.577984223383   144.14962372   245.73676615
 H     20  13   7     1.668270653299    45.84105221   330.18519191
 H     20  13   7     1.664213377492    46.40962137   160.04823764
 H     20  13   7     1.683891820195   101.22038370    63.85393716

---------------------------
INTERNAL COORDINATES (A.U.)
---------------------------
 Al     0   0   0     0.000000000000     0.00000000     0.00000000
 Al     1   0   0     5.776129277380     0.00000000     0.00000000
 H      2   1   0     3.236244627601   102.56083878     0.00000000
 H      2   1   3     3.005621820638    81.87696686   107.63887853
 H      2   1   3     3.235418324049    27.06739853   290.28622414
 H      1   2   3     3.007337433260    92.37457846   196.40382714
 H      1   2   3     3.211908855277    82.30366590   302.08746628
 H      2   1   3     2.997823220261   125.43144709   239.00855608
 Al     3   2   1     3.244849019053   126.15262196    90.11955643
 H      9   3   2     3.216042600716    99.21566260   305.60344898
 H      9   3   2     3.007942535893   108.00699874    55.63365545
 H      1   2   3     3.004547017926   130.50748164    50.75208237
 Al     7   1   2     3.288612484001   125.93559371    80.50832985
 H     13   7   1     3.403148718650    79.82879489   169.85477384
 H     13   7   1     3.017424933690   102.90518430   350.33391786
 H      9   3   2     3.004817798954   104.77902481   193.01868012
 Al    14  13   7     3.172043591067   139.30147146   257.90939529
 H     17  14  13     3.002885505260   109.75538058   214.98617128
 H     17  14  13     3.002355515261   110.36987029    68.85466971
 Al    13   7   1     4.964054902202   125.87433624   104.97854417
 H     20  13   7     2.981958025843   144.14962372   245.73676615
 H     20  13   7     3.152574651993    45.84105221   330.18519191
 H     20  13   7     3.144907511868    46.40962137   160.04823764
 H     20  13   7     3.182094379318   101.22038370    63.85393716

---------------------
BASIS SET INFORMATION
---------------------
There are 2 groups of distinct atoms

 Group   1 Type Al  : 14s9p3d1f contracted to 5s5p2d1f pattern {73211/51111/21/1}
 Group   2 Type H   : 5s1p contracted to 3s1p pattern {311/1}

Atom   0Al   basis set group =>   1
Atom   1Al   basis set group =>   1
Atom   2H    basis set group =>   2
Atom   3H    basis set group =>   2
Atom   4H    basis set group =>   2
Atom   5H    basis set group =>   2
Atom   6H    basis set group =>   2
Atom   7H    basis set group =>   2
Atom   8Al   basis set group =>   1
Atom   9H    basis set group =>   2
Atom  10H    basis set group =>   2
Atom  11H    basis set group =>   2
Atom  12Al   basis set group =>   1
Atom  13H    basis set group =>   2
Atom  14H    basis set group =>   2
Atom  15H    basis set group =>   2
Atom  16Al   basis set group =>   1
Atom  17H    basis set group =>   2
Atom  18H    basis set group =>   2
Atom  19Al   basis set group =>   1
Atom  20H    basis set group =>   2
Atom  21H    basis set group =>   2
Atom  22H    basis set group =>   2
Atom  23H    basis set group =>   2
---------------------------------
AUXILIARY/J BASIS SET INFORMATION
---------------------------------
There are 2 groups of distinct atoms

 Group   1 Type Al  : 14s5p5d2f1g contracted to 8s4p3d1f1g pattern {71111111/2111/311/2/1}
 Group   2 Type H   : 5s2p1d contracted to 3s1p1d pattern {311/2/1}

Atom   0Al   basis set group =>   1
Atom   1Al   basis set group =>   1
Atom   2H    basis set group =>   2
Atom   3H    basis set group =>   2
Atom   4H    basis set group =>   2
Atom   5H    basis set group =>   2
Atom   6H    basis set group =>   2
Atom   7H    basis set group =>   2
Atom   8Al   basis set group =>   1
Atom   9H    basis set group =>   2
Atom  10H    basis set group =>   2
Atom  11H    basis set group =>   2
Atom  12Al   basis set group =>   1
Atom  13H    basis set group =>   2
Atom  14H    basis set group =>   2
Atom  15H    basis set group =>   2
Atom  16Al   basis set group =>   1
Atom  17H    basis set group =>   2
Atom  18H    basis set group =>   2
Atom  19Al   basis set group =>   1
Atom  20H    basis set group =>   2
Atom  21H    basis set group =>   2
Atom  22H    basis set group =>   2
Atom  23H    basis set group =>   2


           ************************************************************
           *        Program running with 24 parallel MPI-processes    *
           *              working on a common directory               *
           ************************************************************
------------------------------------------------------------------------------
                             ORCA STARTUP CALCULATIONS
                           -- RI-GTO INTEGRALS CHOSEN --
------------------------------------------------------------------------------
------------------------------------------------------------------------------
                   ___                                                        
                  /   \      - P O W E R E D   B Y -                         
                 /     \                                                     
                 |  |  |   _    _      __       _____    __    __             
                 |  |  |  | |  | |    /  \     |  _  \  |  |  /  |          
                  \  \/   | |  | |   /    \    | | | |  |  | /  /          
                 / \  \   | |__| |  /  /\  \   | |_| |  |  |/  /          
                |  |  |   |  __  | /  /__\  \  |    /   |      \           
                |  |  |   | |  | | |   __   |  |    \   |  |\   \          
                \     /   | |  | | |  |  |  |  | |\  \  |  | \   \       
                 \___/    |_|  |_| |__|  |__|  |_| \__\ |__|  \__/        
                                                                              
                      - O R C A' S   B I G   F R I E N D -                    
                                      &                                       
                       - I N T E G R A L  F E E D E R -                       
                                                                              
 v1 FN, 2020, v2 2021, v3 2022-2024                                           
------------------------------------------------------------------------------


----------------------
SHARK INTEGRAL PACKAGE
----------------------

Number of atoms                             ...     24
Number of basis functions                   ...    330
Number of shells                            ...    150
Maximum angular momentum                    ...      3
Integral batch strategy                     ... SHARK/LIBINT Hybrid
RI-J (if used) integral strategy            ... SPLIT-RIJ (Revised 2003 algorithm where possible)
Printlevel                                  ...      1
Contraction scheme used                     ... SEGMENTED contraction
Prescreening option                         ... SCHWARTZ
   Thresh                                   ... 2.500e-11
   Tcut                                     ... 2.500e-12
   Tpresel                                  ... 2.500e-12 
Coulomb Range Separation                    ... NOT USED
Exchange Range Separation                   ... NOT USED
Multipole approximations                    ... NOT USED
Finite Nucleus Model                        ... NOT USED
CABS basis                                  ... NOT available
Auxiliary Coulomb fitting basis             ... AVAILABLE
   # of basis functions in Aux-J            ...    504
   # of shells in Aux-J                     ...    192
   Maximum angular momentum in Aux-J        ...      4
Auxiliary J/K fitting basis                 ... NOT available
Auxiliary Correlation fitting basis         ... NOT available
Auxiliary 'external' fitting basis          ... NOT available

Checking pre-screening integrals            ... done (  0.0 sec) Dimension = 150
   => SHARK Basis and OBASIS are compatible. Storing Pre-screening
Shell pair information
Shell pair cut-off parameter TPreSel        ...   2.5e-12
Total number of shell pairs                 ...     11325
Shell pairs after pre-screening             ...      9283
Total number of primitive shell pairs       ...     36855
Primitive shell pairs kept                  ...     20895
          la=0 lb=0:   2933 shell pairs
          la=1 lb=0:   3078 shell pairs
          la=1 lb=1:    830 shell pairs
          la=2 lb=0:    959 shell pairs
          la=2 lb=1:    547 shell pairs
          la=2 lb=2:     78 shell pairs
          la=3 lb=0:    488 shell pairs
          la=3 lb=1:    277 shell pairs
          la=3 lb=2:     72 shell pairs
          la=3 lb=3:     21 shell pairs

Checking whether 4 symmetric matrices of dimension 330 fit in memory
:Max Core in MB      =   4096.00
 MB in use           =     14.85
 MB left             =   4081.15
 MB needed           =      1.67
 Data fit in memory  = YES
Calculating RI/J V-Matrix + Cholesky decomp.... done (  0.2 sec)
Calculating Nuclear repulsion               ... done (  0.0 sec) ENN=    600.417578529909 Eh

Diagonalization of the overlap matrix:
Smallest eigenvalue                        ... 4.423e-04
Time for diagonalization                   ...    0.061 sec
Threshold for overlap eigenvalues          ... 1.000e-07
Number of eigenvalues below threshold      ... 0
Time for construction of square roots      ...    0.021 sec
Total time needed                          ...    0.086 sec

-------------------
DFT GRID GENERATION
-------------------

General Integration Accuracy     IntAcc      ... 4.959
Radial Grid Type                 RadialGrid  ... OptM3 with GC (2021)
Angular Grid (max. ang.)         AngularGrid ... 6 (Lebedev-590)
Angular grid pruning method      GridPruning ... 4 (adaptive)
Weight generation scheme         WeightScheme... mBecke (2022)
Basis function cutoff            BFCut       ... 1.0000e-11
Integration weight cutoff        WCut        ... 1.0000e-14
Partially contracted basis set               ... off
Rotationally invariant grid construction     ... off
Angular grids for H and He will be reduced by one unit

Total number of grid points                  ...   251627
Total number of batches                      ...     3942
Average number of points per batch           ...       63
Average number of grid points per atom       ...    10484
Grids setup in   6.3 sec
Initializing property integral containers    ... done (  0.0 sec)

SHARK setup successfully completed in   7.1 seconds

Maximum memory used throughout the entire STARTUP-calculation: 54.8 MB


           ************************************************************
           *        Program running with 24 parallel MPI-processes    *
           *              working on a common directory               *
           ************************************************************
-------------------------------------------------------------------------------
                                 ORCA GUESS
                   Start orbitals & Density for SCF / CASSCF
-------------------------------------------------------------------------------

------------
SCF SETTINGS
------------
Hamiltonian:
 Density Functional     Method          .... DFT(GTOs)
 Exchange Functional    Exchange        .... PBE
   PBE kappa parameter   XKappa         ....  0.804000
   PBE mue parameter    XMuePBE         ....  0.219520
 Correlation Functional Correlation     .... PBE
   PBE beta parameter  CBetaPBE         ....  0.066725
 LDA part of GGA corr.  LDAOpt          .... PW91-LDA
 Gradients option       PostSCFGGA      .... off
   NL short-range parameter             ....  6.400000
 RI-approximation to the Coulomb term is turned on
   Number of AuxJ basis functions       .... 504


General Settings:
 Integral files         IntName         .... run
 Hartree-Fock type      HFTyp           .... RHF
 Total Charge           Charge          ....    0
 Multiplicity           Mult            ....    1
 Number of Electrons    NEL             ....   96
 Basis Dimension        Dim             ....  330
 Nuclear Repulsion      ENuc            ....    600.4175785299 Eh

Convergence Acceleration:
 AO-DIIS                CNVDIIS         .... on
   Start iteration      DIISMaxIt       ....    12
   Startup error        DIISStart       ....  0.200000
   # of expansion vecs  DIISMaxEq       ....     5
   Bias factor          DIISBfac        ....   1.050
   Max. coefficient     DIISMaxC        ....  10.000
 MO-DIIS                CNVKDIIS        .... off
 Trust-Rad. Augm. Hess. CNVTRAH         .... auto
   Auto Start mean grad. ratio tolernc. ....  1.125000
   Auto Start start iteration           ....    50
   Auto Start num. interpolation iter.  ....    10
   Max. Number of Micro iterations      ....    24
   Max. Number of Macro iterations      .... Maxiter - #DIIS iter
   Number of Davidson start vectors     ....     2
   Converg. threshold    (grad. norm)   ....   1.000e-05
   Grad. Scal. Fac. for Micro threshold ....   0.100
   Minimum threshold for Micro iter.    ....   1.000e-02
   NR start threshold (gradient norm)   ....   1.000e-04
   Initial trust radius                 ....   0.400
   Minimum AH scaling param. (alpha)    ....   1.000
   Maximum AH scaling param. (alpha)    .... 1000.000
   Quad. conv. algorithm                .... NR
   White noise on init. David. guess    .... on
   Maximum white noise                  ....   0.010
   Pseudo random numbers                .... off
   Inactive MOs                         .... canonical
   Orbital update algorithm             .... Taylor
   Preconditioner                       .... Diag
   Full preconditioner red. dimension   ....   250
 SOSCF                 CNVSOSCF           .... on
   Start iteration     SOSCFMaxIt         ....   150
   Startup grad/error  SOSCFStart         ....  0.003300
   Hessian update      SOSCFHessUp        .... L-BFGS
   Autom. constraints  SOSCFAutoConstrain .... off
 Level Shifting         CNVShift        .... on
   Level shift para.    LevelShift      ....    0.2500
   Turn off err/grad.   ShiftErr        ....    0.0010
 Zerner damping         CNVZerner       .... off
 Static damping         CNVDamp         .... on
   Fraction old density DampFac         ....    0.7000
   Max. Damping (<1)    DampMax         ....    0.9800
   Min. Damping (>=0)   DampMin         ....    0.0000
   Turn off err/grad.   DampErr         ....    0.1000

SCF Procedure:
 Maximum # iterations   MaxIter         ....   125
 SCF integral mode      SCFMode         .... Direct
   Integral package                     .... SHARK and LIBINT hybrid scheme
 Reset frequency        DirectResetFreq ....    20
 Integral Threshold     Thresh          ....  2.500e-11 Eh
 Primitive CutOff       TCut            ....  2.500e-12 Eh

Convergence Tolerance:
 Convergence Check Mode ConvCheckMode   .... Total+1el-Energy
 Convergence forced     ConvForced      .... 0
 Energy Change          TolE            ....  1.000e-08 Eh
 1-El. energy change                    ....  1.000e-05 Eh
 Orbital Gradient       TolG            ....  1.000e-05
 Orbital Rotation angle TolX            ....  1.000e-05
 DIIS Error             TolErr          ....  5.000e-07

------------------------------
INITIAL GUESS: MODEL POTENTIAL
------------------------------
Loading Hartree-Fock densities                     ... done
Calculating cut-offs                               ... done
Initializing the effective Hamiltonian             ... done
Setting up the integral package (SHARK)            ... done
Starting the Coulomb interaction                   ... done (   0.1 sec)
Making the grid                                    ... done (   0.2 sec)
Mapping shells                                     ... done
Starting the XC term evaluation                    ... done (   0.1 sec)
  promolecular density results
     # of electrons  =     95.992406807
     EX              =   -113.471416002
     EC              =     -3.343362394
     EX+EC           =   -116.814778396
Transforming the Hamiltonian                       ... done (   0.0 sec)
Diagonalizing the Hamiltonian                      ... done (   0.1 sec)
Back transforming the eigenvectors                 ... done (   0.0 sec)
Now organizing SCF variables                       ... done
                      ------------------
                      INITIAL GUESS DONE (   0.6 sec)
                      ------------------
             **** ENERGY FILE WAS UPDATED (run.en.tmp) ****
Finished Guess after   1.3 sec
Maximum memory used throughout the entire GUESS-calculation: 20.1 MB


           ************************************************************
           *        Program running with 24 parallel MPI-processes    *
           *              working on a common directory               *
           ************************************************************

-------------------------------------------------------------------------------------------
                                      ORCA LEAN-SCF
                              memory conserving SCF solver
-------------------------------------------------------------------------------------------

--------------------
CPCM SOLVATION MODEL
--------------------
CPCM parameters:
  Epsilon                                         ...       1.9578
  Refrac                                          ...       1.0000
  Rsolv                                           ...       1.3000
  Surface type                                    ... GAUSSIAN VDW
  Discretization scheme                           ... Constant charge density
    Threshold for H atoms                         ...       5.0000 (charges/Ang^2)
    Threshold for non-H atoms                     ...       5.0000 (charges/Ang^2)
  Epsilon function type                           ...         CPCM
Solvent:                                          ... CUSTOM
Radii:
  Scheme                                          ... Element-dependent radii
  Radius for Al used is    4.1725 Bohr (=   2.2080 Ang.)
  Radius for H  used is    2.4944 Bohr (=   1.3200 Ang.)
Calculating surface                               ...        done! (  0.0s)
Cavity surface points                             ...         2051
Cavity Volume                                     ...    1750.1980
Cavity Surface-area                               ...     972.6981
Calculating surface distance matrix               ...        done! (  0.1s)
Performing Cholesky decomposition & store         ...        done! (  0.2s)
Overall time for CPCM initialization              ...                 0.3s

----------------------------------------D-I-I-S--------------------------------------------
Iteration    Energy (Eh)           Delta-E    RMSDP     MaxDP     DIISErr   Damp  Time(sec)
-------------------------------------------------------------------------------------------
               ***  Starting incremental Fock matrix formation  ***
    1    -1464.4528017780116897     0.00e+00  2.69e-03  1.75e-02  8.47e-02  0.700   1.5
    2    -1464.4756452811730014    -2.28e-02  2.50e-03  1.64e-02  5.80e-02  0.700   1.4
                               ***Turning on AO-DIIS***
    3    -1464.4905112866331365    -1.49e-02  1.55e-03  9.30e-03  3.52e-02  0.700   1.4
    4    -1464.4994860101000995    -8.97e-03  3.40e-03  2.04e-02  2.30e-02  0.000   1.3
                              *** Initializing SOSCF ***
---------------------------------------S-O-S-C-F--------------------------------------
Iteration    Energy (Eh)           Delta-E    RMSDP     MaxDP     MaxGrad    Time(sec)
--------------------------------------------------------------------------------------
    5    -1464.5175246733647327    -1.80e-02  2.59e-04  2.60e-03  1.60e-03     1.5
               *** Restarting incremental Fock matrix formation ***
    6    -1464.5175654100958127    -4.07e-05  1.59e-04  1.08e-03  2.14e-04     1.4
    7    -1464.5175693306500762    -3.92e-06  4.68e-05  8.35e-04  1.61e-04     1.2
    8    -1464.5175707355724626    -1.40e-06  1.95e-05  3.71e-04  4.06e-05     1.2
    9    -1464.5175707757161945    -4.01e-08  7.37e-06  1.77e-04  2.29e-05     1.2
   10    -1464.5175708242932160    -4.86e-08  3.43e-06  4.66e-05  3.81e-06     1.2
   11    -1464.5175708368783489    -1.26e-08  1.60e-06  2.22e-05  2.76e-06     1.1
   12    -1464.5175708281399238     8.74e-09  5.65e-07  7.51e-06  4.79e-07     1.1
                 **** Energy Check signals convergence ****

               *****************************************************
               *                     SUCCESS                       *
               *           SCF CONVERGED AFTER  12 CYCLES          *
               *****************************************************

             **** ENERGY FILE WAS UPDATED (run.en.tmp) ****

----------------
TOTAL SCF ENERGY
----------------

Total Energy       :      -1464.51757083437042 Eh          -39851.54912 eV

Components:
Nuclear Repulsion  :        600.41757852990929 Eh           16338.19293 eV
Electronic Energy  :      -2064.92793665819545 Eh          -56189.54578 eV
One Electron Energy:      -3230.08118400356034 Eh          -87894.97751 eV
Two Electron Energy:       1165.15324734536489 Eh           31705.43173 eV
CPCM Dielectric    :         -0.00721270608430 Eh              -0.19627 eV

Virial components:
Potential Energy   :      -2925.66194138062201 Eh          -79611.30879 eV
Kinetic Energy     :       1461.14437054625137 Eh           39759.75967 eV
Virial Ratio       :          2.00230860163863

DFT components:
N(Alpha)           :       48.000023928433 electrons
N(Beta)            :       48.000023928433 electrons
N(Total)           :       96.000047856866 electrons
E(X)               :     -114.356588669958 Eh       
E(C)               :       -3.292830938007 Eh       
E(XC)              :     -117.649419607965 Eh       

CPCM Solvation Model Properties:
Surface-charge          :         -0.08072026218621
Corrected charge        :         -0.00000000000000
Outlying charge corr.   :          0.00019257226557 Eh               0.00524 eV
Free-energy (cav+disp)  :  This term is not implemented in the current solvation scheme

---------------
SCF CONVERGENCE
---------------

  Last Energy change         ...   -8.7384e-09  Tolerance :   1.0000e-08
  Last MAX-Density change    ...    7.5133e-06  Tolerance :   1.0000e-07
  Last RMS-Density change    ...    5.6535e-07  Tolerance :   5.0000e-09
  Last DIIS Error            ...    1.5973e-03  Tolerance :   5.0000e-07
  Last Orbital Gradient      ...    4.7874e-07  Tolerance :   1.0000e-05
  Last Orbital Rotation      ...    3.8013e-07  Tolerance :   1.0000e-05


----------------
ORBITAL ENERGIES
----------------

  NO   OCC          E(Eh)            E(eV) 
   0   2.0000     -55.400486     -1507.5239 
   1   2.0000     -55.392888     -1507.3171 
   2   2.0000     -55.376670     -1506.8758 
   3   2.0000     -55.373414     -1506.7872 
   4   2.0000     -55.369837     -1506.6899 
   5   2.0000     -55.369576     -1506.6828 
   6   2.0000      -3.955920      -107.6461 
   7   2.0000      -3.953517      -107.5807 
   8   2.0000      -3.936818      -107.1263 
   9   2.0000      -3.933847      -107.0454 
  10   2.0000      -3.930050      -106.9421 
  11   2.0000      -3.929799      -106.9353 
  12   2.0000      -2.559413       -69.6452 
  13   2.0000      -2.559259       -69.6410 
  14   2.0000      -2.557252       -69.5864 
  15   2.0000      -2.556964       -69.5785 
  16   2.0000      -2.554792       -69.5194 
  17   2.0000      -2.551753       -69.4367 
  18   2.0000      -2.542448       -69.1835 
  19   2.0000      -2.539132       -69.0933 
  20   2.0000      -2.538842       -69.0854 
  21   2.0000      -2.536590       -69.0241 
  22   2.0000      -2.534952       -68.9796 
  23   2.0000      -2.534715       -68.9731 
  24   2.0000      -2.534316       -68.9623 
  25   2.0000      -2.532793       -68.9208 
  26   2.0000      -2.532543       -68.9140 
  27   2.0000      -2.531466       -68.8847 
  28   2.0000      -2.527786       -68.7846 
  29   2.0000      -2.527520       -68.7773 
  30   2.0000      -0.504116       -13.7177 
  31   2.0000      -0.462060       -12.5733 
  32   2.0000      -0.418892       -11.3986 
  33   2.0000      -0.409078       -11.1316 
  34   2.0000      -0.393178       -10.6989 
  35   2.0000      -0.351458        -9.5637 
  36   2.0000      -0.338056        -9.1990 
  37   2.0000      -0.319744        -8.7007 
  38   2.0000      -0.309557        -8.4235 
  39   2.0000      -0.302719        -8.2374 
  40   2.0000      -0.302014        -8.2182 
  41   2.0000      -0.294118        -8.0034 
  42   2.0000      -0.283241        -7.7074 
  43   2.0000      -0.278970        -7.5912 
  44   2.0000      -0.273487        -7.4420 
  45   2.0000      -0.268274        -7.3001 
  46   2.0000      -0.260704        -7.0941 
  47   2.0000      -0.249280        -6.7833 
  48   0.0000      -0.080162        -2.1813 
  49   0.0000      -0.055431        -1.5083 
  50   0.0000      -0.051802        -1.4096 
  51   0.0000      -0.047039        -1.2800 
  52   0.0000      -0.036446        -0.9918 
  53   0.0000      -0.035233        -0.9587 
  54   0.0000      -0.028855        -0.7852 
  55   0.0000      -0.018428        -0.5014 
  56   0.0000      -0.007555        -0.2056 
  57   0.0000      -0.006113        -0.1664 
  58   0.0000      -0.001636        -0.0445 
*Only the first 10 virtual orbitals were printed.
-------
TIMINGS
-------

Total SCF time: 0 days 0 hours 0 min 17 sec 

Total time                  ....      17.765 sec
Sum of individual times     ....      16.694 sec  ( 94.0%)

SCF preparation             ....       1.056 sec  (  5.9%)
Fock matrix formation       ....      13.781 sec  ( 77.6%)
  Startup                   ....       0.030 sec  (  0.2% of F)
  Split-RI-J                ....       2.192 sec  ( 15.9% of F)
  XC integration            ....       7.558 sec  ( 54.8% of F)
    XC Preparation          ....       0.000 sec  (  0.0% of XC)
    Basis function eval.    ....       2.104 sec  ( 27.8% of XC)
    Density eval.           ....       2.005 sec  ( 26.5% of XC)
    XC-Functional eval.     ....       0.173 sec  (  2.3% of XC)
    XC-Potential eval.      ....       1.776 sec  ( 23.5% of XC)
  CPCM terms                ....       4.530 sec  ( 32.9% of F)
Diagonalization             ....       0.000 sec  (  0.0%)
Density matrix formation    ....       0.176 sec  (  1.0%)
Total Energy calculation    ....       0.113 sec  (  0.6%)
Population analysis         ....       0.000 sec  (  0.0%)
Orbital Transformation      ....       0.190 sec  (  1.1%)
Orbital Orthonormalization  ....       0.000 sec  (  0.0%)
DIIS solution               ....       0.730 sec  (  4.1%)
SOSCF solution              ....       0.647 sec  (  3.6%)
Finished LeanSCF after  18.0 sec

Maximum memory used throughout the entire LEANSCF-calculation: 23.0 MB


           ************************************************************
           *        Program running with 24 parallel MPI-processes    *
           *              working on a common directory               *
           ************************************************************

------------------------------------------------------------------------------
                         ORCA PROPERTY INTEGRAL CALCULATIONS
------------------------------------------------------------------------------

GBWName                                   ... run.gbw
Number of atoms                           ...     24
Number of basis functions                 ...    330
Max core memory                           ...   4096 MB

Dipole integrals                          ... YES
Quadrupole integrals                      ...  NO
Linear momentum integrals                 ...  NO
Angular momentum integrals                ...  NO
Higher moments length integrals           ...  NO
Higher moments velocity integrals         ...  NO
Kinetic energy integrals                  ...  NO
GIAO right hand sides                     ...  NO
GIAO dipole derivative integrals          ...  NO
SOC integrals                             ...  NO
EPR diamagnetic integrals (GIAO)          ...  NO
EPR gauge integrals                       ...  NO
Field gradient integrals                  ...  NO (   0 nuclei)
Spin-dipole/Fermi contact integrals       ...  NO (   0 nuclei)
Contact density integrals                 ...  NO (   0 nuclei)
Nucleus-orbit integrals                   ...  NO (   0 nuclei)
Geometric perturbations                   ...  NO (  24 nuclei)

Choice of electric origin   ... Center of mass
Position of electric origin ... (  0.4245, -2.8560,  6.8204) 
Choice of magnetic origin   ... GIAO
Position of magnetic origin ... (  0.0000,  0.0000,  0.0000) 

Calculating integrals                     ... Electric Dipole (Length)     done (  0.0 sec)

Property integrals calculated in   0.1 sec

Maximum memory used throughout the entire PROPINT-calculation: 20.9 MB


-------------------------------------------------------------------------------
                          DFT DISPERSION CORRECTION                            
                                                                               
                              DFTD3 V3.1  Rev 1                                
                          USING Becke-Johnson damping                          
-------------------------------------------------------------------------------
The PBE functional is recognized
Active option DFTDOPT                   ...         4   

molecular C6(AA) [au] = 11108.603570 


            DFT-D V3
 parameters
 s6 scaling factor         :     1.0000 
 a1 scaling factor         :     0.4289 
 s8 scaling factor         :     0.7875 
 a2 scaling factor         :     4.4407 
 ad hoc parameters k1-k3   :    16.0000     1.3333    -4.0000 

 Edisp/kcal,au: -15.793542144603  -0.025168608782 
 E6   /kcal   :  -9.933580754 
 E8   /kcal   :  -5.859961391 
 % E8         :  37.103528374 

-------------------------   ----------------
Dispersion correction           -0.025168609
-------------------------   ----------------


-------------------------   --------------------
FINAL SINGLE POINT ENERGY     -1464.542739443153
-------------------------   --------------------



           ************************************************************
           *        Program running with 24 parallel MPI-processes    *
           *              working on a common directory               *
           ************************************************************
------------------------------------------------------------------------------
                         ORCA SCF GRADIENT CALCULATION
------------------------------------------------------------------------------

Nuc. rep. gradient        (SHARK) ... done (  0.0 sec)
HCore & Overlap gradient  (SHARK) ... done (  0.2 sec)
Split-RIJ-J gradient      (SHARK) ... done (  0.9 sec)
XC gradient                       ... done (  4.4 sec)
CPCM gradient                     ... done (  1.1 sec)
Dispersion correction             ... done (  0.1 sec)

-------------------
DISPERSION GRADIENT
-------------------

   1   Al  :   -0.000118375    0.000743704   -0.000033191
   2   Al  :   -0.000028163    0.000216838   -0.000566265
   3   H   :    0.000108831   -0.000040396   -0.000183678
   4   H   :   -0.000170807    0.000029510   -0.000204287
   5   H   :    0.000036910    0.000194815   -0.000091080
   6   H   :   -0.000115709    0.000159668    0.000024916
   7   H   :   -0.000106722    0.000154083    0.000025988
   8   H   :    0.000019944    0.000067807   -0.000153681
   9   Al  :    0.000229699   -0.000503433   -0.000479114
  10   H   :   -0.000015624   -0.000189300   -0.000086326
  11   H   :   -0.000017707   -0.000167983   -0.000101793
  12   H   :    0.000039558    0.000217488    0.000057502
  13   Al  :    0.000145973   -0.000089180    0.000218377
  14   H   :   -0.000137108   -0.000082279    0.000051454
  15   H   :    0.000207300    0.000028623    0.000070500
  16   H   :    0.000145104   -0.000147871   -0.000083793
  17   Al  :   -0.000446286   -0.000209201    0.000365332
  18   H   :   -0.000138133   -0.000099254    0.000026044
  19   H   :   -0.000198579    0.000047355    0.000112893
  20   Al  :    0.000261901   -0.000166200    0.000514891
  21   H   :    0.000117653   -0.000021475    0.000131916
  22   H   :    0.000086754    0.000039050    0.000145868
  23   H   :    0.000124429   -0.000103931    0.000090927
  24   H   :   -0.000030843   -0.000078440    0.000146599

Difference to translation invariance:
           :   -0.0000000000   -0.0000000000   -0.0000000000

Difference to rotation invariance:
           :    0.0000000000   -0.0000000000    0.0000000000

Norm of the Dispersion gradient    ...    0.0017402222
RMS gradient                       ...    0.0002050872
MAX gradient                       ...    0.0007437045

------------------
CARTESIAN GRADIENT
------------------

   1   Al  :   -0.000106931    0.001404341    0.000158898
   2   Al  :   -0.000816573   -0.000098438   -0.000465818
   3   H   :    0.000270495    0.000161116    0.000058739
   4   H   :    0.000305129    0.000005907    0.000233334
   5   H   :    0.000315777    0.000001725   -0.000025784
   6   H   :    0.000257868   -0.000301006   -0.000099970
   7   H   :   -0.000247926   -0.000683649    0.000413706
   8   H   :    0.000069066   -0.000091536    0.000265207
   9   Al  :    0.000636906   -0.000902453   -0.000767201
  10   H   :   -0.000452464   -0.000031111    0.000709661
  11   H   :    0.000056324    0.000351321    0.000174776
  12   H   :   -0.000162933   -0.000381456   -0.000045337
  13   Al  :    0.000710715    0.001341852   -0.002469271
  14   H   :    0.000064378   -0.000169202    0.000211048
  15   H   :   -0.000361040   -0.000328111    0.000483809
  16   H   :   -0.000346363    0.000147533    0.000171849
  17   Al  :   -0.001911724    0.000029648   -0.000177738
  18   H   :    0.000477986    0.000159082    0.000035751
  19   H   :    0.000501822   -0.000129023   -0.000049370
  20   Al  :    0.000311958    0.000656837   -0.000844600
  21   H   :   -0.000153793   -0.000091214    0.000047958
  22   H   :    0.000040117   -0.000242460    0.000794005
  23   H   :    0.000073525   -0.000523297    0.000765180
  24   H   :    0.000467680   -0.000286405    0.000421169

Difference to translation invariance:
           :   -0.0000000000    0.0000000001   -0.0000000002

Difference to rotation invariance:
           :   -0.0005485415   -0.0000469220   -0.0000382712

Norm of the Cartesian gradient     ...    0.0048682171
RMS gradient                       ...    0.0005737249
MAX gradient                       ...    0.0024692715

-------
TIMINGS
-------

Total SCF gradient time     ....        6.829 sec

Densities                   ....       0.004 sec  (  0.1%)
One electron gradient       ....       0.225 sec  (  3.3%)
RI-J Coulomb gradient       ....       0.877 sec  ( 12.8%)
XC gradient                 ....       4.440 sec  ( 65.0%)
CPCM gradient               ....       1.139 sec  ( 16.7%)
   A-Matrix (El+Nuc)        ....       0.019 sec  (  0.3%)
   Potential                ....       1.120 sec  ( 16.4%)

Maximum memory used throughout the entire SCFGRAD-calculation: 39.2 MB
------------------------------------------------------------------------------
                         ORCA GEOMETRY RELAXATION STEP
------------------------------------------------------------------------------

Reading the OPT-File                    .... done
Getting information on internals        .... done
Copying old internal coords+grads       .... done
Making the new internal coordinates     .... (2022 redundants) done
Validating the new internal coordinates .... (2022 redundants) done
Calculating the B-matrix                .... done
Calculating the G,G- and P matrices     .... done
Transforming gradient to internals      .... done
Projecting the internal gradient        .... done
Number of atoms                         ....  24
Number of internal coordinates          .... 329
Current Energy                          .... -1464.542739443 Eh
Current gradient norm                   ....     0.004868217 Eh/bohr
Maximum allowed component of the step   ....  0.300
Current trust radius                    ....  0.300
[...]
     66      -0.000805  -0.007013   0.000359  -0.000058  -0.001173   0.007332
     67       0.001250  -0.002017  -0.000689  -0.003964   0.000047  -0.009463
     68      -0.003080  -0.043810   0.003820  -0.005092  -0.005165  -0.001680
     69      -0.011800   0.114212  -0.028590   0.007426   0.000532   0.044561
     70      -0.001712   0.016023  -0.004000   0.008146   0.000268   0.003436
     71      -0.000735   0.010774  -0.002967   0.002364  -0.000142   0.009396


-----------
IR SPECTRUM
-----------

 Mode   freq       eps      Int      T**2         TX        TY        TZ
       cm**-1   L/(mol*cm) km/mol    a.u.
----------------------------------------------------------------------------
  6:     38.20   0.000077    0.39  0.000633  (-0.001837 -0.025089 -0.000161)
  7:     43.63   0.000026    0.13  0.000184  ( 0.007851 -0.010140  0.004429)
  8:     49.06   0.000078    0.39  0.000493  ( 0.001969  0.013457  0.017556)
  9:     76.38   0.000045    0.23  0.000186  ( 0.006339 -0.003245  0.011623)
 10:     99.55   0.000161    0.82  0.000506  (-0.022460  0.000117  0.001243)
 11:    126.61   0.000140    0.71  0.000344  ( 0.001799 -0.018123  0.003528)
 12:    135.69   0.001403    7.09  0.003226  ( 0.014911 -0.052093 -0.017040)
 13:    148.28   0.000037    0.19  0.000077  ( 0.002112 -0.008263  0.002158)
 14:    166.74   0.000385    1.95  0.000721  (-0.014830 -0.001434 -0.022349)
 15:    190.13   0.001152    5.82  0.001890  (-0.008533  0.018235 -0.038535)
 16:    223.10   0.002202   11.13  0.003081  (-0.003170  0.008737  0.054719)
 17:    232.69   0.002387   12.06  0.003201  ( 0.000716 -0.001954  0.056540)
 18:    282.26   0.001577    7.97  0.001743  (-0.011910 -0.040009 -0.000883)
 19:    294.55   0.001824    9.22  0.001932  ( 0.006370 -0.029151  0.032278)
 20:    323.82   0.001017    5.14  0.000980  (-0.007775  0.006169 -0.029697)
 21:    343.18   0.001086    5.49  0.000987  (-0.026329 -0.014612  0.008968)
 22:    358.17   0.000738    3.73  0.000643  (-0.002121 -0.024723 -0.005201)
 23:    370.85   0.013849   69.98  0.011653  (-0.075522 -0.047058  0.061116)
 24:    388.76   0.000696    3.52  0.000559  (-0.009330 -0.013310  0.017166)
 25:    394.54   0.000246    1.24  0.000195  (-0.004912  0.012426  0.004015)
 26:    405.43   0.000225    1.14  0.000173  (-0.003981  0.010150  0.007369)
 27:    433.52   0.006945   35.10  0.004999  (-0.003298 -0.016763  0.068612)
 28:    449.79   0.001776    8.97  0.001232  ( 0.008469 -0.033743 -0.004646)
 29:    475.20   0.039238  198.29  0.025768  (-0.082041 -0.069334  0.119288)
 30:    485.74   0.002400   12.13  0.001542  ( 0.022462  0.020969 -0.024452)
 31:    514.21   0.017902   90.47  0.010864  (-0.043884 -0.026095  0.090870)
 32:    540.21   0.041961  212.05  0.024240  (-0.028288  0.153026  0.004778)
 33:    557.77   0.038530  194.72  0.021557  ( 0.057168 -0.017049 -0.134157)
 34:    626.23   0.238994  1207.78  0.119095  (-0.089367  0.255250  0.214374)
 35:    633.90   0.000127    0.64  0.000062  (-0.003330 -0.003856  0.006034)
 36:    650.73   0.224591  1134.99  0.107705  ( 0.019779  0.138903 -0.296681)
 37:    658.84   0.127855  646.13  0.060559  (-0.027571  0.236098 -0.063691)
 38:    672.63   0.105445  532.88  0.048921  (-0.216204  0.042952  0.018202)
 39:    683.32   0.077189  390.08  0.035251  ( 0.125263 -0.024873  0.137628)
 40:    698.44   0.029527  149.22  0.013193  (-0.010789 -0.031788  0.109844)
 41:    698.84   0.019132   96.69  0.008543  ( 0.023614  0.058307 -0.067720)
 42:    707.50   0.003094   15.64  0.001365  ( 0.005449 -0.035132 -0.010042)
 43:    745.17   0.010233   51.71  0.004285  (-0.061211 -0.008147 -0.021726)
 44:    778.77   0.039395  199.08  0.015786  ( 0.087326 -0.071429  0.055299)
 45:    807.37   0.047754  241.33  0.018458  ( 0.090370  0.078610  0.064121)
 46:    929.73   0.055352  279.73  0.018579  (-0.025512 -0.022247 -0.132034)
 47:    989.09   0.023499  118.75  0.007414  (-0.041788  0.074389  0.011579)
 48:   1050.27   0.000338    1.71  0.000100  (-0.009870 -0.001695 -0.000148)
 49:   1074.75   0.038900  196.58  0.011295  ( 0.096766  0.039067 -0.020121)
 50:   1089.39   0.010705   54.10  0.003067  (-0.043674  0.033020  0.008296)
 51:   1096.81   0.060875  307.64  0.017320  ( 0.120842  0.043677  0.028457)
 52:   1136.72   0.016804   84.92  0.004613  (-0.032877  0.039175 -0.044695)
 53:   1149.82   0.125039  631.90  0.033936  ( 0.009333 -0.071524  0.169508)
 54:   1574.90   0.028729  145.19  0.005693  (-0.017298  0.072349  0.012611)
 55:   1631.94   0.138028  697.54  0.026394  ( 0.040120  0.036022 -0.153254)
 56:   1653.69   0.303085  1531.67  0.057194  (-0.074911 -0.064862  0.217659)
 57:   1688.58   0.027915  141.07  0.005159  (-0.011938  0.057980 -0.040679)
 58:   1709.86   0.144634  730.92  0.026397  (-0.161131 -0.020317 -0.004581)
 59:   1744.10   0.398716  2014.95  0.071340  (-0.068184  0.242185  0.089654)
 60:   1786.95   0.123598  624.61  0.021585  (-0.022498  0.055475 -0.134168)
 61:   1822.03   0.081045  409.57  0.013881  ( 0.106377  0.033803 -0.037710)
 62:   1866.76   0.040125  202.77  0.006708  (-0.065278  0.013238 -0.047656)
 63:   1878.12   0.004873   24.63  0.000810  ( 0.005315 -0.023901 -0.014497)
 64:   1881.55   0.034560  174.65  0.005732  ( 0.043780 -0.012326  0.060525)
 65:   1882.43   0.000803    4.06  0.000133  (-0.009636  0.003809 -0.005069)
 66:   1884.81   0.000974    4.92  0.000161  ( 0.004150  0.000070 -0.012000)
 67:   1888.35   0.005119   25.87  0.000846  ( 0.028089  0.007535 -0.000514)
 68:   1889.96   0.068971  348.55  0.011388  ( 0.102306  0.023354  0.019401)
 69:   1894.70   0.052965  267.66  0.008723  ( 0.002369  0.090850  0.021546)
 70:   1902.83   0.025299  127.85  0.004149  ( 0.034984  0.029028 -0.045635)
 71:   1941.01   0.022907  115.76  0.003683  ( 0.037497 -0.005206  0.047432)

* The epsilon (eps) is given for a Dirac delta lineshape.
** The dipole moment derivative (T) already includes vibrational overlap.

The first frequency considered to be a vibration is 6
The total number of vibrations considered is 66


--------------------------
THERMOCHEMISTRY AT 298.15K
--------------------------

Temperature         ...   298.15 K
Pressure            ...     1.00 atm
Total Mass          ...   180.04 AMU
Quasi RRHO          ...     True
Cut-Off Frequency   ...     1.00 cm^-1

Throughout the following assumptions are being made:
  (1) The electronic state is orbitally nondegenerate
  (2) There are no thermally accessible electronically excited states
  (3) Hindered rotations indicated by low frequency modes are not
      treated as such but are treated as vibrations and this may
      cause some error
  (4) All equations used are the standard statistical mechanics
      equations for an ideal gas
  (5) All vibrations are strictly harmonic

freq.      38.20  E(vib)   ...       0.54 
freq.      43.63  E(vib)   ...       0.53 
freq.      49.06  E(vib)   ...       0.53 
freq.      76.38  E(vib)   ...       0.49 
freq.      99.55  E(vib)   ...       0.46 
freq.     126.61  E(vib)   ...       0.43 
freq.     135.69  E(vib)   ...       0.42 
freq.     148.28  E(vib)   ...       0.41 
freq.     166.74  E(vib)   ...       0.39 
freq.     190.13  E(vib)   ...       0.36 
freq.     223.10  E(vib)   ...       0.33 
freq.     232.69  E(vib)   ...       0.32 
freq.     282.26  E(vib)   ...       0.28 
freq.     294.55  E(vib)   ...       0.27 
freq.     323.82  E(vib)   ...       0.25 
freq.     343.18  E(vib)   ...       0.23 
freq.     358.17  E(vib)   ...       0.22 
freq.     370.85  E(vib)   ...       0.21 
freq.     388.76  E(vib)   ...       0.20 
freq.     394.54  E(vib)   ...       0.20 
freq.     405.43  E(vib)   ...       0.19 
freq.     433.52  E(vib)   ...       0.17 
freq.     449.79  E(vib)   ...       0.17 
freq.     475.20  E(vib)   ...       0.15 
freq.     485.74  E(vib)   ...       0.15 
freq.     514.21  E(vib)   ...       0.13 
freq.     540.21  E(vib)   ...       0.12 
freq.     557.77  E(vib)   ...       0.12 
freq.     626.23  E(vib)   ...       0.09 
freq.     633.90  E(vib)   ...       0.09 
freq.     650.73  E(vib)   ...       0.08 
freq.     658.84  E(vib)   ...       0.08 
freq.     672.63  E(vib)   ...       0.08 
freq.     683.32  E(vib)   ...       0.08 
freq.     698.44  E(vib)   ...       0.07 
freq.     698.84  E(vib)   ...       0.07 
freq.     707.50  E(vib)   ...       0.07 
freq.     745.17  E(vib)   ...       0.06 
freq.     778.77  E(vib)   ...       0.05 
freq.     807.37  E(vib)   ...       0.05 
freq.     929.73  E(vib)   ...       0.03 
freq.     989.09  E(vib)   ...       0.02 
freq.    1050.27  E(vib)   ...       0.02 
freq.    1074.75  E(vib)   ...       0.02 
freq.    1089.39  E(vib)   ...       0.02 
freq.    1096.81  E(vib)   ...       0.02 
freq.    1136.72  E(vib)   ...       0.01 
freq.    1149.82  E(vib)   ...       0.01 
freq.    1574.90  E(vib)   ...       0.00 
freq.    1631.94  E(vib)   ...       0.00 
freq.    1653.69  E(vib)   ...       0.00 
freq.    1688.58  E(vib)   ...       0.00 
freq.    1709.86  E(vib)   ...       0.00 
freq.    1744.10  E(vib)   ...       0.00 
freq.    1786.95  E(vib)   ...       0.00 
freq.    1822.03  E(vib)   ...       0.00 
freq.    1866.76  E(vib)   ...       0.00 
freq.    1878.12  E(vib)   ...       0.00 
freq.    1881.55  E(vib)   ...       0.00 
freq.    1882.43  E(vib)   ...       0.00 
freq.    1884.81  E(vib)   ...       0.00 
freq.    1888.35  E(vib)   ...       0.00 
freq.    1889.96  E(vib)   ...       0.00 
freq.    1894.70  E(vib)   ...       0.00 
freq.    1902.83  E(vib)   ...       0.00 
freq.    1941.01  E(vib)   ...       0.00 

------------
INNER ENERGY
------------

The inner energy is: U= E(el) + E(ZPE) + E(vib) + E(rot) + E(trans)
    E(el)   - is the total energy from the electronic structure calculation
              = E(kin-el) + E(nuc-el) + E(el-el) + E(nuc-nuc)
    E(ZPE)  - the the zero temperature vibrational energy from the frequency calculation
    E(vib)  - the the finite temperature correction to E(ZPE) due to population
              of excited vibrational states
    E(rot)  - is the rotational thermal energy
    E(trans)- is the translational thermal energy

Summary of contributions to the inner energy U:
Electronic energy                ...  -1464.54287116 Eh
Zero point energy                ...      0.13110614 Eh      82.27 kcal/mol
Thermal vibrational correction   ...      0.01481893 Eh       9.30 kcal/mol
Thermal rotational correction    ...      0.00141627 Eh       0.89 kcal/mol
Thermal translational correction ...      0.00141627 Eh       0.89 kcal/mol
-----------------------------------------------------------------------
Total thermal energy                  -1464.39411355 Eh


Summary of corrections to the electronic energy:
(perhaps to be used in another calculation)
Total thermal correction                  0.01765147 Eh      11.08 kcal/mol
Non-thermal (ZPE) correction              0.13110614 Eh      82.27 kcal/mol
-----------------------------------------------------------------------
Total correction                          0.14875761 Eh      93.35 kcal/mol


--------
ENTHALPY
--------

The enthalpy is H = U + kB*T
                kB is Boltzmann's constant
Total thermal energy              ...  -1464.39411355 Eh 
Thermal Enthalpy correction       ...      0.00094421 Eh       0.59 kcal/mol
-----------------------------------------------------------------------
Total Enthalpy                    ...  -1464.39316934 Eh


Note: Only C1 symmetry has been detected, increase convergence thresholds 
      if your molecule has a higher symmetry. Symmetry factor of 1.0 is   
      used for the rotational entropy correction. 
 

Note: Rotational entropy computed according to Herzberg 
Infrared and Raman Spectra, Chapter V,1, Van Nostrand Reinhold, 1945 
Point Group:  C1, Symmetry Number:   1  
Rotational constants in cm-1:     0.032703     0.014343     0.012292 

Vibrational entropy computed according to the QRRHO of S. Grimme
Chem.Eur.J. 2012 18 9955 using a reference frequency of 100.0 cm-1


-------
ENTROPY
-------

The entropy contributions are T*S = T*(S(el)+S(vib)+S(rot)+S(trans))
     S(el)   - electronic entropy
     S(vib)  - vibrational entropy
     S(rot)  - rotational entropy
     S(trans)- translational entropy
The entropies will be listed as multiplied by the temperature to get
units of energy

Electronic entropy                ...      0.00000000 Eh      0.00 kcal/mol
Vibrational entropy               ...      0.02584514 Eh     16.22 kcal/mol
Rotational entropy                ...      0.01520592 Eh      9.54 kcal/mol
Translational entropy             ...      0.01970399 Eh     12.36 kcal/mol
-----------------------------------------------------------------------
Final entropy term                ...      0.06075505 Eh     38.12 kcal/mol

In case the symmetry of your molecule has not been determined correctly
or in case you have a reason to use a different symmetry number we print 
out the resulting rotational entropy values for sn=1,12:

 non-linear molecules -----------------------------------
|  sn= 1 | S(rot)=       0.01520592 Eh      9.54 kcal/mol|
|  sn= 2 | S(rot)=       0.01455146 Eh      9.13 kcal/mol|
|  sn= 3 | S(rot)=       0.01416863 Eh      8.89 kcal/mol|
|  sn= 4 | S(rot)=       0.01389701 Eh      8.72 kcal/mol|
|  sn= 5 | S(rot)=       0.01368632 Eh      8.59 kcal/mol|
|  sn= 6 | S(rot)=       0.01351417 Eh      8.48 kcal/mol|
|  sn= 7 | S(rot)=       0.01336863 Eh      8.39 kcal/mol|
|  sn= 8 | S(rot)=       0.01324255 Eh      8.31 kcal/mol|
|  sn= 9 | S(rot)=       0.01313134 Eh      8.24 kcal/mol|
|  sn=10 | S(rot)=       0.01303186 Eh      8.18 kcal/mol|
|  sn=11 | S(rot)=       0.01294187 Eh      8.12 kcal/mol|
|  sn=12 | S(rot)=       0.01285972 Eh      8.07 kcal/mol|
 linear molecules ---------------------------------------
|  Dinfh | S(rot)=       0.00947908 Eh      5.95 kcal/mol|
|  Cinfv | S(rot)=       0.01013354 Eh      6.36 kcal/mol|
 --------------------------------------------------------


-------------------
GIBBS FREE ENERGY
-------------------

The Gibbs free energy is G = H - T*S

Total enthalpy                    ...  -1464.39316934 Eh 
Total entropy correction          ...     -0.06075505 Eh    -38.12 kcal/mol
-----------------------------------------------------------------------
Final Gibbs free energy         ...  -1464.45392439 Eh

For completeness - the Gibbs free energy minus the electronic energy
G-E(el)                           ...      0.08894677 Eh     55.81 kcal/mol


Maximum memory used throughout the entire PROP-calculation: 49.7 MB

--------------------------------
SUGGESTED CITATIONS FOR THIS RUN
--------------------------------

Below you find a list of papers that are relevant to this ORCA run
We neither can nor want to force you to cite these papers, but we appreciate if you do
You receive ORCA, which is the product of decades of hard work by many enthusiastic individuals, for free
The only thing we kindly ask in return is that you cite our papers,
We deeply appreciate it, if you show your appreciation for ORCA by not just citing the generic ORCA reference.

Please note that relegating all ORCA citations to the supporting information does *not* help us.
SI sections are not indexed - citations you put there will not count into any citation statistics
But we need these citations in order to attract the funding resources that allow us to do what we are doing

Therefore, if you are a happy ORCA user, please consider citing a few of the papers listed below in the main body of your paper

In addition to the list printed below, the program has created the file run.bibtex that contains the list in bibtex format
You can import this file easily into all common literature databanks and citation aid programs


List of essential papers. We consider these as the minimum necessary citations

  1. Neese, F.
     Software update: the ORCA program system, version 6.0
     WIRES Comput. Molec. Sci. 2025 15(1), e70019
     doi.org/10.1002/wcms.7019

List of papers to cite with high priority. The work reported in these papers was absolutely
necessary for this run to complete.
Our perspective: the developers of density functionals and basis sets usually get cited in chemistry papers
Good! But without the algorithms to do something with them, the functionals or basis sets would not do anything.
Hence, in our opinion, the algorithm design and method developments papers are equally worthy of getting cited

  1. Neese, F.
     An improvement of the resolution of the identity approximation for the formation of the Coulomb matrix
     J. Comp. Chem. 2003 24(14), 1740-1747
     doi.org/10.1002/jcc.10318
  2. Grimme, S.; Antony, J.; Ehrlich, S.; Krieg, H.
     A consistent and accurate ab initio parametrization of density functional dispersion correction (DFT-D) for the 94 elements H-Pu
     J. Chem. Phys. 2010 132 , 154104
     doi.org/10.1063/1.3382344
  3. Grimme, S.; Ehrlich, S.; Goerigk, L.
     Effect of the damping function in dispersion corrected density functional theory
     J. Comput. Chem. 2011 32(7), 1456-1465
     doi.org/10.1002/jcc.21759
  4. Bykov, D.; Petrenko, T.; Izsak, R.; Kossmann, S.; Becker, U.; Valeev, E.; Neese, F.
     Efficient implementation of the analytic second derivatives of Hartree-Fock and hybrid DFT energies: a detailed analysis of different approximations
     Molec. Phys. 2015 113 , 1961-1977
     doi.org/10.1080/00268976.2015.1025114
  5. Garcia-Rates, M.; Neese, F.
     Efficient implementation of the analytical second derivatives of hartree-fock and hybrid DFT energies within the framework of the conductor-like polarizable continuum model
     J. Comput. Chem. 2019 40 , 1816-1828
     doi.org/10.1002/jcc.25833
  6. Garcia-Rates, M.; Neese, F.
     Effect of the Solute Cavity on the Solvation Energy and its Derivatives within the Framework of the Gaussian Charge Scheme
     J. Comput. Chem. 2020 41 , 922-939
     doi.org/10.1002/jcc.26139
  7. Neese, F.
     The SHARK Integral Generation and Digestion System
     J. Comp. Chem. 2022 44(3), 381
     doi.org/10.1002/jcc.26942

List of suggested additional citations. These are papers that are important in the 'surrounding' of 
of this run, or papers that preceded the highly important papers. If you like your results we are grateful for a citation.

  1. Neese, F.
     The ORCA program system
     WIRES Comput. Molec. Sci. 2012 2(1), 73-78
     doi.org/10.1002/wcms.81
  2. Neese, F.
     Software update: the ORCA program system, version 4.0
     WIRES Comput. Molec. Sci. 2018 8(1), 1-6
     doi.org/10.1002/wcms.1327
  3. Neese, F.; Wennmohs, F.; Becker, U.; Riplinger, C.
     The ORCA quantum chemistry program package
     J. Chem. Phys. 2020 152(22), 224108
     doi.org/10.1063/5.0004608
  4. Neese, F.
     Software update: The ORCA program system—Version 5.0
     WIRES Comput. Molec. Sci. 2022 12(1), e1606
     doi.org/10.1002/wcms.1606

List of optional additional citations

  1. Neese, F.
     Approximate second-order SCF convergence for spin unrestricted wavefunctions
     Chem. Phys. Lett. 2000 325(1-3), 93-98
     doi.org/10.1016/s0009-2614(00)00662-x

Timings for individual modules:

Sum of individual times          ...      649.051 sec (=  10.818 min)
Startup calculation              ...      105.375 sec (=   1.756 min)  16.2 %
SCF iterations                   ...      141.487 sec (=   2.358 min)  21.8 %
Property integrals               ...      142.186 sec (=   2.370 min)  21.9 %
SCF Response                     ...       96.999 sec (=   1.617 min)  14.9 %
Property calculations            ...       62.567 sec (=   1.043 min)   9.6 %
SCF Gradient evaluation          ...       99.613 sec (=   1.660 min)  15.3 %
Geometry relaxation              ...        0.824 sec (=   0.014 min)   0.1 %
                             ****ORCA TERMINATED NORMALLY****
TOTAL RUN TIME: 0 days 0 hours 11 minutes 1 seconds 707 msec
