
                                 *****************
                                 * O   R   C   A *
                                 *****************

                                            #,                                       
                                            ###                                      
                                            ####                                     
                                            #####                                    
                                            ######                                   
                                           ########,                                 
                                     ,,################,,,,,                         
                               ,,#################################,,                 
                          ,,##########################################,,             
                       ,#########################################, ''#####,          
                    ,#############################################,,   '####,        
                  ,##################################################,,,,####,       
                ,###########''''           ''''###############################       
              ,#####''   ,,,,##########,,,,          '''####'''          '####       
            ,##' ,,,,###########################,,,                        '##       
           ' ,,###''''                  '''############,,,                           
         ,,##''                                '''############,,,,        ,,,,,,###''
      ,#''                                            '''#######################'''  
     '                                                          ''''####''''         
             ,#######,   #######,   ,#######,      ##                                
            ,#'     '#,  ##    ##  ,#'     '#,    #''#        ,####,    ,#,          
            ##       ##  ##   ,#'  ##            #'  '#       #'       ,# #          
            ##       ##  #######   ##           ,######,      #####,      #          
            '#,     ,#'  ##    ##  '#,     ,#' ,#      #,     #,   #      #          
             '#######'   ##     ##  '#######'  #'      '#     '####' #    #          



                #########################################################
                #                        -***-                          #
                #          Department of theory and spectroscopy        #
                #                                                       #
                #                      Frank Neese                      #
                #                                                       #
                #     Directorship, Architecture, Infrastructure        #
                #                    SHARK, DRIVERS                     #
                #        Core code/Algorithms in most modules           #
                #                                                       #
                #        Max Planck Institute fuer Kohlenforschung      #
                #                Kaiser Wilhelm Platz 1                 #
                #                 D-45470 Muelheim/Ruhr                 #
                #                      Germany                          #
                #                                                       #
                #                  All rights reserved                  #
                #                        -***-                          #
                #########################################################


                         Program Version 6.1.0  -  RELEASE   -
                                (GIT: $679e74b$)
                          ($2025-06-10 18:02:51 +0200$)


 With contributions from (in alphabetic order):
[Max-Planck-Institut fuer Kohlenforschung]                               
  Daniel Aravena         : Magnetic Suceptibility                        
  Michael Atanasov       : Ab Initio Ligand Field Theory (pilot matlab implementation)
  Alexander A. Auer      : GIAO ZORA, VPT2 properties, NMR spectrum      
  Ute Becker             : All parallelization in ORCA, NUMFREQ, NUMCALC 
  Giovanni Bistoni       : ED, misc. LED, open-shell LED, HFLD           
  Dmytro Bykov           : pre 5.0 version of the SCF Hessian            
  Marcos Casanova-Páez   : Triplet and SCS-CIS(D). UHF-(DLPNO)-IP/EA/STEOM-CCSD. UHF-CVS-IP/STEOM-CCSD   
  Vijay G. Chilkuri      : MRCI spin determinant printing, contributions to CSF-ICE 
  Pauline Colinet        : FMM embedding                                 
  Dipayan Datta          : RHF DLPNO-CCSD density                        
  Achintya Kumar Dutta   : EOM-CC, STEOM-CC                              
  Nicolas Foglia         : Exact transition moments, OPA infrastructure, MCD improvements    
  Dmitry Ganyushin       : Spin-Orbit,Spin-Spin,Magnetic field MRCI      
  Miquel Garcia-Rates    : C-PCM and meta-GGA Hessian, CCSD/C-PCM, Gaussian charge scheme 
  Tiago L. C. Gouveia    : GS-ROHF, GS-ROCIS                             
  Yang Guo               : DLPNO-NEVPT2, F12-NEVPT2, CIM, IAO-localization        
  Andreas Hansen         : Spin unrestricted coupled pair/coupled cluster methods 
  Ingolf Harden          : AUTO-CI MPn and infrastructure                
  Benjamin Helmich-Paris : MC-RPA, TRAH-(SCF,CASSCF), AVAS, COSX integrals, SCF dyn. polar., MC-PDFT, srDFT 
  Lee Huntington         : MR-EOM, pCC                                   
  Robert Izsak           : Overlap fitted RIJCOSX, COSX-SCS-MP3, EOM     
  Riya Kayal             : Wick's Theorem for AUTO-CI, AUTO-CI UHF-CCSDT 
  Emily Kempfer          : AUTO-CI RHF CISDT and CCSDT, approximate NEVPT4
  Christian Kollmar      : KDIIS, OOCD, Brueckner-CCSD(T), CCSD density, CASPT2, CASPT2-K, improved NEVPT2 
  Axel Koslowski         : Symmetry handling                             
  Simone Kossmann        : meta-GGA functionals, TD-DFT gradient, OOMP2, (MP2 Hessian; deprecated post 5.0) 
  Lucas Lang             : DCDCAS, Hyperfine gauge corrections, ICE-SOC+SSC
  Marvin Lechner         : AUTO-CI (C++ implementation), FIC-MRCC        
  Spencer Leger          : CASSCF response                               
  Dagmar Lenk            : GEPOL surface, SMD, ORCA-2-JSON               
  Dimitrios Liakos       : Extrapolation schemes; Compound Job, Property file
  Dimitrios Manganas     : Further ROCIS development; embedding schemes. LFT, Crystal Embedding 
  Dimitrios Pantazis     : SARC Basis sets                               
  Anastasios Papadopoulos: AUTO-CI, single reference methods and gradients 
  Taras Petrenko         : pre 6.0 DFT Hessian and TD-DFT gradient,  ECA, NRVS 
  Petra Pikulova         : Analytic Raman intensities                    
  Peter Pinski           : DLPNO-MP2, DLPNO-MP2 Gradient                 
  Shashank Vittal Rao    : ES-AILFT, MagRelax                            
  Christoph Reimann      : Effective Core Potentials                     
  Marius Retegan         : Local ZFS, SOC                                
  Christoph Riplinger    : Optimizer, TS searches, QM/MM, DLPNO-CCSD(T), (RO)-DLPNO pert. Triples 
  Michael Roemelt        : Original ROCIS implementation, recursive CI coupling coefficients
  Masaaki Saitow         : Open-shell DLPNO-CCSD energy and density      
  Barbara Sandhoefer     : DKH picture change effects                    
  Yorick L. A. Schmerwitz: GMF and freeze-and-release deltaSCF, NEB S-IDPP initial path                    
  Kantharuban Sivalingam : CASSCF convergence/infrastructure, NEVPT2, NEVPT3, NEVPT4(SD), FIC-MRCI and CEPA variants
  Bernardo de Souza      : ESD, SOC TD-DFT                               
  Georgi L. Stoychev     : AutoAux, RI-MP2 NMR, DLPNO-MP2 response, X2C  
  Van Anh Tran           : RI-MP2 g-tensors                              
  Willem Van den Heuvel  : Paramagnetic NMR                              
  Zikuan Wang            : NOTCH, Electric field optimization            
  Frank Wennmohs         : Technical directorship and infrastructure     
  Hang Xu                : AUTO-CI-Response properties                   
                                                                         
[FACCTs GmbH]                                                            
  Markus Bursch, Nicolas Foglia, Miquel Garcia-Rates, Ingolf Harden, Hagen Neugebauer, Anastasios Papadopoulos, 
  Christoph Riplinger, Bernardo de Souza, Georgi L. Stoychev                                                    
                                                                 
  APM, various basis sets, CI-OPT, improved COSX, DLPNO-Multilevel,           
  DOCKER, DRACO, updates on ESD, Fragmentator, GOAT, IRC, LR-CPCM, L-BFGS, MBIS, meta-GGA TD-DFT gradient, ML-optimized integration grids, 
  MM, NACMEs, nearIR, NEB, NEB-TS, NL-DFT gradient (VV10), 2- and 3-layer-ONIOM, interface openCOSMO-RS, QMMM,   
  Crystal-QMMM, RESP, rigid body optimization, SF, symmetry and pop. for TD-DFT, various functionals, SOLVATOR                                   
                                                                         
[Other institutions]                                                     
  V. Asgeirsson          : NEB                                           
  Christoph Bannwarth    : sTDA-DFT, sTD-DFT, PBEh-3c, B97-3c, D3        
  Giovanni Bistoni       : ETS/NOCV, ADLD/ADEX, COVALED                  
  Martin Brehm           : Molecular dynamics                            
  Ronald Cardenas        : ETS/NOCV                                      
  Martina Colucci        : COVALED                                       
  Sebastian Ehlert       : rSCAN, r2SCAN, r2SCAN-3c, D4, dhf basis sets  
  Marvin Friede          : D4 for Fr, Ra, Ac-Lr                          
  Lars Goerigk           : TD-DFT with DH, B97 family of functionals     
  Stefan Grimme          : VdW corrections, initial TS optimization, DFT functionals, gCP, sTDA/sTD-DF 
  Waldemar Hujo          : DFT-NL                                        
  H. Jonsson             : NEB                                           
  Holger Kruse           : gCP                                           
  Marcel Mueller         : wB97X-3c, vDZP basis set                      
  Hagen Neugebauer       : wr2SCAN, Native XTB                           
  Gianluca Regni         : ADLD/ADEX                                     
  Tobias Risthaus        : pre 6.0 range-separated hybrid DFT and stability analysis
  Lukas Wittmann         : regularized MP2, r2SCAN double-hybrids, wr2SCAN        
                                                                         
We gratefully acknowledge several colleagues who have allowed us to      
interface, adapt or use parts of their codes:                            
  Ed Valeev, F. Pavosevic, A. Kumar             : LibInt (2-el integral package), F12 methods 
  Garnet Chan, S. Sharma, J. Yang, R. Olivares  : DMRG                   
  Ulf Ekstrom                                   : XCFun DFT Library      
  Mihaly Kallay                                 : mrcc  (arbitrary order and MRCC methods)
  Frank Weinhold                                : gennbo (NPA and NBO analysis)           
  Simon Mueller                                 : openCOSMO-RS                            
  Christopher J. Cramer and Donald G. Truhlar   : smd solvation model                     
  S Lehtola, MJT Oliveira, MAL Marques          : LibXC Library                           
  Liviu Ungur et al                             : ANISO software                          


 Your calculation uses the libint2 library for the computation of 2-el integrals
 For citations please refer to: http://libint.valeyev.net

 Your ORCA version has been built with support for libXC version: 7.0.0
 For citations please refer to: https://libxc.gitlab.io

 This ORCA versions uses:
   CBLAS   interface :  Fast vector & matrix operations
   LAPACKE interface :  Fast linear algebra routines
   SCALAPACK package :  Parallel linear algebra routines
   Shared memory     :  Shared parallel matrices
   BLAS/LAPACK       :  OpenBLAS 0.3.29  USE64BITINT DYNAMIC_ARCH NO_AFFINITY Prescott SINGLE_THREADED
        Core in use  :  Prescott
   Copyright (c) 2011-2014, The OpenBLAS Project


  ***********************************
  * Starting time: Fri Aug  8 17:06:10 2025
  * Host name:     cuda4
  * Process ID:    108253
  * Working dir.:  /local/scratch/mehlhorn/61797
  ***********************************



***************************************
The coordinates will be read from file: start.xyz
***************************************


Your calculation utilizes the geometrical counterpoise correction gCP
Please cite in your paper:
H.Kruse, S. Grimme J.Chem.Phys., 136, (2012), 154101 
   

Your calculation utilizes the atom-pairwise dispersion correction
with the Becke-Johnson damping scheme (D3BJ)


Warning: RI is on but no J-basis has been assigned. Assigning Def2/J (nothing to worry about!)
================================================================================

cite the ECPs for Zr [Def2-ECP] as follows:
Ce-Yb(ecp-28): M. Dolg, H. Stoll, H.Preuss, J. Chem. Phys., 1989, 90, 1730-1734.
Y-Cd(ecp-28), Hf-Hg(ecp-46): D. Andrae,U. Haeussermann, M. Dolg, H. Stoll, H. Preuss, Theor. Chim. Acta, 1990, 77, 123-141.
In-Sb(ecp-28), Tl-Bi(ecp-46): B. Metz, H. Stoll, M. Dolg, J. Chem. Phys., 2000, 113, 2563-2569.
Te-Xe(ecp-28), Po-Rn(ecp-46): K. A. Peterson, D. Figgen, E. Goll, H. Stoll, M. Dolg, J. Chem. Phys., 2003, 119, 11113-11123.
Rb(ecp-28), Cs(ecp-46): T. Leininger, A. Nicklass, W. Kuechle, H. Stoll, M. Dolg, A. Bergner, Chem. Phys. Lett., 1996, 255, 274-280.
Sr(ecp-28), Ba(ecp-46): M. Kaupp, P. V. Schleyer, H. Stoll and H. Preuss, J. Chem. Phys., 1991, 94, 1360-1366.
La(ecp-46): M. Dolg, H. Stoll, A. Savin, H. Preuss, Theor. Chim. Acta, 1989, 75, 173-194.
Lu(ecp-28): X. Cao, M. Dolg, J. Chem. Phys., 2001, 115, 7348-7355.

ECP parameters for Zr [Def2-ECP] have been obtained from:
TURBOMOLE (7.0.2)

----- Orbital basis set information -----
Your calculation utilizes the basis: def2-SV(P)
   F. Weigend and R. Ahlrichs, Phys. Chem. Chem. Phys. 7, 3297 (2005).

----- AuxJ basis set information -----
Your calculation utilizes the auxiliary basis: def2/J
   H-Rn: F. Weigend, Phys. Chem. Chem. Phys. 8, 1057 (2006).
   Fr-Lr: K. Eichkorn, F. Weigend, O. Treutler, R. Ahlrichs; Theor. Chem. Acc. 97, 119 (1997).

================================================================================
                                        WARNINGS
                       Please study these warnings very carefully!
================================================================================


WARNING: Gradients are needed
  ===> : At least TightSCF should be used for SCF convergence

WARNING: Geometry Optimization
  ===> : Switching off AutoStart
         For restart on a previous wavefunction, please use MOREAD

================================================================================
                                       INPUT FILE
================================================================================
NAME = run.inp
|  1> # Geometry optimization for (AlH3)n cluster
|  2> 
|  3> %pal nprocs 24  end
|  4> 
|  5> %geom MaxIter 500 end
|  6> 
|  7> 
|  8> ! PBE def2-SV(P)
|  9> ! RKS	# closed shell for AlH3
| 10> ! D3    #  dispersion correction
| 11> ! gCP(DFT/SV(P))
| 12> ! Freq 	# Frequency analysis to check the stabiltity of the structures
| 13> 
| 14> ! NoPop # population analysis not necessary	
| 15> 
| 16> ! DEFGRID2
| 17> ! NormalSCF
| 18> ! SloppyOpt
| 19> 
| 20> ! SmallPrint
| 21> 
| 22> 
| 23> * xyzFile 0 1 start.xyz # only maingroup elements H and Al so there should be no net spin
| 24> 
| 25>                          ****END OF INPUT****
================================================================================

                       *****************************
                       * Geometry Optimization Run *
                       *****************************

Geometry optimization settings:
Update method            Update   .... BFGS
Choice of coordinates    CoordSys .... (2022) Redundant Internals
Initial Hessian          InHess   .... Almloef's Model
Max. no of cycles        MaxIter  .... 500

Convergence Tolerances:
Energy Change            TolE     ....  8.0000e-05 Eh
Max. Gradient            TolMAXG  ....  5.0000e-03 Eh/bohr
RMS Gradient             TolRMSG  ....  1.0000e-03 Eh/bohr
Max. Displacement        TolMAXD  ....  3.0000e-02 bohr
RMS Displacement         TolRMSD  ....  2.0000e-02 bohr
Strict Convergence                .... False

------------------------------------------------------------------------------
                        ORCA OPTIMIZATION COORDINATE SETUP
------------------------------------------------------------------------------

The optimization will be done in redundant internal coordinates (2022)
Making redundant internal coordinates   ...  (2022 redundants) done
Evaluating the initial hessian          ...  (Almloef) done
Evaluating the coordinates              ...  done
Calculating the B-matrix                .... done
Calculating the G-matrix                .... done
The number of degrees of freedom        ....  825

    -----------------------------------------------------------------
                    Redundant Internal Coordinates


    -----------------------------------------------------------------
         Definition                    Initial Value    Approx d2E/dq
    -----------------------------------------------------------------
      1. B(Zr  2,Zr  1)                  3.4241         0.036373   
      2. B(Zr  3,Zr  0)                  3.4230         0.036517   
      3. B(Zr  4,Zr  1)                  3.4160         0.037460   
      4. B(Zr  4,Zr  3)                  3.4219         0.036665   
      5. B(Zr  5,Zr  2)                  3.4126         0.037933   
      6. B(Zr  5,Zr  0)                  3.4264         0.036066   
      7. B(O   6,Zr  0)                  2.0962         0.422988   
      8. B(O   6,Zr  3)                  2.1446         0.354069   
      9. B(O   6,Zr  5)                  2.1403         0.359702   
     10. B(O   7,Zr  1)                  2.0964         0.422685   
     11. B(O   7,Zr  2)                  2.1391         0.361337   
     12. B(O   7,Zr  4)                  2.1265         0.378448   
     13. B(O   8,Zr  5)                  2.1404         0.359611   
     14. B(O   8,Zr  1)                  2.1297         0.373946   
     15. B(O   8,Zr  2)                  2.0996         0.417642   
     16. B(O   9,Zr  4)                  2.1508         0.346039   
     17. B(O   9,Zr  3)                  2.1025         0.413275   
     18. B(O   9,Zr  0)                  2.1317         0.371313   
     19. B(O  10,Zr  4)                  2.0976         0.420778   
     20. B(O  10,Zr  3)                  2.1260         0.379077   
     21. B(O  10,Zr  1)                  2.1452         0.353238   
     22. B(O  11,Zr  5)                  2.0979         0.420276   
     23. B(O  11,Zr  2)                  2.1233         0.382822   
     24. B(O  11,Zr  0)                  2.1406         0.359267   
     25. B(O  12,Zr  0)                  1.9662         0.681976   
     26. B(O  13,Zr  0)                  1.9798         0.648640   
     27. B(O  14,Zr  0)                  2.0733         0.460061   
     28. B(O  15,Zr  0)                  2.0369         0.525947   
     29. B(O  16,Zr  1)                  2.0381         0.523598   
     30. B(O  17,Zr  1)                  2.0729         0.460803   
     31. B(O  18,Zr  1)                  1.9777         0.653652   
     32. B(O  19,Zr  1)                  1.9679         0.677752   
     33. B(O  20,Zr  2)                  1.9788         0.651102   
     34. B(O  21,Zr  2)                  2.0354         0.528762   
     35. B(O  22,Zr  2)                  1.9691         0.674576   
     36. B(O  23,Zr  2)                  2.0712         0.463594   
     37. B(O  24,Zr  3)                  2.0703         0.465145   
     38. B(O  25,Zr  3)                  1.9670         0.679946   
     39. B(O  26,Zr  3)                  2.0401         0.519723   
     40. B(O  27,Zr  3)                  1.9785         0.651702   
     41. B(O  28,Zr  4)                  1.9704         0.671551   
     42. B(O  29,Zr  4)                  2.0622         0.479247   
     43. B(O  30,Zr  4)                  1.9759         0.657916   
     44. B(O  31,Zr  4)                  2.0461         0.508387   
     45. B(O  32,Zr  5)                  2.0355         0.528562   
     46. B(O  33,Zr  5)                  1.9753         0.659508   
     47. B(O  34,Zr  5)                  2.0777         0.452714   
     48. B(O  35,Zr  5)                  1.9731         0.664802   
     49. B(C  36,O  33)                  1.2979         0.784851   
     50. B(C  36,O  12)                  1.2983         0.783855   
     51. B(C  37,O  13)                  1.2984         0.783348   
     52. B(C  37,O  25)                  1.2980         0.784526   
     53. B(C  38,O  14)                  1.2985         0.783309   
     54. B(C  38,O  21)                  1.2966         0.788774   
     55. B(C  39,O  29)                  1.2986         0.782961   
     56. B(C  39,O  15)                  1.2964         0.789272   
     57. B(C  40,O  34)                  1.2992         0.781233   
     58. B(C  40,O  16)                  1.2970         0.787426   
     59. B(C  41,O  26)                  1.2969         0.787859   
     60. B(C  41,O  17)                  1.2991         0.781441   
     61. B(C  42,O  22)                  1.2981         0.784384   
     62. B(C  42,O  18)                  1.2982         0.783964   
     63. B(C  43,O  19)                  1.2981         0.784324   
     64. B(C  43,O  30)                  1.2982         0.784081   
     65. B(C  44,O  35)                  1.2980         0.784700   
     66. B(C  44,O  20)                  1.2982         0.783953   
     67. B(C  45,O  31)                  1.2975         0.786078   
     68. B(C  45,O  23)                  1.2998         0.779567   
     69. B(C  46,O  32)                  1.2971         0.787164   
     70. B(C  46,O  24)                  1.2993         0.780795   
     71. B(C  47,O  28)                  1.2980         0.784535   
     72. B(C  47,O  27)                  1.2982         0.784059   
     73. B(H  48,C  41)                  1.0866         0.364611   
     74. B(H  49,C  42)                  1.0898         0.360339   
     75. B(H  50,C  38)                  1.0862         0.365120   
     76. B(H  51,C  37)                  1.0899         0.360241   
     77. B(H  52,C  43)                  1.0899         0.360240   
     78. B(H  53,C  47)                  1.0898         0.360317   
     79. B(H  54,C  39)                  1.0866         0.364639   
     80. B(H  55,C  45)                  1.0869         0.364160   
     81. B(H  56,C  40)                  1.0868         0.364422   
     82. B(H  57,C  46)                  1.0868         0.364337   
     83. B(H  58,C  36)                  1.0898         0.360349   
     84. B(H  59,C  44)                  1.0898         0.360351   
     85. B(Al 61,Al 60)                  2.6152         0.340598   
     86. B(H  62,H  58)                  2.8379         0.010000   
     87. B(H  62,C  36)                  3.1465         0.010000   
     88. B(H  62,Al 61)                  1.6749         0.294326   
     89. B(H  62,Al 60)                  1.6759         0.293201   
     90. B(H  63,Al 61)                  1.6041         0.381757   
     91. B(H  64,C  46)                  3.0059         0.010000   
     92. B(H  64,O  32)                  2.8504         0.010000   
     93. B(H  64,H  57)                  2.6957         0.010000   
     94. B(H  64,Al 61)                  1.6764         0.292694   
     95. B(H  64,Al 60)                  1.6743         0.294928   
     96. B(H  65,H  58)                  3.2410         0.010000   
     97. B(H  65,H  51)                  3.1050         0.010000   
     98. B(H  65,O  25)                  3.0722         0.010000   
     99. B(H  65,O  33)                  2.9322         0.010000   
    100. B(H  65,C  46)                  2.9062         0.010000   
    101. B(H  65,O  12)                  2.7278         0.010000   
    102. B(H  65,C  36)                  2.7172         0.010000   
    103. B(H  65,C  37)                  2.6848         0.010000   
    104. B(H  65,O  13)                  2.6479         0.010000   
    105. B(H  65,O   6)                  2.6411         0.010000   
    106. B(H  65,O  32)                  2.6007         0.010000   
    107. B(H  65,Al 60)                  1.6015         0.385404   
    108. B(H  66,Al 60)                  1.6041         0.381772   
    109. B(H  67,C  36)                  3.2483         0.010000   
    110. B(H  67,O  32)                  2.5865         0.010000   
    111. B(H  67,O  33)                  2.5013         0.010000   
    112. B(H  67,Al 61)                  1.6048         0.380828   
    113. A(Zr  5,Zr  0,O  14)          102.8511         0.339059   
    114. A(Zr  3,Zr  0,O   9)           35.7720         0.327891   
    115. A(Zr  5,Zr  0,O   9)           91.0630         0.327219   
    116. A(O  13,Zr  0,O  15)           81.8070         0.531792   
    117. A(O  11,Zr  0,O  14)           70.5807         0.464810   
    118. A(O   6,Zr  0,O  14)          137.6282         0.478958   
    119. A(Zr  3,Zr  0,O  14)          147.0195         0.339764   
    120. A(O   6,Zr  0,O   9)           67.6834         0.460494   
    121. A(Zr  3,Zr  0,O  15)           99.9063         0.347477   
    122. A(Zr  3,Zr  0,O  12)          124.8246         0.363131   
    123. A(O  12,Zr  0,O  13)           83.5240         0.558609   
    124. A(O  12,Zr  0,O  14)           81.0570         0.523480   
    125. A(Zr  5,Zr  0,O  11)           35.6440         0.325447   
    126. A(Zr  5,Zr  0,O   6)           36.4596         0.334349   
    127. A(O   9,Zr  0,O  11)           91.6364         0.447015   
    128. A(O  13,Zr  0,O  14)          136.2736         0.518579   
    129. A(Zr  3,Zr  0,O  13)           72.4850         0.360039   
    130. A(O   6,Zr  0,O  15)          136.5527         0.490952   
    131. A(O  12,Zr  0,O  15)          125.3079         0.536843   
    132. A(O  11,Zr  0,O  13)          147.5802         0.495195   
    133. A(O   9,Zr  0,O  13)           89.8374         0.498239   
    134. A(O  11,Zr  0,O  12)           84.3498         0.499829   
    135. A(Zr  5,Zr  0,O  13)          111.9582         0.359277   
    136. A(O  14,Zr  0,O  15)           74.5608         0.498669   
    137. A(Zr  5,Zr  0,O  12)           74.5150         0.362361   
    138. A(O   6,Zr  0,O  13)           83.7053         0.510488   
    139. A(O  11,Zr  0,O  15)          129.1087         0.476368   
    140. A(O   9,Zr  0,O  12)          160.3615         0.502907   
    141. A(O   9,Zr  0,O  15)           71.5355         0.479271   
    142. A(O   6,Zr  0,O  12)           93.1603         0.515296   
    143. A(O   9,Zr  0,O  14)          115.7383         0.467626   
    144. A(Zr  3,Zr  0,O   6)           36.6620         0.335041   
    145. A(O   6,Zr  0,O  11)           67.0785         0.457731   
    146. A(Zr  3,Zr  0,Zr  5)           70.1681         0.246773   
    147. A(Zr  5,Zr  0,O  15)          158.2050         0.346750   
    148. A(Zr  3,Zr  0,O  11)           90.3535         0.326114   
    149. A(Zr  4,Zr  1,O  18)          108.6220         0.362083   
    150. A(O   8,Zr  1,O  10)           92.4295         0.446218   
    151. A(Zr  2,Zr  1,O  19)          127.6933         0.362502   
    152. A(O  16,Zr  1,O  18)           82.6706         0.532115   
    153. A(Zr  2,Zr  1,O  10)           90.7724         0.324997   
    154. A(O   7,Zr  1,O   8)           67.2703         0.461028   
    155. A(O  17,Zr  1,O  19)           81.1819         0.523028   
    156. A(Zr  2,Zr  1,O  16)           98.5937         0.346985   
    157. A(O   7,Zr  1,O  19)           95.7828         0.514628   
    158. A(O   7,Zr  1,O  10)           66.9050         0.456262   
    159. A(Zr  4,Zr  1,O  17)          104.2971         0.341307   
    160. A(O  16,Zr  1,O  17)           74.6295         0.498403   
    161. A(O  10,Zr  1,O  18)          144.3629         0.494348   
    162. A(Zr  4,Zr  1,O  19)           74.8126         0.364330   
    163. A(Zr  2,Zr  1,Zr  4)           70.2787         0.247991   
    164. A(O  16,Zr  1,O  19)          123.9962         0.535761   
    165. A(Zr  4,Zr  1,O  16)          159.9079         0.348710   
    166. A(O  10,Zr  1,O  17)           70.8739         0.463510   
    167. A(O   7,Zr  1,O  17)          137.6900         0.479037   
    168. A(O   8,Zr  1,O  19)          162.8798         0.502987   
    169. A(Zr  2,Zr  1,O  17)          144.3649         0.339632   
    170. A(O  17,Zr  1,O  18)          138.1387         0.519485   
    171. A(Zr  2,Zr  1,O  18)           72.8349         0.360270   
    172. A(O   8,Zr  1,O  18)           91.7635         0.499609   
    173. A(Zr  4,Zr  1,O  10)           35.9061         0.326575   
    174. A(O   7,Zr  1,O  18)           82.3276         0.511154   
    175. A(Zr  2,Zr  1,O   7)           36.4799         0.334781   
    176. A(Zr  2,Zr  1,O   8)           35.6498         0.328059   
    177. A(O   8,Zr  1,O  17)          112.6929         0.468370   
    178. A(O  10,Zr  1,O  19)           82.5103         0.497684   
    179. A(O   8,Zr  1,O  16)           71.1565         0.479500   
    180. A(O  10,Zr  1,O  16)          131.8847         0.474497   
    181. A(Zr  4,Zr  1,O   7)           36.3051         0.336425   
    182. A(O  18,Zr  1,O  19)           83.1979         0.558767   
    183. A(Zr  4,Zr  1,O   8)           91.4873         0.329658   
    184. A(O   7,Zr  1,O  16)          135.0735         0.490480   
    185. A(O   7,Zr  2,O  21)          132.5701         0.477342   
    186. A(O   7,Zr  2,O   8)           67.0416         0.457150   
    187. A(O  22,Zr  2,O  23)           81.2285         0.523159   
    188. A(Zr  5,Zr  2,O  23)          144.0461         0.342371   
    189. A(Zr  1,Zr  2,O  22)           74.8722         0.362211   
    190. A(Zr  5,Zr  2,O   8)           36.8109         0.336455   
    191. A(O  11,Zr  2,O  22)          162.7808         0.504749   
    192. A(Zr  1,Zr  2,O   7)           35.6390         0.326211   
    193. A(Zr  1,Zr  2,O  23)          104.4082         0.339975   
    194. A(O  11,Zr  2,O  21)           71.4787         0.482452   
    195. A(Zr  1,Zr  2,O   8)           36.2408         0.334115   
    196. A(O  11,Zr  2,O  20)           93.1715         0.501430   
    197. A(O   7,Zr  2,O  23)           71.0502         0.465951   
    198. A(O  20,Zr  2,O  22)           83.1767         0.557853   
    199. A(O  21,Zr  2,O  23)           75.0583         0.499875   
    200. A(Zr  1,Zr  2,O  11)           90.5106         0.329332   
    201. A(Zr  5,Zr  2,O  21)           98.0624         0.350028   
    202. A(Zr  1,Zr  2,O  21)          159.7182         0.347558   
    203. A(O   8,Zr  2,O  21)          134.8605         0.490281   
    204. A(O   8,Zr  2,O  23)          138.0116         0.478511   
    205. A(Zr  5,Zr  2,O  11)           35.8065         0.331627   
    206. A(O  20,Zr  2,O  21)           82.4223         0.532707   
    207. A(Zr  5,Zr  2,O  22)          127.9006         0.364820   
    208. A(O   7,Zr  2,O  22)           82.0428         0.499349   
    209. A(O   7,Zr  2,O  11)           91.3990         0.449967   
    210. A(O  11,Zr  2,O  23)          111.7729         0.470911   
    211. A(O  20,Zr  2,O  23)          138.1718         0.519693   
    212. A(Zr  1,Zr  2,Zr  5)           70.1640         0.248444   
    213. A(O   8,Zr  2,O  22)           95.3116         0.513022   
    214. A(O   8,Zr  2,O  11)           67.4871         0.461994   
    215. A(O   8,Zr  2,O  20)           81.8639         0.509637   
    216. A(O   7,Zr  2,O  20)          143.9374         0.496073   
    217. A(Zr  5,Zr  2,O  20)           73.0841         0.362618   
    218. A(Zr  1,Zr  2,O  20)          108.5207         0.360030   
    219. A(O  21,Zr  2,O  22)          124.3132         0.536279   
    220. A(Zr  5,Zr  2,O   7)           90.7295         0.328476   
    221. A(O   6,Zr  3,O  25)           82.2211         0.498200   
    222. A(O   9,Zr  3,O  10)           67.4994         0.460281   
    223. A(O   6,Zr  3,O  27)          144.3558         0.494290   
    224. A(O   6,Zr  3,O  24)           70.9091         0.464505   
    225. A(Zr  4,Zr  3,O   9)           36.9201         0.333975   
    226. A(Zr  0,Zr  3,O  10)           90.9946         0.329012   
    227. A(O  26,Zr  3,O  27)           82.4378         0.531071   
    228. A(O   6,Zr  3,O  26)          132.2589         0.474054   
    229. A(O   9,Zr  3,O  25)           95.2463         0.512774   
    230. A(O   9,Zr  3,O  27)           82.1262         0.508725   
    231. A(O  10,Zr  3,O  26)           71.1857         0.480048   
    232. A(O  24,Zr  3,O  26)           74.5763         0.498584   
    233. A(Zr  4,Zr  3,O  26)           98.0798         0.347018   
    234. A(O   6,Zr  3,O   9)           67.3328         0.454590   
    235. A(O  24,Zr  3,O  25)           81.8139         0.524268   
    236. A(O  10,Zr  3,O  25)          162.6012         0.504570   
    237. A(Zr  0,Zr  3,O   9)           36.3463         0.333751   
    238. A(Zr  4,Zr  3,O  24)          144.2999         0.340620   
    239. A(Zr  0,Zr  3,O  24)          104.4686         0.340389   
    240. A(O  24,Zr  3,O  27)          137.9061         0.520108   
    241. A(Zr  4,Zr  3,O  27)           72.8038         0.360578   
    242. A(Zr  0,Zr  3,O  27)          108.9212         0.360329   
    243. A(Zr  0,Zr  3,O   6)           35.7051         0.325333   
    244. A(O  10,Zr  3,O  27)           92.2562         0.500599   
    245. A(Zr  0,Zr  3,Zr  4)           70.4783         0.247363   
    246. A(Zr  4,Zr  3,O  10)           35.6091         0.329233   
    247. A(O  25,Zr  3,O  26)          124.2060         0.535337   
    248. A(Zr  0,Zr  3,O  25)           75.0577         0.362947   
    249. A(Zr  4,Zr  3,O   6)           91.4597         0.325550   
    250. A(O   9,Zr  3,O  26)          134.9975         0.487768   
    251. A(Zr  0,Zr  3,O  26)          159.5621         0.346781   
    252. A(O  25,Zr  3,O  27)           82.7626         0.558793   
    253. A(O  10,Zr  3,O  24)          112.2488         0.470351   
    254. A(O   9,Zr  3,O  24)          138.1377         0.477879   
    255. A(Zr  4,Zr  3,O  25)          127.5439         0.363198   
    256. A(O   6,Zr  3,O  10)           92.5503         0.447512   
    257. A(Zr  1,Zr  4,O  10)           36.8537         0.336171   
    258. A(O   9,Zr  4,O  10)           67.1298         0.454180   
    259. A(O   7,Zr  4,O  10)           67.2271         0.461656   
    260. A(Zr  3,Zr  4,O  10)           36.1668         0.334975   
    261. A(Zr  1,Zr  4,O  29)          143.6993         0.343559   
    262. A(Zr  3,Zr  4,O  29)          105.4554         0.342326   
    263. A(O  28,Zr  4,O  29)           81.4836         0.525990   
    264. A(O   9,Zr  4,O  30)          143.5038         0.493058   
    265. A(O  10,Zr  4,O  29)          138.3098         0.482115   
    266. A(O   9,Zr  4,O  28)           81.1913         0.494938   
    267. A(Zr  1,Zr  4,O  28)          128.7183         0.363758   
    268. A(O  29,Zr  4,O  30)          137.7968         0.523966   
    269. A(O  30,Zr  4,O  31)           82.6882         0.529816   
    270. A(Zr  1,Zr  4,O  31)           97.2823         0.346982   
    271. A(Zr  3,Zr  4,O  31)          159.8100         0.345733   
    272. A(O   9,Zr  4,O  31)          132.9762         0.470153   
    273. A(O  28,Zr  4,O  31)          124.2793         0.531867   
    274. A(O   9,Zr  4,O  29)           71.4370         0.465094   
    275. A(O  10,Zr  4,O  31)          134.1359         0.487402   
    276. A(O  10,Zr  4,O  28)           96.3946         0.513309   
    277. A(O  29,Zr  4,O  31)           74.3776         0.499309   
    278. A(O   7,Zr  4,O  30)           93.2795         0.501329   
    279. A(Zr  1,Zr  4,O  30)           73.1487         0.362486   
    280. A(O   7,Zr  4,O  29)          111.1679         0.472793   
    281. A(O   7,Zr  4,O  28)          163.5868         0.503248   
    282. A(Zr  3,Zr  4,O  28)           74.9165         0.362428   
    283. A(O   7,Zr  4,O  31)           70.7007         0.477955   
    284. A(O   7,Zr  4,O   9)           92.7427         0.445521   
    285. A(Zr  3,Zr  4,O   9)           35.9587         0.324325   
    286. A(Zr  3,Zr  4,O   7)           91.1903         0.329142   
    287. A(Zr  1,Zr  4,O   9)           91.7820         0.325470   
    288. A(O  28,Zr  4,O  30)           83.0153         0.558481   
    289. A(Zr  1,Zr  4,O   7)           35.7117         0.330311   
    290. A(Zr  1,Zr  4,Zr  3)           70.6110         0.248279   
    291. A(O  10,Zr  4,O  30)           82.2906         0.511343   
    292. A(Zr  3,Zr  4,O  30)          107.9327         0.361162   
    293. A(O  34,Zr  5,O  35)           80.7113         0.519408   
    294. A(O  33,Zr  5,O  35)           82.4917         0.557665   
    295. A(O  32,Zr  5,O  35)          123.6229         0.534765   
    296. A(O   8,Zr  5,O  35)           81.3336         0.497553   
    297. A(O   6,Zr  5,O  35)          163.5114         0.497577   
    298. A(Zr  2,Zr  5,O  35)           74.9936         0.363911   
    299. A(Zr  0,Zr  5,O  35)          128.3384         0.360787   
    300. A(O  33,Zr  5,O  34)          137.7335         0.518630   
    301. A(O  32,Zr  5,O  34)           74.1675         0.497637   
    302. A(O  11,Zr  5,O  34)          137.8686         0.476975   
    303. A(Zr  0,Zr  5,O   6)           35.5919         0.325512   
    304. A(O   8,Zr  5,O  33)          143.4041         0.496814   
    305. A(O   8,Zr  5,O  32)          132.2819         0.476888   
    306. A(Zr  2,Zr  5,O   6)           91.8839         0.328230   
    307. A(Zr  0,Zr  5,Zr  2)           70.5859         0.248137   
    308. A(O  11,Zr  5,O  32)          134.9081         0.490818   
    309. A(Zr  0,Zr  5,O  33)           73.0732         0.360296   
    310. A(Zr  2,Zr  5,O  32)          160.0173         0.350005   
    311. A(O   6,Zr  5,O  32)           70.9339         0.476910   
    312. A(O   6,Zr  5,O  33)           92.3568         0.496838   
    313. A(Zr  2,Zr  5,O  33)          107.8378         0.363414   
    314. A(O  11,Zr  5,O  33)           82.4253         0.511460   
    315. A(Zr  2,Zr  5,O  34)          104.7587         0.341013   
    316. A(O  32,Zr  5,O  33)           83.6698         0.533959   
    317. A(O   8,Zr  5,O  34)           70.8590         0.463524   
    318. A(O   6,Zr  5,O  34)          112.8242         0.463546   
    319. A(O   8,Zr  5,O  11)           67.2048         0.457274   
    320. A(O   6,Zr  5,O  11)           67.0539         0.457296   
    321. A(Zr  2,Zr  5,O  11)           36.3087         0.336808   
    322. A(Zr  0,Zr  5,O  32)           98.4316         0.347040   
    323. A(Zr  0,Zr  5,O  11)           36.4846         0.333992   
    324. A(O  11,Zr  5,O  35)           96.6651         0.512226   
    325. A(Zr  0,Zr  5,O  34)          144.6289         0.338150   
    326. A(O   6,Zr  5,O   8)           93.9762         0.444527   
    327. A(Zr  2,Zr  5,O   8)           35.9993         0.328217   
    328. A(Zr  0,Zr  5,O   8)           91.9913         0.325499   
    329. A(Zr  3,O   6,Zr  5)          133.4950         0.443280   
    330. A(Zr  0,O   6,Zr  5)          107.9485         0.457832   
    331. A(Zr  0,O   6,Zr  3)          107.6329         0.456517   
    332. A(Zr  5,O   6,H  65)           95.9980         0.160108   
    333. A(Zr  3,O   6,H  65)          113.1281         0.159854   
    334. A(Zr  0,O   6,H  65)           89.6988         0.162765   
    335. A(Zr  2,O   7,Zr  4)          134.7264         0.449029   
    336. A(Zr  1,O   7,Zr  4)          107.9832         0.462037   
    337. A(Zr  1,O   7,Zr  2)          107.8811         0.458151   
    338. A(Zr  1,O   8,Zr  2)          108.1094         0.460019   
    339. A(Zr  2,O   8,Zr  5)          107.1898         0.456751   
    340. A(Zr  1,O   8,Zr  5)          133.9130         0.447666   
    341. A(Zr  3,O   9,Zr  4)          107.1211         0.452696   
    342. A(Zr  0,O   9,Zr  4)          134.5063         0.443988   
    343. A(Zr  0,O   9,Zr  3)          107.8817         0.458546   
    344. A(Zr  3,O  10,Zr  4)          108.2241         0.461796   
    345. A(Zr  1,O  10,Zr  4)          107.2402         0.455886   
    346. A(Zr  1,O  10,Zr  3)          135.4047         0.447321   
    347. A(Zr  2,O  11,Zr  5)          107.8848         0.462525   
    348. A(Zr  0,O  11,Zr  5)          107.8715         0.457195   
    349. A(Zr  0,O  11,Zr  2)          135.8425         0.449497   
    350. A(Zr  0,O  12,C  36)          131.6248         0.512395   
    351. A(C  36,O  12,H  65)           75.7507         0.157167   
    352. A(Zr  0,O  12,H  65)           90.0241         0.165471   
    353. A(Zr  0,O  13,C  37)          133.7732         0.507558   
    354. A(C  37,O  13,H  65)           77.4923         0.161840   
    355. A(Zr  0,O  13,H  65)           92.0788         0.169803   
    356. A(Zr  0,O  14,C  38)          141.0924         0.476243   
    357. A(Zr  0,O  15,C  39)          129.9483         0.488839   
    358. A(Zr  1,O  16,C  40)          128.6636         0.488223   
    359. A(Zr  1,O  17,C  41)          140.1133         0.476175   
    360. A(Zr  1,O  18,C  42)          133.6024         0.508362   
    361. A(Zr  1,O  19,C  43)          131.2082         0.511857   
    362. A(Zr  2,O  20,C  44)          133.3742         0.507990   
    363. A(Zr  2,O  21,C  38)          130.3472         0.489265   
    364. A(Zr  2,O  22,C  42)          130.9579         0.511415   
    365. A(Zr  2,O  23,C  45)          139.1955         0.476494   
    366. A(Zr  3,O  24,C  46)          140.5296         0.476925   
    367. A(Zr  3,O  25,C  37)          130.4282         0.512191   
    368. A(C  37,O  25,H  65)           60.5976         0.140200   
    369. A(Zr  3,O  25,H  65)          102.9891         0.146387   
    370. A(Zr  3,O  26,C  41)          129.1719         0.487602   
    371. A(Zr  3,O  27,C  47)          133.5860         0.508090   
    372. A(Zr  4,O  28,C  47)          130.8057         0.511004   
    373. A(Zr  4,O  29,C  39)          140.2225         0.479801   
    374. A(Zr  4,O  30,C  43)          133.2925         0.508994   
    375. A(Zr  4,O  31,C  45)          128.1338         0.485414   
    376. A(H  64,O  32,H  65)           52.8147         0.101357   
    377. A(H  64,O  32,H  67)           56.3634         0.101504   
    378. A(C  46,O  32,H  64)           84.0068         0.150617   
    379. A(Zr  5,O  32,H  64)          140.3903         0.154186   
    380. A(H  65,O  32,H  67)           80.0186         0.104390   
    381. A(C  46,O  32,H  65)           89.9967         0.164837   
    382. A(Zr  5,O  32,H  65)           99.9563         0.169230   
    383. A(C  46,O  32,H  67)          136.6096         0.165737   
    384. A(Zr  5,O  32,H  67)           94.6158         0.170181   
    385. A(Zr  5,O  32,C  46)          128.7593         0.489046   
    386. A(Zr  5,O  33,C  36)          133.3396         0.509317   
    387. A(H  65,O  33,H  67)           75.2597         0.101540   
    388. A(C  36,O  33,H  65)           67.6092         0.146529   
    389. A(Zr  5,O  33,H  65)           91.1779         0.153031   
    390. A(C  36,O  33,H  67)          113.7090         0.171319   
    391. A(Zr  5,O  33,H  67)           98.8650         0.180622   
    392. A(Zr  5,O  34,C  40)          139.7983         0.474603   
    393. A(Zr  5,O  35,C  44)          130.7913         0.510060   
    394. A(O  12,C  36,O  33)          127.3675         0.466531   
    395. A(H  62,C  36,H  67)           46.1382         0.095067   
    396. A(H  65,C  36,H  67)           67.2981         0.097670   
    397. A(O  33,C  36,H  67)           44.8316         0.134883   
    398. A(O  12,C  36,H  67)          143.1004         0.134870   
    399. A(O  33,C  36,H  62)           89.7182         0.138936   
    400. A(O  12,C  36,H  62)          112.9657         0.138922   
    401. A(H  58,C  36,H  62)           63.7371         0.125513   
    402. A(H  62,C  36,H  65)           49.2344         0.098436   
    403. A(H  58,C  36,H  65)          109.0523         0.141179   
    404. A(O  33,C  36,H  65)           86.1808         0.160361   
    405. A(O  12,C  36,H  65)           76.6619         0.160341   
    406. A(H  58,C  36,H  67)           83.8965         0.122549   
    407. A(O  33,C  36,H  58)          116.3639         0.365127   
    408. A(O  12,C  36,H  58)          116.2661         0.365048   
    409. A(O  13,C  37,O  25)          127.4308         0.466440   
    410. A(H  51,C  37,H  65)          102.2851         0.142600   
    411. A(O  25,C  37,H  65)           94.4917         0.162303   
    412. A(O  13,C  37,H  65)           74.3335         0.162278   
    413. A(O  25,C  37,H  51)          116.2969         0.365083   
    414. A(O  13,C  37,H  51)          116.2719         0.364989   
    415. A(O  14,C  38,O  21)          129.3840         0.466898   
    416. A(O  21,C  38,H  50)          115.2968         0.366263   
    417. A(O  14,C  38,H  50)          115.3189         0.365828   
    418. A(O  15,C  39,O  29)          129.1737         0.466914   
    419. A(O  29,C  39,H  54)          115.4622         0.365717   
    420. A(O  15,C  39,H  54)          115.3631         0.366220   
    421. A(O  16,C  40,O  34)          129.2313         0.466525   
    422. A(O  34,C  40,H  56)          115.4276         0.365541   
    423. A(O  16,C  40,H  56)          115.3405         0.366036   
    424. A(O  17,C  41,O  26)          129.2974         0.466594   
    425. A(O  26,C  41,H  48)          115.3096         0.366103   
    426. A(O  17,C  41,H  48)          115.3926         0.365590   
    427. A(O  18,C  42,O  22)          127.5084         0.466492   
    428. A(O  22,C  42,H  49)          116.2688         0.365088   
    429. A(O  18,C  42,H  49)          116.2225         0.365055   
    430. A(O  30,C  43,H  52)          116.2462         0.365047   
    431. A(O  19,C  43,H  52)          116.2826         0.365067   
    432. A(O  19,C  43,O  30)          127.4710         0.466498   
    433. A(O  35,C  44,H  59)          116.2665         0.365116   
    434. A(O  20,C  44,H  59)          116.2313         0.365056   
    435. A(O  20,C  44,O  35)          127.5019         0.466525   
    436. A(O  31,C  45,H  55)          115.2932         0.365884   
    437. A(O  23,C  45,H  55)          115.3892         0.365363   
    438. A(O  23,C  45,O  31)          129.3166         0.466196   
    439. A(H  64,C  46,H  65)           48.6020         0.098064   
    440. A(H  57,C  46,H  64)           63.1614         0.130145   
    441. A(O  32,C  46,H  64)           70.5786         0.145168   
    442. A(O  24,C  46,H  64)          135.9181         0.145065   
    443. A(H  57,C  46,H  65)          108.0151         0.133702   
    444. A(O  32,C  46,H  65)           63.4946         0.150024   
    445. A(O  24,C  46,H  65)          100.3927         0.149912   
    446. A(O  32,C  46,H  57)          115.3580         0.366001   
    447. A(O  24,C  46,H  57)          115.3434         0.365492   
    448. A(O  24,C  46,O  32)          129.2986         0.466448   
    449. A(O  28,C  47,H  53)          116.2793         0.365097   
    450. A(O  27,C  47,H  53)          116.2396         0.365059   
    451. A(O  27,C  47,O  28)          127.4808         0.466519   
    452. A(C  37,H  51,H  65)           57.6567         0.109787   
    453. A(C  46,H  57,H  64)           95.7544         0.118289   
    454. A(H  62,H  58,H  65)           47.4508         0.091387   
    455. A(C  36,H  58,H  65)           52.4153         0.107566   
    456. A(C  36,H  58,H  62)           96.1188         0.114958   
    457. A(H  65,Al 60,H  66)          158.0364         0.378721   
    458. A(H  64,Al 60,H  66)           98.6677         0.361697   
    459. A(H  62,Al 60,H  66)          101.1229         0.361334   
    460. A(Al 61,Al 60,H  66)          101.7400         0.432656   
    461. A(H  64,Al 60,H  65)           95.9875         0.362282   
    462. A(H  62,Al 60,H  65)           97.9742         0.361919   
    463. A(Al 61,Al 60,H  65)           99.9352         0.433394   
    464. A(H  62,Al 60,H  64)           77.3886         0.345882   
    465. A(Al 61,Al 60,H  64)           38.7251         0.413157   
    466. A(Al 61,Al 60,H  62)           38.6843         0.412726   
    467. A(H  64,Al 61,H  67)          103.5606         0.361075   
    468. A(H  63,Al 61,H  67)          153.2656         0.377937   
    469. A(H  62,Al 61,H  67)           99.7144         0.361418   
    470. A(Al 60,Al 61,H  67)          105.9436         0.432464   
    471. A(H  63,Al 61,H  64)           99.6215         0.361226   
    472. A(H  62,Al 61,H  64)           77.3604         0.345662   
    473. A(Al 60,Al 61,H  64)           38.6684         0.412599   
    474. A(H  62,Al 61,H  63)           98.1769         0.361568   
    475. A(Al 60,Al 61,H  63)          100.4520         0.432653   
    476. A(Al 60,Al 61,H  62)           38.7129         0.413007   
    477. A(C  36,H  62,H  58)           20.1440         0.093694   
    478. A(C  36,H  62,Al 61)          108.0955         0.130194   
    479. A(C  36,H  62,Al 60)           94.8986         0.130158   
    480. A(H  58,H  62,Al 61)          114.0313         0.118286   
    481. A(H  58,H  62,Al 60)          111.0358         0.118261   
    482. A(Al 60,H  62,Al 61)          102.6028         0.345763   
    483. A(O  32,H  64,C  46)           25.4146         0.098152   
    484. A(C  46,H  64,H  57)           21.0842         0.094939   
    485. A(C  46,H  64,Al 61)          117.6237         0.135245   
    486. A(C  46,H  64,Al 60)          100.9842         0.135325   
    487. A(O  32,H  64,H  57)           42.5539         0.095515   
    488. A(O  32,H  64,Al 61)           93.8601         0.139732   
    489. A(O  32,H  64,Al 60)           99.1442         0.139819   
    490. A(H  57,H  64,Al 61)          123.1459         0.121920   
    491. A(H  57,H  64,Al 60)          116.2161         0.121977   
    492. A(Al 60,H  64,Al 61)          102.6065         0.345781   
    493. A(H  51,H  65,H  58)          126.5372         0.090912   
    494. A(O  25,H  65,H  58)          138.2708         0.092443   
    495. A(O  33,H  65,H  58)           38.0199         0.092868   
    496. A(C  46,H  65,H  58)          120.0929         0.093100   
    497. A(C  36,H  65,H  58)           18.5324         0.093798   
    498. A(C  37,H  65,H  58)          123.1321         0.093929   
    499. A(O  13,H  65,H  58)           95.1574         0.093900   
    500. A(O   6,H  65,H  58)           93.4928         0.093927   
    501. A(O  32,H  65,H  58)           93.6298         0.094096   
    502. A(H  58,H  65,Al 60)           96.6831         0.111264   
    503. A(O  25,H  65,H  51)           38.3920         0.092855   
    504. A(C  46,H  65,H  51)          105.0492         0.093591   
    505. A(O  12,H  65,H  51)           96.4529         0.094133   
    506. A(C  36,H  65,H  51)          123.7903         0.094372   
    507. A(C  37,H  65,H  51)           20.0582         0.094519   
    508. A(O  13,H  65,H  51)           40.3814         0.094486   
    509. A(O   6,H  65,H  51)           87.7939         0.094517   
    510. A(O  32,H  65,H  51)          128.2838         0.094706   
    511. A(H  51,H  65,Al 60)           95.7891         0.113929   
    512. A(O  25,H  65,O  33)          119.9073         0.096801   
    513. A(O  25,H  65,C  46)           69.7601         0.097269   
    514. A(O  25,H  65,C  36)          122.6728         0.098676   
    515. A(O  25,H  65,C  37)           24.9106         0.098940   
    516. A(O  13,H  65,O  25)           47.3156         0.098881   
    517. A(O   6,H  65,O  25)           55.9445         0.098937   
    518. A(O  25,H  65,O  32)           90.2483         0.099276   
    519. A(O  25,H  65,Al 60)          120.1124         0.133898   
    520. A(O  33,H  65,C  46)           83.1780         0.098290   
    521. A(O  12,H  65,O  33)           48.3884         0.099388   
    522. A(O  12,H  65,O  25)           99.7810         0.098246   
    523. A(O  33,H  65,C  36)           26.2099         0.099871   
    524. A(O  33,H  65,C  37)          123.6523         0.100168   
    525. A(O  13,H  65,O  33)          100.3797         0.100101   
    526. A(O   6,H  65,O  33)           64.1928         0.100164   
    527. A(O  32,H  65,O  33)           57.4631         0.100545   
    528. A(O  33,H  65,Al 60)          118.8336         0.139444   
    529. A(O  12,H  65,C  46)          117.9406         0.100011   
    530. A(C  36,H  65,C  46)          108.5873         0.100524   
    531. A(C  37,H  65,C  46)           94.5919         0.100838   
    532. A(O  13,H  65,C  46)          109.1566         0.100768   
    533. A(O   6,H  65,C  46)           57.0827         0.100834   
    534. A(O  33,H  65,H  51)          140.6934         0.093331   
    535. A(O  32,H  65,C  46)           26.5087         0.101239   
    536. A(C  46,H  65,Al 60)          107.1583         0.142472   
    537. A(O  12,H  65,C  36)           27.5874         0.101885   
    538. A(O  12,H  65,C  37)           86.5482         0.102237   
    539. A(O  12,H  65,O  13)           58.5147         0.102158   
    540. A(O   6,H  65,O  12)           66.6884         0.102232   
    541. A(O  12,H  65,O  32)           98.9485         0.102684   
    542. A(O  12,H  65,Al 60)          127.8653         0.148789   
    543. A(C  36,H  65,C  37)          113.6708         0.102853   
    544. A(O  13,H  65,C  36)           85.9188         0.102770   
    545. A(O   6,H  65,C  36)           74.9687         0.102848   
    546. A(O  32,H  65,C  36)           83.5047         0.103321   
    547. A(C  36,H  65,Al 60)          114.8847         0.151572   
    548. A(O  13,H  65,C  37)           28.1742         0.103146   
    549. A(O   6,H  65,C  37)           67.8280         0.103226   
    550. A(O  12,H  65,H  58)           38.5952         0.093585   
    551. A(O  32,H  65,C  37)          113.2399         0.103712   
    552. A(C  37,H  65,Al 60)          115.5100         0.153280   
    553. A(O   6,H  65,O  13)           61.9224         0.103141   
    554. A(O  13,H  65,O  32)          116.7635         0.103624   
    555. A(O  13,H  65,Al 60)          128.7617         0.152897   
    556. A(O   6,H  65,O  32)           55.0938         0.103707   
    557. A(O   6,H  65,Al 60)          164.1658         0.153258   
    558. A(O  32,H  65,Al 60)          111.9726         0.155452   
    559. A(O  32,H  67,C  36)           73.7793         0.098317   
    560. A(O  33,H  67,C  36)           21.4593         0.099002   
    561. A(C  36,H  67,Al 61)          105.8805         0.129123   
    562. A(O  32,H  67,O  33)           63.4281         0.105716   
    563. A(O  32,H  67,Al 61)          106.1807         0.156059   
    564. A(O  33,H  67,Al 61)          125.8871         0.160985   
    565. D(Zr  5,Zr  2,Zr  1,O   7)    121.7605         0.010000   
    566. D(O   7,Zr  2,Zr  1,Zr  4)    -17.2317         0.010000   
    567. D(Zr  5,Zr  2,Zr  1,Zr  4)    104.5288         0.010000   
    568. D(Zr  4,Zr  3,Zr  0,O   6)   -122.6577         0.010000   
    569. D(Zr  4,Zr  3,Zr  0,Zr  5)   -103.9896         0.010000   
    570. D(O   6,Zr  3,Zr  0,Zr  5)     18.6681         0.010000   
    571. D(Zr  1,Zr  4,Zr  3,O   6)     75.2771         0.010000   
    572. D(Zr  1,Zr  4,Zr  3,Zr  0)    104.7170         0.010000   
    573. D(Zr  3,Zr  4,Zr  1,O   7)   -121.8228         0.010000   
    574. D(Zr  3,Zr  4,Zr  1,Zr  2)   -104.5174         0.010000   
    575. D(O   7,Zr  4,Zr  3,Zr  0)     74.9765         0.010000   
    576. D(O   7,Zr  4,Zr  1,Zr  2)     17.3054         0.010000   
    577. D(Zr  2,Zr  5,Zr  0,O   6)    123.5255         0.010000   
    578. D(Zr  2,Zr  5,Zr  0,Zr  3)    104.7650         0.010000   
    579. D(Zr  0,Zr  5,Zr  2,O   7)    -75.1324         0.010000   
    580. D(O   6,Zr  5,Zr  2,Zr  1)    -75.7910         0.010000   
    581. D(Zr  0,Zr  5,Zr  2,Zr  1)   -104.8327         0.010000   
    582. D(O   6,Zr  5,Zr  0,Zr  3)    -18.7605         0.010000   
    583. D(Zr  3,O   6,Zr  0,O   9)    -23.4507         0.010000   
    584. D(Zr  5,O   6,Zr  3,Zr  0)   -138.3584         0.010000   
    585. D(Zr  0,O   6,Zr  3,O   9)     23.8598         0.010000   
    586. D(Zr  0,O   6,Zr  5,Zr  2)    -51.8750         0.010000   
    587. D(Zr  0,O   6,Zr  3,Zr  4)     52.5392         0.010000   
    588. D(Zr  0,O   6,Zr  5,O   8)    -87.8641         0.010000   
    589. D(Zr  5,O   6,Zr  0,Zr  3)    149.5566         0.010000   
    590. D(Zr  3,O   6,Zr  5,Zr  0)    138.2682         0.010000   
    591. D(Zr  3,O   6,Zr  0,Zr  5)   -149.5566         0.010000   
    592. D(Zr  2,O   7,Zr  1,Zr  4)    151.9020         0.010000   
    593. D(Zr  2,O   7,Zr  1,O   8)     23.7528         0.010000   
    594. D(Zr  4,O   7,Zr  1,Zr  2)   -151.9020         0.010000   
    595. D(Zr  1,O   7,Zr  2,Zr  5)    -53.1180         0.010000   
    596. D(Zr  1,O   7,Zr  2,O   8)    -24.1578         0.010000   
    597. D(Zr  2,O   7,Zr  4,Zr  1)   -140.8843         0.010000   
    598. D(Zr  1,O   7,Zr  4,O   9)     89.2378         0.010000   
    599. D(Zr  1,O   7,Zr  4,Zr  3)     53.2896         0.010000   
    600. D(Zr  4,O   7,Zr  2,Zr  1)    140.9112         0.010000   
    601. D(Zr  2,O   8,Zr  5,Zr  0)     52.1419         0.010000   
    602. D(Zr  1,O   8,Zr  5,Zr  2)   -138.5460         0.010000   
    603. D(Zr  1,O   8,Zr  5,Zr  0)    -86.4040         0.010000   
    604. D(Zr  5,O   8,Zr  2,Zr  1)   -149.8829         0.010000   
    605. D(Zr  1,O   8,Zr  2,O   7)     23.7886         0.010000   
    606. D(Zr  5,O   8,Zr  1,Zr  2)    138.2863         0.010000   
    607. D(Zr  2,O   8,Zr  1,O   7)    -24.2605         0.010000   
    608. D(Zr  2,O   8,Zr  1,Zr  4)    -52.0209         0.010000   
    609. D(Zr  1,O   8,Zr  2,Zr  5)    149.8829         0.010000   
    610. D(Zr  3,O   9,Zr  4,Zr  1)    -52.5174         0.010000   
    611. D(Zr  4,O   9,Zr  3,Zr  0)    150.4717         0.010000   
    612. D(Zr  0,O   9,Zr  4,Zr  1)     86.3589         0.010000   
    613. D(Zr  0,O   9,Zr  3,Zr  4)   -150.4717         0.010000   
    614. D(Zr  4,O   9,Zr  0,Zr  3)   -138.6661         0.010000   
    615. D(Zr  0,O   9,Zr  3,O   6)    -23.4734         0.010000   
    616. D(Zr  0,O   9,Zr  4,Zr  3)    138.8763         0.010000   
    617. D(Zr  3,O   9,Zr  0,Zr  5)     52.6831         0.010000   
    618. D(Zr  3,O   9,Zr  0,O   6)     23.9846         0.010000   
    619. D(Zr  1,O  10,Zr  4,O   7)    -24.7464         0.010000   
    620. D(Zr  3,O  10,Zr  1,Zr  4)   -141.3632         0.010000   
    621. D(Zr  3,O  10,Zr  1,Zr  2)    -87.8094         0.010000   
    622. D(Zr  1,O  10,Zr  3,Zr  4)    141.1106         0.010000   
    623. D(Zr  1,O  10,Zr  3,Zr  0)     87.8547         0.010000   
    624. D(Zr  1,O  10,Zr  4,Zr  3)   -152.5145         0.010000   
    625. D(Zr  4,O  10,Zr  1,Zr  2)     53.5538         0.010000   
    626. D(Zr  3,O  10,Zr  4,Zr  1)    152.5145         0.010000   
    627. D(Zr  4,O  10,Zr  3,Zr  0)    -53.2559         0.010000   
    628. D(Zr  2,O  11,Zr  5,Zr  0)   -153.6538         0.010000   
    629. D(Zr  0,O  11,Zr  5,Zr  2)    153.6538         0.010000   
    630. D(Zr  5,O  11,Zr  2,Zr  1)     53.6741         0.010000   
    631. D(Zr  0,O  11,Zr  2,Zr  5)   -142.6764         0.010000   
    632. D(Zr  0,O  11,Zr  2,Zr  1)    -89.0023         0.010000   
    633. D(Zr  5,O  11,Zr  0,Zr  3)    -53.7868         0.010000   
    634. D(Zr  0,O  11,Zr  5,O   6)     24.1263         0.010000   
    635. D(Zr  2,O  11,Zr  0,Zr  5)    142.6797         0.010000   
    636. D(Zr  2,O  11,Zr  0,Zr  3)     88.8929         0.010000   
    637. D(H  65,O  12,Zr  0,Zr  3)    -16.5477         0.010000   
    638. D(C  36,O  12,Zr  0,Zr  5)      2.6807         0.010000   
    639. D(C  36,O  12,Zr  0,Zr  3)     54.2498         0.010000   
    640. D(H  65,O  13,Zr  0,Zr  3)     80.9184         0.010000   
    641. D(C  37,O  13,Zr  0,Zr  5)    -52.9757         0.010000   
    642. D(C  37,O  13,Zr  0,Zr  3)      6.3059         0.010000   
    643. D(C  38,O  14,Zr  0,Zr  5)     13.6570         0.010000   
    644. D(C  38,O  14,Zr  0,Zr  3)    -59.6231         0.010000   
    645. D(C  39,O  15,Zr  0,Zr  5)     -8.0965         0.010000   
    646. D(C  39,O  15,Zr  0,Zr  3)    -68.7016         0.010000   
    647. D(C  40,O  16,Zr  1,Zr  4)     16.8868         0.010000   
    648. D(C  40,O  16,Zr  1,Zr  2)     71.4150         0.010000   
    649. D(C  41,O  17,Zr  1,Zr  4)     -4.9737         0.010000   
    650. D(C  41,O  17,Zr  1,Zr  2)     71.0101         0.010000   
    651. D(C  42,O  18,Zr  1,Zr  4)     58.4249         0.010000   
    652. D(C  42,O  18,Zr  1,Zr  2)     -3.1003         0.010000   
    653. D(C  43,O  19,Zr  1,Zr  4)      2.6443         0.010000   
    654. D(C  43,O  19,Zr  1,Zr  2)    -46.6906         0.010000   
    655. D(C  44,O  20,Zr  2,Zr  5)      3.4398         0.010000   
    656. D(C  44,O  20,Zr  2,Zr  1)    -58.1404         0.010000   
    657. D(C  38,O  21,Zr  2,Zr  5)    -69.6783         0.010000   
    658. D(C  38,O  21,Zr  2,Zr  1)    -16.9343         0.010000   
    659. D(C  42,O  22,Zr  2,Zr  5)     44.4158         0.010000   
    660. D(C  42,O  22,Zr  2,Zr  1)     -4.5941         0.010000   
    661. D(C  45,O  23,Zr  2,Zr  5)    -74.2423         0.010000   
    662. D(C  45,O  23,Zr  2,Zr  1)      1.7234         0.010000   
    663. D(C  46,O  24,Zr  3,Zr  4)     68.9162         0.010000   
    664. D(C  46,O  24,Zr  3,Zr  0)     -7.6505         0.010000   
    665. D(H  65,O  25,Zr  3,Zr  0)    -53.6419         0.010000   
    666. D(C  37,O  25,Zr  3,Zr  4)    -41.4867         0.010000   
    667. D(C  37,O  25,Zr  3,Zr  0)      8.6243         0.010000   
    668. D(C  41,O  26,Zr  3,Zr  4)     71.3806         0.010000   
    669. D(C  41,O  26,Zr  3,Zr  0)     17.2264         0.010000   
    670. D(C  47,O  27,Zr  3,Zr  4)     -4.7359         0.010000   
    671. D(C  47,O  27,Zr  3,Zr  0)     56.8483         0.010000   
    672. D(C  47,O  28,Zr  4,Zr  3)     -5.9128         0.010000   
    673. D(C  47,O  28,Zr  4,Zr  1)     43.0360         0.010000   
    674. D(C  39,O  29,Zr  4,Zr  3)      4.5409         0.010000   
    675. D(C  39,O  29,Zr  4,Zr  1)    -73.6054         0.010000   
    676. D(C  43,O  30,Zr  4,Zr  3)    -61.2666         0.010000   
    677. D(C  43,O  30,Zr  4,Zr  1)      1.1778         0.010000   
    678. D(C  45,O  31,Zr  4,Zr  3)    -22.2724         0.010000   
    679. D(C  45,O  31,Zr  4,Zr  1)    -73.7953         0.010000   
    680. D(C  46,O  32,Zr  5,Zr  0)     72.5308         0.010000   
    681. D(H  67,O  32,Zr  5,Zr  0)   -106.2217         0.010000   
    682. D(C  46,O  32,Zr  5,Zr  2)     17.6753         0.010000   
    683. D(C  36,O  33,Zr  5,Zr  2)     64.4408         0.010000   
    684. D(C  36,O  33,Zr  5,Zr  0)      2.0167         0.010000   
    685. D(H  67,O  33,Zr  5,Zr  0)    136.9856         0.010000   
    686. D(C  40,O  34,Zr  5,Zr  2)     -4.2703         0.010000   
    687. D(C  40,O  34,Zr  5,Zr  0)     72.8616         0.010000   
    688. D(C  44,O  35,Zr  5,Zr  2)      4.8382         0.010000   
    689. D(C  44,O  35,Zr  5,Zr  0)    -44.5646         0.010000   
    690. D(O  33,C  36,O  12,H  65)     74.5029         0.065289   
    691. D(O  33,C  36,O  12,Zr  0)     -2.4891         0.065289   
    692. D(H  58,C  36,O  33,Zr  5)    178.4034         0.069436   
    693. D(O  12,C  36,O  33,H  67)   -131.2255         0.069436   
    694. D(O  12,C  36,O  33,Zr  5)     -0.9972         0.069436   
    695. D(H  58,C  36,O  12,Zr  0)    178.1097         0.065289   
    696. D(H  51,C  37,O  25,Zr  3)    172.0397         0.056885   
    697. D(O  13,C  37,O  25,H  65)     73.6813         0.056885   
    698. D(O  13,C  37,O  25,Zr  3)     -8.2044         0.056885   
    699. D(H  51,C  37,O  13,Zr  0)    176.9307         0.056693   
    700. D(O  25,C  37,O  13,H  65)    -83.5557         0.056693   
    701. D(O  25,C  37,O  13,Zr  0)     -2.8252         0.056693   
    702. D(H  50,C  38,O  21,Zr  2)   -161.1813         0.047792   
    703. D(O  14,C  38,O  21,Zr  2)     19.0448         0.047792   
    704. D(H  50,C  38,O  14,Zr  0)   -161.1620         0.047056   
    705. D(O  21,C  38,O  14,Zr  0)     18.6119         0.047056   
    706. D(H  54,C  39,O  29,Zr  4)   -153.7288         0.047009   
    707. D(O  15,C  39,O  29,Zr  4)     26.6371         0.047009   
    708. D(H  54,C  39,O  15,Zr  0)   -163.1692         0.047859   
    709. D(O  29,C  39,O  15,Zr  0)     16.4653         0.047859   
    710. D(H  56,C  40,O  34,Zr  5)    152.9075         0.046778   
    711. D(O  16,C  40,O  34,Zr  5)    -27.3967         0.046778   
    712. D(H  56,C  40,O  16,Zr  1)    162.0479         0.047610   
    713. D(O  34,C  40,O  16,Zr  1)    -17.6481         0.047610   
    714. D(H  48,C  41,O  26,Zr  3)    161.3615         0.047668   
    715. D(O  17,C  41,O  26,Zr  3)    -18.3949         0.047668   
    716. D(H  48,C  41,O  17,Zr  1)    153.8377         0.046806   
    717. D(O  26,C  41,O  17,Zr  1)    -26.4061         0.046806   
    718. D(H  49,C  42,O  22,Zr  2)   -175.6572         0.047200   
    719. D(O  18,C  42,O  22,Zr  2)      4.5392         0.047200   
    720. D(H  49,C  42,O  18,Zr  1)   -178.6548         0.047144   
    721. D(O  22,C  42,O  18,Zr  1)      1.1489         0.047144   
    722. D(H  52,C  43,O  30,Zr  4)   -179.9671         0.047159   
    723. D(O  19,C  43,O  30,Zr  4)      0.2130         0.047159   
    724. D(H  52,C  43,O  19,Zr  1)    177.1523         0.047192   
    725. D(O  30,C  43,O  19,Zr  1)     -3.0277         0.047192   
    726. D(H  59,C  44,O  35,Zr  5)    175.5302         0.047242   
    727. D(O  20,C  44,O  35,Zr  5)     -4.6473         0.047242   
    728. D(H  59,C  44,O  20,Zr  2)    178.3719         0.047142   
    729. D(O  35,C  44,O  20,Zr  2)     -1.4506         0.047142   
    730. D(H  55,C  45,O  31,Zr  4)   -160.8142         0.047428   
    731. D(O  23,C  45,O  31,Zr  4)     18.8000         0.047428   
    732. D(H  55,C  45,O  23,Zr  2)   -150.8767         0.046556   
    733. D(O  31,C  45,O  23,Zr  2)     29.5095         0.046556   
    734. D(H  57,C  46,O  32,Zr  5)    158.7921         0.069898   
    735. D(O  24,C  46,O  32,H  67)    156.8902         0.069898   
    736. D(O  24,C  46,O  32,Zr  5)    -21.2996         0.069898   
    737. D(H  57,C  46,O  24,Zr  3)    157.8172         0.056280   
    738. D(O  32,C  46,O  24,Zr  3)    -22.0911         0.056280   
    739. D(H  53,C  47,O  28,Zr  4)   -174.8291         0.047220   
    740. D(O  27,C  47,O  28,Zr  4)      5.3224         0.047220   
    741. D(H  53,C  47,O  27,Zr  3)   -177.2948         0.047156   
    742. D(O  28,C  47,O  27,Zr  3)      2.5537         0.047156   
    743. D(H  65,H  51,C  37,O  25)    101.3624         0.121585   
    744. D(H  65,H  51,C  37,O  13)    -78.4215         0.121585   
    745. D(H  64,H  57,C  46,O  32)     49.2929         0.136322   
    746. D(H  64,H  57,C  46,O  24)   -130.6286         0.136322   
    747. D(H  65,H  58,C  36,O  12)     84.1606         0.152920   
    748. D(H  62,H  58,C  36,O  33)    -75.4827         0.152920   
    749. D(H  62,H  58,C  36,O  12)    103.9861         0.152920   
    750. D(H  63,Al 61,Al 60,H  62)     90.0630         0.010000   
    751. D(H  62,Al 61,Al 60,H  65)     90.3767         0.010000   
    752. D(H  62,Al 61,Al 60,H  64)    177.5589         0.010000   
    753. D(H  58,H  62,Al 61,Al 60)   -120.1596         0.010000   
    754. D(Al 60,H  62,Al 61,H  63)    -96.5328         0.010000   
    755. D(H  58,H  62,Al 60,Al 61)    122.2131         0.010000   
    756. D(Al 61,H  62,Al 60,H  65)    -95.9573         0.010000   
    757. D(Al 61,H  62,Al 60,H  64)     -1.5646         0.010000   
    758. D(Al 61,H  62,H  58,C  36)     76.8188         0.010000   
    759. D(Al 60,H  62,H  58,H  65)    -17.0893         0.010000   
    760. D(Al 60,H  62,H  58,C  36)    -38.4862         0.010000   
    761. D(Al 61,H  62,C  36,O  12)    140.2356         0.010000   
    762. D(Al 60,H  62,Al 61,H  64)      1.5628         0.010000   
    763. D(Al 60,H  62,C  36,O  33)    -95.8177         0.010000   
    764. D(Al 60,H  62,C  36,O  12)     35.2610         0.010000   
    765. D(H  57,H  64,Al 61,Al 60)    133.3689         0.010000   
    766. D(Al 60,H  64,Al 61,H  63)     94.7409         0.010000   
    767. D(Al 60,H  64,Al 61,H  62)     -1.5644         0.010000   
    768. D(H  57,H  64,Al 60,Al 61)   -137.2775         0.010000   
    769. D(Al 61,H  64,Al 60,H  65)     98.4248         0.010000   
    770. D(Al 61,H  64,Al 60,H  62)      1.5632         0.010000   
    771. D(Al 61,H  64,H  57,C  46)    -81.1181         0.010000   
    772. D(Al 60,H  64,H  57,C  46)     46.6248         0.010000   
    773. D(Al 61,H  64,C  46,O  24)   -149.3950         0.010000   
    774. D(Al 60,H  64,C  46,O  32)     88.2073         0.010000   
    775. D(Al 60,H  64,C  46,O  24)    -38.7545         0.010000   
    776. D(Al 61,H  64,O  32,Zr  5)    -50.4368         0.010000   
    777. D(Al 60,H  64,O  32,C  46)    -96.3684         0.010000   
    778. D(Al 60,H  64,O  32,Zr  5)     53.0032         0.010000   
    779. D(O   6,H  65,Al 60,Al 61)     69.1592         0.012052   
    780. D(O  32,H  65,Al 60,H  62)     75.3148         0.012052   
    781. D(O  32,H  65,H  58,C  36)     56.9167         0.010000   
    782. D(Al 60,H  65,H  58,H  62)     16.7974         0.010000   
    783. D(Al 60,H  65,H  58,C  36)    169.5552         0.010000   
    784. D(O  32,H  65,H  51,C  37)    -45.8866         0.010000   
    785. D(Al 60,H  65,H  51,C  37)   -169.8828         0.010000   
    786. D(O  32,H  65,C  46,O  24)   -128.9097         0.010000   
    787. D(Al 60,H  65,C  46,O  32)   -104.9706         0.010000   
    788. D(O  32,H  65,C  37,O  13)   -103.6630         0.010000   
    789. D(Al 60,H  65,C  37,O  25)   -106.9927         0.010000   
    790. D(Al 60,H  65,C  37,O  13)    125.3333         0.010000   
    791. D(Al 60,H  65,C  36,O  33)    105.1541         0.010000   
    792. D(Al 60,H  65,C  36,O  12)   -124.9820         0.010000   
    793. D(O  32,H  65,O  33,Zr  5)     35.5993         0.010000   
    794. D(Al 60,H  65,O  33,C  36)    -88.2394         0.010000   
    795. D(Al 60,H  65,O  33,Zr  5)    134.5404         0.010000   
    796. D(O   6,H  65,O  32,Zr  5)     44.3793         0.010000   
    797. D(Al 60,H  65,O  32,C  46)     84.4802         0.010000   
    798. D(O  32,H  65,C  36,O  12)    123.7758         0.010000   
    799. D(Al 60,H  65,O  32,Zr  5)   -146.0544         0.010000   
    800. D(O  32,H  65,O  25,Zr  3)    -28.7028         0.010000   
    801. D(Al 60,H  65,O  25,C  37)     86.1674         0.010000   
    802. D(Al 60,H  65,C  46,O  24)    126.1198         0.010000   
    803. D(Al 60,H  65,O  25,Zr  3)   -144.4917         0.010000   
    804. D(O  32,H  65,O  13,Zr  0)    -44.8328         0.010000   
    805. D(Al 60,H  65,O  13,C  37)    -70.7743         0.010000   
    806. D(Al 60,H  65,O  13,Zr  0)    154.7154         0.010000   
    807. D(O  32,H  65,O  12,Zr  0)     76.5271         0.010000   
    808. D(Al 60,H  65,O  12,C  36)     70.3026         0.010000   
    809. D(Al 60,H  65,O  12,Zr  0)   -156.4439         0.010000   
    810. D(O  32,H  65,Al 60,Al 61)     36.1822         0.012052   
    811. D(O  32,H  65,O   6,Zr  0)   -149.2229         0.010000   
    812. D(Al 60,H  65,O   6,Zr  3)     63.6929         0.010000   
    813. D(Al 60,H  65,O   6,Zr  0)    172.7888         0.010000   
    814. D(O  32,H  67,O  33,Zr  5)    -31.0586         0.010000   
    815. D(Al 61,H  67,O  33,C  36)     23.4468         0.010000   
    816. D(Al 61,H  67,O  33,Zr  5)   -122.3597         0.010000   
    817. D(O  33,H  67,O  32,Zr  5)     29.7538         0.010000   
    818. D(Al 61,H  67,O  32,C  46)    -26.3282         0.010000   
    819. D(Al 61,H  67,O  32,Zr  5)    152.2557         0.010000   
    820. D(O  32,H  67,Al 61,Al 60)    -41.7957         0.010000   
    821. D(O  33,H  67,Al 61,H  62)    -12.4496         0.010000   
    822. D(O  33,H  67,Al 61,Al 60)     26.7992         0.010000   
    823. D(O  33,H  67,C  36,O  12)     95.3951         0.010000   
    824. D(Al 61,H  67,C  36,O  33)   -160.4179         0.010000   
    825. D(Al 61,H  67,C  36,O  12)    -65.0228         0.010000   
    -----------------------------------------------------------------

Number of atoms                         .... 68
Number of degrees of freedom            .... 825


         *************************************************************
         *                GEOMETRY OPTIMIZATION CYCLE   1            *
         *************************************************************
---------------------------------
CARTESIAN COORDINATES (ANGSTROEM)
---------------------------------
  Zr    -0.335440    2.211536    1.398836
  Zr     0.299268   -2.157054   -1.410964
  Zr     1.624476   -1.213405    1.601926
  Zr    -1.658557    1.269742   -1.614332
  Zr     1.744726    0.924405   -1.701829
  Zr    -1.771646   -0.886806    1.677374
  O     -1.696999    0.897227    0.497315
  O      1.642132   -0.828323   -0.502119
  O     -0.143978   -1.816435    0.644094
  O      0.116222    1.861290   -0.654764
  O     -0.068293   -0.106827   -1.924298
  O      0.032768    0.161508    1.892910
  O     -1.323135    2.241671    3.098644
  O     -1.651176    3.592406    0.868115
  O      1.269468    2.095096    2.706256
  O      0.977184    3.638471    0.774528
  O     -0.936505   -3.636880   -0.750033
  O     -1.381210   -2.050360   -2.619858
  O      1.703283   -3.472541   -0.953173
  O      1.189048   -2.168600   -3.166130
  O      0.958067   -2.449084    2.996394
  O      2.058716   -0.054111    3.217612
  O      2.676755   -2.782374    1.046472
  O      3.390904   -0.250646    1.109145
  O     -3.432752    0.320896   -1.126314
  O     -2.688814    2.858645   -1.082404
  O     -2.107166    0.097494   -3.222649
  O     -0.983051    2.486979   -3.020241
  O      1.341490    2.358037   -2.991947
  O      2.486840    2.520173   -0.626920
  O      2.212110   -0.084041   -3.335514
  O      3.634689    0.378497   -1.139111
  O     -3.659426   -0.393985    1.097025
  O     -2.246889    0.116361    3.311246
  O     -2.484624   -2.525192    0.617101
  O     -1.366266   -2.310991    2.981410
  C     -2.006197    1.326012    3.715477
  C     -2.504691    3.692946   -0.105203
  C      1.962554    1.228565    3.380596
  C      2.071521    3.520361    0.089619
  C     -2.038089   -3.530867   -0.073609
  C     -2.037278   -1.192046   -3.341343
  C      2.547834   -3.575962    0.027350
  C      1.921301   -1.276041   -3.759601
  C     -0.230325   -2.773784    3.405896
  C      4.064210    0.088698    0.050433
  C     -4.093353   -0.099010   -0.089233
  C      0.206261    2.816921   -3.422707
  H     -2.613263   -1.615102   -4.159873
  H      3.229084   -4.425724   -0.011484
  H      2.543558    1.636857    4.202564
  H     -3.141776    4.577225   -0.098758
  H      2.337763   -1.558618   -4.726338
  H      0.257139    3.567246   -4.211482
  H      2.737571    4.378155    0.124910
  H      5.141893    0.143218    0.181127
  H     -2.680835   -4.406995   -0.091168
  H     -5.163422   -0.219023   -0.236600
  H     -2.433076    1.608729    4.677525
  H     -0.279672   -3.523438    4.195371
  Al    -5.126918    2.609531    2.224271
  Al    -5.904420    0.466172    3.505108
  H     -5.097229    1.913409    3.748517
  H     -7.359491    0.931384    3.994485
  H     -5.894821    1.143280    1.971549
  H     -3.681069    2.127946    1.731882
  H     -6.424562    3.545774    2.336876
  H     -4.654578   -0.540075    3.479971

----------------------------
CARTESIAN COORDINATES (A.U.)
----------------------------
  NO LB      ZA    FRAG     MASS         X           Y           Z
   0 Zr   12.0000*   0    91.220   -0.633890    4.179197    2.643418
   1 Zr   12.0000*   0    91.220    0.565534   -4.076240   -2.666336
   2 Zr   12.0000*   0    91.220    3.069814   -2.293002    3.027201
   3 Zr   12.0000*   0    91.220   -3.134219    2.399465   -3.050646
   4 Zr   12.0000*   0    91.220    3.297054    1.746872   -3.215990
   5 Zr   12.0000*   0    91.220   -3.347927   -1.675821    3.169777
   6 O     8.0000    0    15.999   -3.206863    1.695514    0.939789
   7 O     8.0000    0    15.999    3.103179   -1.565303   -0.948868
   8 O     8.0000    0    15.999   -0.272078   -3.432565    1.217160
   9 O     8.0000    0    15.999    0.219627    3.517328   -1.237325
  10 O     8.0000    0    15.999   -0.129056   -0.201874   -3.636397
  11 O     8.0000    0    15.999    0.061923    0.305206    3.577082
  12 O     8.0000    0    15.999   -2.500362    4.236143    5.855589
  13 O     8.0000    0    15.999   -3.120270    6.788664    1.640500
  14 O     8.0000    0    15.999    2.398947    3.959157    5.114082
  15 O     8.0000    0    15.999    1.846610    6.875714    1.463646
  16 O     8.0000    0    15.999   -1.769738   -6.872707   -1.417357
  17 O     8.0000    0    15.999   -2.610109   -3.874619   -4.950814
  18 O     8.0000    0    15.999    3.218738   -6.562151   -1.801237
  19 O     8.0000    0    15.999    2.246974   -4.098060   -5.983119
  20 O     8.0000    0    15.999    1.810484   -4.628097    5.662364
  21 O     8.0000    0    15.999    3.890410   -0.102255    6.080406
  22 O     8.0000    0    15.999    5.058333   -5.257925    1.977545
  23 O     8.0000    0    15.999    6.407879   -0.473652    2.095981
  24 O     8.0000    0    15.999   -6.486961    0.606406   -2.128425
  25 O     8.0000    0    15.999   -5.081123    5.402055   -2.045447
  26 O     8.0000    0    15.999   -3.981967    0.184238   -6.089924
  27 O     8.0000    0    15.999   -1.857696    4.699709   -5.707428
  28 O     8.0000    0    15.999    2.535050    4.456044   -5.653960
  29 O     8.0000    0    15.999    4.699446    4.762437   -1.184708
  30 O     8.0000    0    15.999    4.180283   -0.158815   -6.303207
  31 O     8.0000    0    15.999    6.868567    0.715256   -2.152607
  32 O     8.0000    0    15.999   -6.915313   -0.744524    2.073078
  33 O     8.0000    0    15.999   -4.246005    0.219891    6.257348
  34 O     8.0000    0    15.999   -4.695259   -4.771921    1.166152
  35 O     8.0000    0    15.999   -2.581868   -4.367140    5.634049
  36 C     6.0000    0    12.011   -3.791162    2.505799    7.021235
  37 C     6.0000    0    12.011   -4.733181    6.978656   -0.198804
[...]
198:   2899.45   0.019607   99.09  0.002110  ( 0.022589 -0.011572 -0.038290)
199:   2903.94   0.017542   88.65  0.001885  ( 0.028463 -0.028493 -0.016221)
200:   2904.54   0.004406   22.26  0.000473  (-0.010693  0.015349  0.011109)
201:   2905.01   0.025694  129.85  0.002760  (-0.030179  0.041967  0.009387)
202:   2905.39   0.055534  280.64  0.005965  ( 0.004014  0.041650 -0.064915)
203:   2906.52   0.008479   42.85  0.000910  ( 0.017823 -0.022798 -0.008540)

* The epsilon (eps) is given for a Dirac delta lineshape.
** The dipole moment derivative (T) already includes vibrational overlap.

The first frequency considered to be a vibration is 7
The total number of vibrations considered is 197


--------------------------
THERMOCHEMISTRY AT 298.15K
--------------------------

Temperature         ...   298.15 K
Pressure            ...     1.00 atm
Total Mass          ...  1243.53 AMU
Quasi RRHO          ...     True
Cut-Off Frequency   ...     1.00 cm^-1

Throughout the following assumptions are being made:
  (1) The electronic state is orbitally nondegenerate
  (2) There are no thermally accessible electronically excited states
  (3) Hindered rotations indicated by low frequency modes are not
      treated as such but are treated as vibrations and this may
      cause some error
  (4) All equations used are the standard statistical mechanics
      equations for an ideal gas
  (5) All vibrations are strictly harmonic

freq.       4.13  E(vib)   ...       0.59 
freq.      17.30  E(vib)   ...       0.57 
freq.      34.90  E(vib)   ...       0.54 
freq.      40.35  E(vib)   ...       0.54 
freq.      45.79  E(vib)   ...       0.53 
freq.      54.11  E(vib)   ...       0.52 
freq.      57.72  E(vib)   ...       0.51 
freq.      61.03  E(vib)   ...       0.51 
freq.      63.43  E(vib)   ...       0.51 
freq.      66.32  E(vib)   ...       0.50 
freq.      73.14  E(vib)   ...       0.49 
freq.      81.14  E(vib)   ...       0.48 
freq.      82.20  E(vib)   ...       0.48 
freq.      95.91  E(vib)   ...       0.47 
freq.      97.63  E(vib)   ...       0.46 
freq.      98.67  E(vib)   ...       0.46 
freq.     101.11  E(vib)   ...       0.46 
freq.     105.14  E(vib)   ...       0.45 
freq.     105.87  E(vib)   ...       0.45 
freq.     110.77  E(vib)   ...       0.45 
freq.     111.72  E(vib)   ...       0.45 
freq.     116.03  E(vib)   ...       0.44 
freq.     123.26  E(vib)   ...       0.43 
freq.     130.51  E(vib)   ...       0.43 
freq.     138.20  E(vib)   ...       0.42 
freq.     150.50  E(vib)   ...       0.40 
freq.     151.14  E(vib)   ...       0.40 
freq.     151.73  E(vib)   ...       0.40 
freq.     152.84  E(vib)   ...       0.40 
freq.     157.48  E(vib)   ...       0.40 
freq.     158.67  E(vib)   ...       0.39 
freq.     160.90  E(vib)   ...       0.39 
freq.     161.78  E(vib)   ...       0.39 
freq.     163.76  E(vib)   ...       0.39 
freq.     166.63  E(vib)   ...       0.39 
freq.     169.74  E(vib)   ...       0.38 
freq.     173.11  E(vib)   ...       0.38 
freq.     174.36  E(vib)   ...       0.38 
freq.     187.21  E(vib)   ...       0.36 
freq.     188.14  E(vib)   ...       0.36 
freq.     189.54  E(vib)   ...       0.36 
freq.     191.26  E(vib)   ...       0.36 
freq.     193.25  E(vib)   ...       0.36 
freq.     195.72  E(vib)   ...       0.36 
freq.     206.28  E(vib)   ...       0.35 
freq.     209.56  E(vib)   ...       0.34 
freq.     211.86  E(vib)   ...       0.34 
freq.     212.84  E(vib)   ...       0.34 
freq.     220.36  E(vib)   ...       0.33 
freq.     227.04  E(vib)   ...       0.33 
freq.     228.92  E(vib)   ...       0.32 
freq.     231.45  E(vib)   ...       0.32 
freq.     234.47  E(vib)   ...       0.32 
freq.     244.59  E(vib)   ...       0.31 
freq.     261.52  E(vib)   ...       0.30 
freq.     263.54  E(vib)   ...       0.29 
freq.     264.12  E(vib)   ...       0.29 
freq.     264.90  E(vib)   ...       0.29 
freq.     266.18  E(vib)   ...       0.29 
freq.     268.79  E(vib)   ...       0.29 
freq.     269.84  E(vib)   ...       0.29 
freq.     273.62  E(vib)   ...       0.29 
freq.     274.22  E(vib)   ...       0.28 
freq.     276.56  E(vib)   ...       0.28 
freq.     277.61  E(vib)   ...       0.28 
freq.     278.45  E(vib)   ...       0.28 
freq.     282.94  E(vib)   ...       0.28 
freq.     285.40  E(vib)   ...       0.28 
freq.     290.04  E(vib)   ...       0.27 
freq.     290.67  E(vib)   ...       0.27 
freq.     294.20  E(vib)   ...       0.27 
freq.     297.03  E(vib)   ...       0.27 
freq.     304.87  E(vib)   ...       0.26 
freq.     306.28  E(vib)   ...       0.26 
freq.     309.84  E(vib)   ...       0.26 
freq.     311.49  E(vib)   ...       0.25 
freq.     312.11  E(vib)   ...       0.25 
freq.     316.09  E(vib)   ...       0.25 
freq.     317.92  E(vib)   ...       0.25 
freq.     319.67  E(vib)   ...       0.25 
freq.     325.54  E(vib)   ...       0.24 
freq.     326.19  E(vib)   ...       0.24 
freq.     328.18  E(vib)   ...       0.24 
freq.     340.86  E(vib)   ...       0.23 
freq.     342.84  E(vib)   ...       0.23 
freq.     352.88  E(vib)   ...       0.22 
freq.     353.17  E(vib)   ...       0.22 
freq.     358.38  E(vib)   ...       0.22 
freq.     366.71  E(vib)   ...       0.22 
freq.     371.13  E(vib)   ...       0.21 
freq.     390.22  E(vib)   ...       0.20 
freq.     395.02  E(vib)   ...       0.20 
freq.     399.38  E(vib)   ...       0.19 
freq.     403.73  E(vib)   ...       0.19 
freq.     404.25  E(vib)   ...       0.19 
freq.     406.15  E(vib)   ...       0.19 
freq.     418.43  E(vib)   ...       0.18 
freq.     419.47  E(vib)   ...       0.18 
freq.     421.39  E(vib)   ...       0.18 
freq.     422.13  E(vib)   ...       0.18 
freq.     458.19  E(vib)   ...       0.16 
freq.     460.89  E(vib)   ...       0.16 
freq.     478.28  E(vib)   ...       0.15 
freq.     479.35  E(vib)   ...       0.15 
freq.     482.16  E(vib)   ...       0.15 
freq.     526.13  E(vib)   ...       0.13 
freq.     540.68  E(vib)   ...       0.12 
freq.     596.20  E(vib)   ...       0.10 
freq.     626.95  E(vib)   ...       0.09 
freq.     666.10  E(vib)   ...       0.08 
freq.     682.15  E(vib)   ...       0.08 
freq.     684.20  E(vib)   ...       0.07 
freq.     688.00  E(vib)   ...       0.07 
freq.     691.29  E(vib)   ...       0.07 
freq.     709.11  E(vib)   ...       0.07 
freq.     715.05  E(vib)   ...       0.07 
freq.     735.34  E(vib)   ...       0.06 
freq.     735.71  E(vib)   ...       0.06 
freq.     736.16  E(vib)   ...       0.06 
freq.     736.28  E(vib)   ...       0.06 
freq.     736.84  E(vib)   ...       0.06 
freq.     738.59  E(vib)   ...       0.06 
freq.     738.94  E(vib)   ...       0.06 
freq.     739.35  E(vib)   ...       0.06 
freq.     739.71  E(vib)   ...       0.06 
freq.     740.15  E(vib)   ...       0.06 
freq.     741.26  E(vib)   ...       0.06 
freq.     741.76  E(vib)   ...       0.06 
freq.     793.50  E(vib)   ...       0.05 
freq.    1000.10  E(vib)   ...       0.02 
freq.    1000.15  E(vib)   ...       0.02 
freq.    1000.48  E(vib)   ...       0.02 
freq.    1000.54  E(vib)   ...       0.02 
freq.    1002.08  E(vib)   ...       0.02 
freq.    1002.19  E(vib)   ...       0.02 
freq.    1003.68  E(vib)   ...       0.02 
freq.    1004.36  E(vib)   ...       0.02 
freq.    1005.15  E(vib)   ...       0.02 
freq.    1005.64  E(vib)   ...       0.02 
freq.    1005.94  E(vib)   ...       0.02 
freq.    1006.34  E(vib)   ...       0.02 
freq.    1262.64  E(vib)   ...       0.01 
freq.    1343.12  E(vib)   ...       0.01 
freq.    1347.34  E(vib)   ...       0.01 
freq.    1348.31  E(vib)   ...       0.01 
freq.    1349.15  E(vib)   ...       0.01 
freq.    1349.94  E(vib)   ...       0.01 
freq.    1350.60  E(vib)   ...       0.01 
freq.    1351.47  E(vib)   ...       0.01 
freq.    1354.64  E(vib)   ...       0.01 
freq.    1355.17  E(vib)   ...       0.01 
freq.    1355.29  E(vib)   ...       0.01 
freq.    1356.23  E(vib)   ...       0.01 
freq.    1356.45  E(vib)   ...       0.01 
freq.    1357.19  E(vib)   ...       0.01 
freq.    1362.73  E(vib)   ...       0.01 
freq.    1362.97  E(vib)   ...       0.01 
freq.    1362.97  E(vib)   ...       0.01 
freq.    1363.11  E(vib)   ...       0.01 
freq.    1364.84  E(vib)   ...       0.01 
freq.    1365.21  E(vib)   ...       0.01 
freq.    1365.88  E(vib)   ...       0.01 
freq.    1367.55  E(vib)   ...       0.01 
freq.    1367.92  E(vib)   ...       0.01 
freq.    1371.73  E(vib)   ...       0.01 
freq.    1372.11  E(vib)   ...       0.01 
freq.    1380.10  E(vib)   ...       0.01 
freq.    1404.26  E(vib)   ...       0.00 
freq.    1475.21  E(vib)   ...       0.00 
freq.    1543.07  E(vib)   ...       0.00 
freq.    1552.42  E(vib)   ...       0.00 
freq.    1563.82  E(vib)   ...       0.00 
freq.    1565.22  E(vib)   ...       0.00 
freq.    1570.22  E(vib)   ...       0.00 
freq.    1576.61  E(vib)   ...       0.00 
freq.    1578.08  E(vib)   ...       0.00 
freq.    1630.82  E(vib)   ...       0.00 
freq.    1631.75  E(vib)   ...       0.00 
freq.    1636.44  E(vib)   ...       0.00 
freq.    1637.04  E(vib)   ...       0.00 
freq.    1637.62  E(vib)   ...       0.00 
freq.    1885.59  E(vib)   ...       0.00 
freq.    1892.70  E(vib)   ...       0.00 
freq.    1920.97  E(vib)   ...       0.00 
freq.    1943.02  E(vib)   ...       0.00 
freq.    2881.99  E(vib)   ...       0.00 
freq.    2887.02  E(vib)   ...       0.00 
freq.    2887.89  E(vib)   ...       0.00 
freq.    2888.19  E(vib)   ...       0.00 
freq.    2888.71  E(vib)   ...       0.00 
freq.    2890.67  E(vib)   ...       0.00 
freq.    2899.45  E(vib)   ...       0.00 
freq.    2903.94  E(vib)   ...       0.00 
freq.    2904.54  E(vib)   ...       0.00 
freq.    2905.01  E(vib)   ...       0.00 
freq.    2905.39  E(vib)   ...       0.00 
freq.    2906.52  E(vib)   ...       0.00 

------------
INNER ENERGY
------------

The inner energy is: U= E(el) + E(ZPE) + E(vib) + E(rot) + E(trans)
    E(el)   - is the total energy from the electronic structure calculation
              = E(kin-el) + E(nuc-el) + E(el-el) + E(nuc-nuc)
    E(ZPE)  - the the zero temperature vibrational energy from the frequency calculation
    E(vib)  - the the finite temperature correction to E(ZPE) due to population
              of excited vibrational states
    E(rot)  - is the rotational thermal energy
    E(trans)- is the translational thermal energy

Summary of contributions to the inner energy U:
Electronic energy                ...  -3488.52445189 Eh
Zero point energy                ...      0.34928698 Eh     219.18 kcal/mol
Thermal vibrational correction   ...      0.05895636 Eh      37.00 kcal/mol
Thermal rotational correction    ...      0.00141627 Eh       0.89 kcal/mol
Thermal translational correction ...      0.00141627 Eh       0.89 kcal/mol
-----------------------------------------------------------------------
Total thermal energy                  -3488.11337601 Eh


Summary of corrections to the electronic energy:
(perhaps to be used in another calculation)
Total thermal correction                  0.06178891 Eh      38.77 kcal/mol
Non-thermal (ZPE) correction              0.34928698 Eh     219.18 kcal/mol
-----------------------------------------------------------------------
Total correction                          0.41107588 Eh     257.95 kcal/mol


--------
ENTHALPY
--------

The enthalpy is H = U + kB*T
                kB is Boltzmann's constant
Total thermal energy              ...  -3488.11337601 Eh 
Thermal Enthalpy correction       ...      0.00094421 Eh       0.59 kcal/mol
-----------------------------------------------------------------------
Total Enthalpy                    ...  -3488.11243180 Eh


Note: Only C1 symmetry has been detected, increase convergence thresholds 
      if your molecule has a higher symmetry. Symmetry factor of 1.0 is   
      used for the rotational entropy correction. 
 

Note: Rotational entropy computed according to Herzberg 
Infrared and Raman Spectra, Chapter V,1, Van Nostrand Reinhold, 1945 
Point Group:  C1, Symmetry Number:   1  
Rotational constants in cm-1:     0.001842     0.001419     0.001369 

Vibrational entropy computed according to the QRRHO of S. Grimme
Chem.Eur.J. 2012 18 9955 using a reference frequency of 100.0 cm-1


-------
ENTROPY
-------

The entropy contributions are T*S = T*(S(el)+S(vib)+S(rot)+S(trans))
     S(el)   - electronic entropy
     S(vib)  - vibrational entropy
     S(rot)  - rotational entropy
     S(trans)- translational entropy
The entropies will be listed as multiplied by the temperature to get
units of energy

Electronic entropy                ...      0.00000000 Eh      0.00 kcal/mol
Vibrational entropy               ...      0.10678436 Eh     67.01 kcal/mol
Rotational entropy                ...      0.01869223 Eh     11.73 kcal/mol
Translational entropy             ...      0.02244101 Eh     14.08 kcal/mol
-----------------------------------------------------------------------
Final entropy term                ...      0.14791761 Eh     92.82 kcal/mol

In case the symmetry of your molecule has not been determined correctly
or in case you have a reason to use a different symmetry number we print 
out the resulting rotational entropy values for sn=1,12:

 non-linear molecules -----------------------------------
|  sn= 1 | S(rot)=       0.01869223 Eh     11.73 kcal/mol|
|  sn= 2 | S(rot)=       0.01803778 Eh     11.32 kcal/mol|
|  sn= 3 | S(rot)=       0.01765495 Eh     11.08 kcal/mol|
|  sn= 4 | S(rot)=       0.01738332 Eh     10.91 kcal/mol|
|  sn= 5 | S(rot)=       0.01717263 Eh     10.78 kcal/mol|
|  sn= 6 | S(rot)=       0.01700049 Eh     10.67 kcal/mol|
|  sn= 7 | S(rot)=       0.01685494 Eh     10.58 kcal/mol|
|  sn= 8 | S(rot)=       0.01672887 Eh     10.50 kcal/mol|
|  sn= 9 | S(rot)=       0.01661766 Eh     10.43 kcal/mol|
|  sn=10 | S(rot)=       0.01651818 Eh     10.37 kcal/mol|
|  sn=11 | S(rot)=       0.01642819 Eh     10.31 kcal/mol|
|  sn=12 | S(rot)=       0.01634603 Eh     10.26 kcal/mol|
 linear molecules ---------------------------------------
|  Dinfh | S(rot)=       0.01155165 Eh      7.25 kcal/mol|
|  Cinfv | S(rot)=       0.01220611 Eh      7.66 kcal/mol|
 --------------------------------------------------------


-------------------
GIBBS FREE ENERGY
-------------------

The Gibbs free energy is G = H - T*S

Total enthalpy                    ...  -3488.11243180 Eh 
Total entropy correction          ...     -0.14791761 Eh    -92.82 kcal/mol
-----------------------------------------------------------------------
Final Gibbs free energy         ...  -3488.26034941 Eh

For completeness - the Gibbs free energy minus the electronic energy
G-E(el)                           ...      0.26410248 Eh    165.73 kcal/mol


Maximum memory used throughout the entire PROP-calculation: 138.5 MB

--------------------------------
SUGGESTED CITATIONS FOR THIS RUN
--------------------------------

Below you find a list of papers that are relevant to this ORCA run
We neither can nor want to force you to cite these papers, but we appreciate if you do
You receive ORCA, which is the product of decades of hard work by many enthusiastic individuals, for free
The only thing we kindly ask in return is that you cite our papers,
We deeply appreciate it, if you show your appreciation for ORCA by not just citing the generic ORCA reference.

Please note that relegating all ORCA citations to the supporting information does *not* help us.
SI sections are not indexed - citations you put there will not count into any citation statistics
But we need these citations in order to attract the funding resources that allow us to do what we are doing

Therefore, if you are a happy ORCA user, please consider citing a few of the papers listed below in the main body of your paper

In addition to the list printed below, the program has created the file run.bibtex that contains the list in bibtex format
You can import this file easily into all common literature databanks and citation aid programs


List of essential papers. We consider these as the minimum necessary citations

  1. Neese, F.
     Software update: the ORCA program system, version 6.0
     WIRES Comput. Molec. Sci. 2025 15(1), e70019
     doi.org/10.1002/wcms.7019

List of papers to cite with high priority. The work reported in these papers was absolutely
necessary for this run to complete.
Our perspective: the developers of density functionals and basis sets usually get cited in chemistry papers
Good! But without the algorithms to do something with them, the functionals or basis sets would not do anything.
Hence, in our opinion, the algorithm design and method developments papers are equally worthy of getting cited

  1. Neese, F.
     An improvement of the resolution of the identity approximation for the formation of the Coulomb matrix
     J. Comp. Chem. 2003 24(14), 1740-1747
     doi.org/10.1002/jcc.10318
  2. Grimme, S.; Antony, J.; Ehrlich, S.; Krieg, H.
     A consistent and accurate ab initio parametrization of density functional dispersion correction (DFT-D) for the 94 elements H-Pu
     J. Chem. Phys. 2010 132 , 154104
     doi.org/10.1063/1.3382344
  3. Grimme, S.; Ehrlich, S.; Goerigk, L.
     Effect of the damping function in dispersion corrected density functional theory
     J. Comput. Chem. 2011 32(7), 1456-1465
     doi.org/10.1002/jcc.21759
  4. Bykov, D.; Petrenko, T.; Izsak, R.; Kossmann, S.; Becker, U.; Valeev, E.; Neese, F.
     Efficient implementation of the analytic second derivatives of Hartree-Fock and hybrid DFT energies: a detailed analysis of different approximations
     Molec. Phys. 2015 113 , 1961-1977
     doi.org/10.1080/00268976.2015.1025114
  5. Helmich-Paris, B.
     A trust-region augmented Hessian implementation for restricted and unrestricted Hartree–Fock and Kohn–Sham methods
     J. Chem. Phys. 2021 154 , 164104
     doi.org/10.1063/5.0040798
  6. Neese, F.
     The SHARK Integral Generation and Digestion System
     J. Comp. Chem. 2022 44(3), 381
     doi.org/10.1002/jcc.26942

List of suggested additional citations. These are papers that are important in the 'surrounding' of 
of this run, or papers that preceded the highly important papers. If you like your results we are grateful for a citation.

  1. Neese, F.
     The ORCA program system
     WIRES Comput. Molec. Sci. 2012 2(1), 73-78
     doi.org/10.1002/wcms.81
  2. Neese, F.
     Software update: the ORCA program system, version 4.0
     WIRES Comput. Molec. Sci. 2018 8(1), 1-6
     doi.org/10.1002/wcms.1327
  3. Neese, F.; Wennmohs, F.; Becker, U.; Riplinger, C.
     The ORCA quantum chemistry program package
     J. Chem. Phys. 2020 152(22), 224108
     doi.org/10.1063/5.0004608
  4. Neese, F.
     Software update: The ORCA program system—Version 5.0
     WIRES Comput. Molec. Sci. 2022 12(1), e1606
     doi.org/10.1002/wcms.1606

List of optional additional citations

  1. Neese, F.
     Approximate second-order SCF convergence for spin unrestricted wavefunctions
     Chem. Phys. Lett. 2000 325(1-3), 93-98
     doi.org/10.1016/s0009-2614(00)00662-x

Timings for individual modules:

Sum of individual times          ...     6719.179 sec (= 111.986 min)
Startup calculation              ...      263.882 sec (=   4.398 min)   3.9 %
SCF iterations                   ...     1951.632 sec (=  32.527 min)  29.0 %
Property integrals               ...     1379.656 sec (=  22.994 min)  20.5 %
SCF Response                     ...     1170.374 sec (=  19.506 min)  17.4 %
Property calculations            ...     1244.788 sec (=  20.746 min)  18.5 %
SCF Gradient evaluation          ...      683.784 sec (=  11.396 min)  10.2 %
Geometry relaxation              ...       25.064 sec (=   0.418 min)   0.4 %
                             ****ORCA TERMINATED NORMALLY****
TOTAL RUN TIME: 0 days 1 hours 52 minutes 18 seconds 320 msec
