
                                 *****************
                                 * O   R   C   A *
                                 *****************

                                            #,                                       
                                            ###                                      
                                            ####                                     
                                            #####                                    
                                            ######                                   
                                           ########,                                 
                                     ,,################,,,,,                         
                               ,,#################################,,                 
                          ,,##########################################,,             
                       ,#########################################, ''#####,          
                    ,#############################################,,   '####,        
                  ,##################################################,,,,####,       
                ,###########''''           ''''###############################       
              ,#####''   ,,,,##########,,,,          '''####'''          '####       
            ,##' ,,,,###########################,,,                        '##       
           ' ,,###''''                  '''############,,,                           
         ,,##''                                '''############,,,,        ,,,,,,###''
      ,#''                                            '''#######################'''  
     '                                                          ''''####''''         
             ,#######,   #######,   ,#######,      ##                                
            ,#'     '#,  ##    ##  ,#'     '#,    #''#        ,####,    ,#,          
            ##       ##  ##   ,#'  ##            #'  '#       #'       ,# #          
            ##       ##  #######   ##           ,######,      #####,      #          
            '#,     ,#'  ##    ##  '#,     ,#' ,#      #,     #,   #      #          
             '#######'   ##     ##  '#######'  #'      '#     '####' #    #          



                #########################################################
                #                        -***-                          #
                #          Department of theory and spectroscopy        #
                #                                                       #
                #                      Frank Neese                      #
                #                                                       #
                #     Directorship, Architecture, Infrastructure        #
                #                    SHARK, DRIVERS                     #
                #        Core code/Algorithms in most modules           #
                #                                                       #
                #        Max Planck Institute fuer Kohlenforschung      #
                #                Kaiser Wilhelm Platz 1                 #
                #                 D-45470 Muelheim/Ruhr                 #
                #                      Germany                          #
                #                                                       #
                #                  All rights reserved                  #
                #                        -***-                          #
                #########################################################


                         Program Version 6.1.0  -  RELEASE   -
                                (GIT: $679e74b$)
                          ($2025-06-10 18:02:51 +0200$)


 With contributions from (in alphabetic order):
[Max-Planck-Institut fuer Kohlenforschung]                               
  Daniel Aravena         : Magnetic Suceptibility                        
  Michael Atanasov       : Ab Initio Ligand Field Theory (pilot matlab implementation)
  Alexander A. Auer      : GIAO ZORA, VPT2 properties, NMR spectrum      
  Ute Becker             : All parallelization in ORCA, NUMFREQ, NUMCALC 
  Giovanni Bistoni       : ED, misc. LED, open-shell LED, HFLD           
  Dmytro Bykov           : pre 5.0 version of the SCF Hessian            
  Marcos Casanova-Páez   : Triplet and SCS-CIS(D). UHF-(DLPNO)-IP/EA/STEOM-CCSD. UHF-CVS-IP/STEOM-CCSD   
  Vijay G. Chilkuri      : MRCI spin determinant printing, contributions to CSF-ICE 
  Pauline Colinet        : FMM embedding                                 
  Dipayan Datta          : RHF DLPNO-CCSD density                        
  Achintya Kumar Dutta   : EOM-CC, STEOM-CC                              
  Nicolas Foglia         : Exact transition moments, OPA infrastructure, MCD improvements    
  Dmitry Ganyushin       : Spin-Orbit,Spin-Spin,Magnetic field MRCI      
  Miquel Garcia-Rates    : C-PCM and meta-GGA Hessian, CCSD/C-PCM, Gaussian charge scheme 
  Tiago L. C. Gouveia    : GS-ROHF, GS-ROCIS                             
  Yang Guo               : DLPNO-NEVPT2, F12-NEVPT2, CIM, IAO-localization        
  Andreas Hansen         : Spin unrestricted coupled pair/coupled cluster methods 
  Ingolf Harden          : AUTO-CI MPn and infrastructure                
  Benjamin Helmich-Paris : MC-RPA, TRAH-(SCF,CASSCF), AVAS, COSX integrals, SCF dyn. polar., MC-PDFT, srDFT 
  Lee Huntington         : MR-EOM, pCC                                   
  Robert Izsak           : Overlap fitted RIJCOSX, COSX-SCS-MP3, EOM     
  Riya Kayal             : Wick's Theorem for AUTO-CI, AUTO-CI UHF-CCSDT 
  Emily Kempfer          : AUTO-CI RHF CISDT and CCSDT, approximate NEVPT4
  Christian Kollmar      : KDIIS, OOCD, Brueckner-CCSD(T), CCSD density, CASPT2, CASPT2-K, improved NEVPT2 
  Axel Koslowski         : Symmetry handling                             
  Simone Kossmann        : meta-GGA functionals, TD-DFT gradient, OOMP2, (MP2 Hessian; deprecated post 5.0) 
  Lucas Lang             : DCDCAS, Hyperfine gauge corrections, ICE-SOC+SSC
  Marvin Lechner         : AUTO-CI (C++ implementation), FIC-MRCC        
  Spencer Leger          : CASSCF response                               
  Dagmar Lenk            : GEPOL surface, SMD, ORCA-2-JSON               
  Dimitrios Liakos       : Extrapolation schemes; Compound Job, Property file
  Dimitrios Manganas     : Further ROCIS development; embedding schemes. LFT, Crystal Embedding 
  Dimitrios Pantazis     : SARC Basis sets                               
  Anastasios Papadopoulos: AUTO-CI, single reference methods and gradients 
  Taras Petrenko         : pre 6.0 DFT Hessian and TD-DFT gradient,  ECA, NRVS 
  Petra Pikulova         : Analytic Raman intensities                    
  Peter Pinski           : DLPNO-MP2, DLPNO-MP2 Gradient                 
  Shashank Vittal Rao    : ES-AILFT, MagRelax                            
  Christoph Reimann      : Effective Core Potentials                     
  Marius Retegan         : Local ZFS, SOC                                
  Christoph Riplinger    : Optimizer, TS searches, QM/MM, DLPNO-CCSD(T), (RO)-DLPNO pert. Triples 
  Michael Roemelt        : Original ROCIS implementation, recursive CI coupling coefficients
  Masaaki Saitow         : Open-shell DLPNO-CCSD energy and density      
  Barbara Sandhoefer     : DKH picture change effects                    
  Yorick L. A. Schmerwitz: GMF and freeze-and-release deltaSCF, NEB S-IDPP initial path                    
  Kantharuban Sivalingam : CASSCF convergence/infrastructure, NEVPT2, NEVPT3, NEVPT4(SD), FIC-MRCI and CEPA variants
  Bernardo de Souza      : ESD, SOC TD-DFT                               
  Georgi L. Stoychev     : AutoAux, RI-MP2 NMR, DLPNO-MP2 response, X2C  
  Van Anh Tran           : RI-MP2 g-tensors                              
  Willem Van den Heuvel  : Paramagnetic NMR                              
  Zikuan Wang            : NOTCH, Electric field optimization            
  Frank Wennmohs         : Technical directorship and infrastructure     
  Hang Xu                : AUTO-CI-Response properties                   
                                                                         
[FACCTs GmbH]                                                            
  Markus Bursch, Nicolas Foglia, Miquel Garcia-Rates, Ingolf Harden, Hagen Neugebauer, Anastasios Papadopoulos, 
  Christoph Riplinger, Bernardo de Souza, Georgi L. Stoychev                                                    
                                                                 
  APM, various basis sets, CI-OPT, improved COSX, DLPNO-Multilevel,           
  DOCKER, DRACO, updates on ESD, Fragmentator, GOAT, IRC, LR-CPCM, L-BFGS, MBIS, meta-GGA TD-DFT gradient, ML-optimized integration grids, 
  MM, NACMEs, nearIR, NEB, NEB-TS, NL-DFT gradient (VV10), 2- and 3-layer-ONIOM, interface openCOSMO-RS, QMMM,   
  Crystal-QMMM, RESP, rigid body optimization, SF, symmetry and pop. for TD-DFT, various functionals, SOLVATOR                                   
                                                                         
[Other institutions]                                                     
  V. Asgeirsson          : NEB                                           
  Christoph Bannwarth    : sTDA-DFT, sTD-DFT, PBEh-3c, B97-3c, D3        
  Giovanni Bistoni       : ETS/NOCV, ADLD/ADEX, COVALED                  
  Martin Brehm           : Molecular dynamics                            
  Ronald Cardenas        : ETS/NOCV                                      
  Martina Colucci        : COVALED                                       
  Sebastian Ehlert       : rSCAN, r2SCAN, r2SCAN-3c, D4, dhf basis sets  
  Marvin Friede          : D4 for Fr, Ra, Ac-Lr                          
  Lars Goerigk           : TD-DFT with DH, B97 family of functionals     
  Stefan Grimme          : VdW corrections, initial TS optimization, DFT functionals, gCP, sTDA/sTD-DF 
  Waldemar Hujo          : DFT-NL                                        
  H. Jonsson             : NEB                                           
  Holger Kruse           : gCP                                           
  Marcel Mueller         : wB97X-3c, vDZP basis set                      
  Hagen Neugebauer       : wr2SCAN, Native XTB                           
  Gianluca Regni         : ADLD/ADEX                                     
  Tobias Risthaus        : pre 6.0 range-separated hybrid DFT and stability analysis
  Lukas Wittmann         : regularized MP2, r2SCAN double-hybrids, wr2SCAN        
                                                                         
We gratefully acknowledge several colleagues who have allowed us to      
interface, adapt or use parts of their codes:                            
  Ed Valeev, F. Pavosevic, A. Kumar             : LibInt (2-el integral package), F12 methods 
  Garnet Chan, S. Sharma, J. Yang, R. Olivares  : DMRG                   
  Ulf Ekstrom                                   : XCFun DFT Library      
  Mihaly Kallay                                 : mrcc  (arbitrary order and MRCC methods)
  Frank Weinhold                                : gennbo (NPA and NBO analysis)           
  Simon Mueller                                 : openCOSMO-RS                            
  Christopher J. Cramer and Donald G. Truhlar   : smd solvation model                     
  S Lehtola, MJT Oliveira, MAL Marques          : LibXC Library                           
  Liviu Ungur et al                             : ANISO software                          


 Your calculation uses the libint2 library for the computation of 2-el integrals
 For citations please refer to: http://libint.valeyev.net

 Your ORCA version has been built with support for libXC version: 7.0.0
 For citations please refer to: https://libxc.gitlab.io

 This ORCA versions uses:
   CBLAS   interface :  Fast vector & matrix operations
   LAPACKE interface :  Fast linear algebra routines
   SCALAPACK package :  Parallel linear algebra routines
   Shared memory     :  Shared parallel matrices
   BLAS/LAPACK       :  OpenBLAS 0.3.29  USE64BITINT DYNAMIC_ARCH NO_AFFINITY Prescott SINGLE_THREADED
        Core in use  :  Prescott
   Copyright (c) 2011-2014, The OpenBLAS Project


  ***********************************
  * Starting time: Fri Aug  8 17:36:22 2025
  * Host name:     cuda2
  * Process ID:    124878
  * Working dir.:  /local/scratch/mehlhorn/61808
  ***********************************



***************************************
The coordinates will be read from file: start.xyz
***************************************


Your calculation utilizes the geometrical counterpoise correction gCP
Please cite in your paper:
H.Kruse, S. Grimme J.Chem.Phys., 136, (2012), 154101 
   

Your calculation utilizes the atom-pairwise dispersion correction
with the Becke-Johnson damping scheme (D3BJ)


Warning: RI is on but no J-basis has been assigned. Assigning Def2/J (nothing to worry about!)
================================================================================

cite the ECPs for Zr [Def2-ECP] as follows:
Ce-Yb(ecp-28): M. Dolg, H. Stoll, H.Preuss, J. Chem. Phys., 1989, 90, 1730-1734.
Y-Cd(ecp-28), Hf-Hg(ecp-46): D. Andrae,U. Haeussermann, M. Dolg, H. Stoll, H. Preuss, Theor. Chim. Acta, 1990, 77, 123-141.
In-Sb(ecp-28), Tl-Bi(ecp-46): B. Metz, H. Stoll, M. Dolg, J. Chem. Phys., 2000, 113, 2563-2569.
Te-Xe(ecp-28), Po-Rn(ecp-46): K. A. Peterson, D. Figgen, E. Goll, H. Stoll, M. Dolg, J. Chem. Phys., 2003, 119, 11113-11123.
Rb(ecp-28), Cs(ecp-46): T. Leininger, A. Nicklass, W. Kuechle, H. Stoll, M. Dolg, A. Bergner, Chem. Phys. Lett., 1996, 255, 274-280.
Sr(ecp-28), Ba(ecp-46): M. Kaupp, P. V. Schleyer, H. Stoll and H. Preuss, J. Chem. Phys., 1991, 94, 1360-1366.
La(ecp-46): M. Dolg, H. Stoll, A. Savin, H. Preuss, Theor. Chim. Acta, 1989, 75, 173-194.
Lu(ecp-28): X. Cao, M. Dolg, J. Chem. Phys., 2001, 115, 7348-7355.

ECP parameters for Zr [Def2-ECP] have been obtained from:
TURBOMOLE (7.0.2)

----- Orbital basis set information -----
Your calculation utilizes the basis: def2-SV(P)
   F. Weigend and R. Ahlrichs, Phys. Chem. Chem. Phys. 7, 3297 (2005).

----- AuxJ basis set information -----
Your calculation utilizes the auxiliary basis: def2/J
   H-Rn: F. Weigend, Phys. Chem. Chem. Phys. 8, 1057 (2006).
   Fr-Lr: K. Eichkorn, F. Weigend, O. Treutler, R. Ahlrichs; Theor. Chem. Acc. 97, 119 (1997).

================================================================================
                                        WARNINGS
                       Please study these warnings very carefully!
================================================================================


WARNING: Gradients are needed
  ===> : At least TightSCF should be used for SCF convergence

WARNING: Geometry Optimization
  ===> : Switching off AutoStart
         For restart on a previous wavefunction, please use MOREAD

================================================================================
                                       INPUT FILE
================================================================================
NAME = run.inp
|  1> # Geometry optimization for (AlH3)n cluster
|  2> 
|  3> %pal nprocs 24  end
|  4> 
|  5> %geom MaxIter 500 end
|  6> 
|  7> 
|  8> ! PBE def2-SV(P)
|  9> ! RKS	# closed shell for AlH3
| 10> ! D3    #  dispersion correction
| 11> ! gCP(DFT/SV(P))
| 12> ! Freq 	# Frequency analysis to check the stabiltity of the structures
| 13> 
| 14> ! NoPop # population analysis not necessary	
| 15> 
| 16> ! DEFGRID2
| 17> ! NormalSCF
| 18> ! SloppyOpt
| 19> 
| 20> ! SmallPrint
| 21> 
| 22> 
| 23> * xyzFile 0 1 start.xyz # only maingroup elements H and Al so there should be no net spin
| 24> 
| 25>                          ****END OF INPUT****
================================================================================

                       *****************************
                       * Geometry Optimization Run *
                       *****************************

Geometry optimization settings:
Update method            Update   .... BFGS
Choice of coordinates    CoordSys .... (2022) Redundant Internals
Initial Hessian          InHess   .... Almloef's Model
Max. no of cycles        MaxIter  .... 500

Convergence Tolerances:
Energy Change            TolE     ....  8.0000e-05 Eh
Max. Gradient            TolMAXG  ....  5.0000e-03 Eh/bohr
RMS Gradient             TolRMSG  ....  1.0000e-03 Eh/bohr
Max. Displacement        TolMAXD  ....  3.0000e-02 bohr
RMS Displacement         TolRMSD  ....  2.0000e-02 bohr
Strict Convergence                .... False

------------------------------------------------------------------------------
                        ORCA OPTIMIZATION COORDINATE SETUP
------------------------------------------------------------------------------

The optimization will be done in redundant internal coordinates (2022)
Making redundant internal coordinates   ...  (2022 redundants) done
Evaluating the initial hessian          ...  (Almloef) done
Evaluating the coordinates              ...  done
Calculating the B-matrix                .... done
Calculating the G-matrix                .... done
The number of degrees of freedom        ....  846

    -----------------------------------------------------------------
                    Redundant Internal Coordinates


    -----------------------------------------------------------------
         Definition                    Initial Value    Approx d2E/dq
    -----------------------------------------------------------------
      1. B(Zr  2,Zr  1)                  3.4322         0.035300   
      2. B(Zr  3,Zr  0)                  3.4303         0.035551   
      3. B(Zr  4,Zr  3)                  3.3878         0.041559   
      4. B(Zr  4,Zr  1)                  3.3726         0.043942   
      5. B(Zr  5,Zr  2)                  3.4158         0.037499   
      6. B(Zr  5,Zr  0)                  3.3822         0.042417   
      7. B(O   6,Zr  3)                  2.1126         0.398178   
      8. B(O   6,Zr  0)                  2.0826         0.444579   
      9. B(O   6,Zr  5)                  2.1624         0.331610   
     10. B(O   7,Zr  2)                  2.0963         0.422840   
     11. B(O   7,Zr  1)                  2.0830         0.443898   
     12. B(O   7,Zr  4)                  2.1492         0.348111   
     13. B(O   8,Zr  5)                  2.1742         0.317548   
     14. B(O   8,Zr  2)                  2.1443         0.354511   
     15. B(O   8,Zr  1)                  2.1627         0.331241   
     16. B(O   9,Zr  4)                  2.1707         0.321729   
     17. B(O   9,Zr  3)                  2.1408         0.359065   
     18. B(O   9,Zr  0)                  2.1584         0.336604   
     19. B(O  10,Zr  3)                  2.0673         0.470324   
     20. B(O  10,Zr  4)                  2.1164         0.392711   
     21. B(O  10,Zr  1)                  2.1159         0.393370   
     22. B(O  11,Zr  2)                  2.0811         0.447109   
     23. B(O  11,Zr  5)                  2.1103         0.401584   
     24. B(O  11,Zr  0)                  2.1251         0.380367   
     25. B(O  12,Zr  0)                  1.9904         0.623856   
     26. B(O  13,Zr  0)                  1.9930         0.617924   
     27. B(O  14,Zr  0)                  2.0690         0.467349   
     28. B(O  15,Zr  0)                  1.9883         0.628601   
     29. B(O  16,Zr  1)                  1.9835         0.639862   
     30. B(O  17,Zr  1)                  2.0753         0.456742   
     31. B(O  18,Zr  1)                  1.9881         0.629159   
     32. B(O  19,Zr  1)                  1.9951         0.613169   
     33. B(O  20,Zr  2)                  1.9706         0.670964   
     34. B(O  21,Zr  2)                  2.0629         0.478045   
     35. B(O  22,Zr  2)                  1.9860         0.634095   
     36. B(O  23,Zr  2)                  2.0600         0.483206   
     37. B(O  24,Zr  3)                  2.0472         0.506357   
     38. B(O  25,Zr  3)                  1.9852         0.635947   
     39. B(O  26,Zr  3)                  2.0596         0.483825   
     40. B(O  27,Zr  3)                  1.9768         0.655913   
     41. B(O  28,Zr  4)                  1.9754         0.659153   
     42. B(O  29,Zr  4)                  2.0269         0.545602   
     43. B(O  30,Zr  4)                  1.9885         0.628327   
     44. B(O  31,Zr  4)                  2.0675         0.469998   
     45. B(O  32,Zr  5)                  2.0708         0.464287   
     46. B(O  33,Zr  5)                  1.9860         0.633939   
     47. B(O  34,Zr  5)                  2.0292         0.541013   
     48. B(O  35,Zr  5)                  1.9786         0.651405   
     49. B(C  36,O  33)                  1.3016         0.774190   
     50. B(C  36,O  12)                  1.3009         0.776189   
     51. B(C  37,O  13)                  1.3019         0.773588   
     52. B(C  37,O  25)                  1.3018         0.773724   
     53. B(C  38,O  14)                  1.2967         0.788267   
     54. B(C  38,O  21)                  1.2973         0.786746   
     55. B(C  39,O  29)                  1.2955         0.791920   
     56. B(C  39,O  15)                  1.2947         0.794046   
     57. B(C  40,O  34)                  1.2955         0.791760   
     58. B(C  40,O  16)                  1.2953         0.792449   
     59. B(C  41,O  26)                  1.2969         0.787877   
     60. B(C  41,O  17)                  1.2967         0.788300   
     61. B(C  42,O  22)                  1.3013         0.775177   
     62. B(C  42,O  18)                  1.3012         0.775321   
     63. B(C  43,O  19)                  1.3014         0.774776   
     64. B(C  43,O  30)                  1.3022         0.772673   
     65. B(C  44,O  35)                  1.2983         0.783693   
     66. B(C  44,O  20)                  1.2982         0.784044   
     67. B(C  45,O  31)                  1.2983         0.783847   
     68. B(C  45,O  23)                  1.3006         0.777239   
     69. B(C  46,O  32)                  1.2984         0.783456   
     70. B(C  46,O  24)                  1.3003         0.777966   
     71. B(C  47,O  28)                  1.2984         0.783443   
     72. B(C  47,O  27)                  1.2985         0.783133   
     73. B(H  48,C  41)                  1.0846         0.367298   
     74. B(H  49,C  42)                  1.0914         0.358261   
     75. B(H  50,C  38)                  1.0849         0.366948   
     76. B(H  51,C  37)                  1.0917         0.357886   
     77. B(H  52,C  43)                  1.0923         0.357062   
     78. B(H  53,C  47)                  1.0899         0.360282   
     79. B(H  54,C  39)                  1.0859         0.365505   
     80. B(H  55,C  45)                  1.0869         0.364183   
     81. B(H  56,C  40)                  1.0863         0.365091   
     82. B(H  57,C  46)                  1.0870         0.364120   
     83. B(H  58,C  36)                  1.0920         0.357510   
     84. B(H  59,C  44)                  1.0898         0.360316   
     85. B(Al 61,Al 60)                  2.7292         0.224048   
     86. B(H  62,C  43)                  3.1274         0.010000   
     87. B(H  62,O  30)                  2.8159         0.010000   
     88. B(H  62,H  52)                  2.6620         0.010000   
     89. B(H  62,Al 61)                  1.6744         0.294825   
     90. B(H  63,C  47)                  3.1451         0.010000   
     91. B(H  63,H  53)                  3.1154         0.010000   
     92. B(H  63,O  28)                  2.8125         0.010000   
     93. B(H  63,O  30)                  2.6911         0.010000   
     94. B(H  63,Al 61)                  1.6098         0.373857   
     95. B(H  64,C  47)                  3.2648         0.010000   
     96. B(H  64,H  53)                  3.0144         0.010000   
     97. B(H  64,O  28)                  2.6122         0.010000   
     98. B(H  64,Al 61)                  1.6756         0.293533   
     99. B(H  64,Al 60)                  1.6736         0.295729   
    100. B(H  65,O  28)                  3.1237         0.010000   
    101. B(H  65,C  39)                  3.0386         0.010000   
    102. B(H  65,H  54)                  2.7972         0.010000   
    103. B(H  65,O  29)                  2.5226         0.010000   
    104. B(H  65,Al 60)                  1.6085         0.375633   
    105. B(H  66,O  31)                  2.7343         0.010000   
    106. B(H  66,Al 60)                  1.6760         0.293101   
    107. B(H  67,Al 61)                  1.6102         0.373319   
    108. B(Al 68,H  66)                  1.6765         0.292656   
    109. B(Al 68,H  62)                  1.6728         0.296610   
    110. B(Al 68,Al 61)                  2.7368         0.217867   
    111. B(Al 68,Al 60)                  2.7205         0.231278   
    112. B(H  69,Al 68)                  1.6108         0.372467   
    113. B(H  70,O  30)                  3.1785         0.010000   
    114. B(H  70,H  55)                  3.1584         0.010000   
    115. B(H  70,C  43)                  3.0496         0.010000   
    116. B(H  70,H  52)                  2.8523         0.010000   
    117. B(H  70,O  31)                  2.6184         0.010000   
    118. B(H  70,Al 68)                  1.6092         0.374665   
    119. B(H  71,Al 60)                  1.6108         0.372456   
    120. A(O  11,Zr  0,O  13)          157.8012         0.495983   
    121. A(Zr  5,Zr  0,O  12)           73.9255         0.366923   
    122. A(O   9,Zr  0,O  12)          141.2124         0.485735   
    123. A(O  12,Zr  0,O  13)           81.4341         0.544210   
    124. A(Zr  5,Zr  0,O  11)           36.8572         0.337478   
    125. A(O  12,Zr  0,O  15)          134.9111         0.545979   
    126. A(O  11,Zr  0,O  12)          101.0797         0.496864   
    127. A(Zr  5,Zr  0,O  13)          126.8528         0.366323   
    128. A(O  13,Zr  0,O  14)          131.8033         0.515402   
    129. A(O   6,Zr  0,O  14)          127.6796         0.484782   
    130. A(O  12,Zr  0,O  14)           80.5852         0.516325   
    131. A(Zr  3,Zr  0,O  11)           86.3767         0.327743   
    132. A(Zr  5,Zr  0,O  15)          143.1046         0.367400   
    133. A(O   6,Zr  0,O  15)          142.7205         0.512247   
    134. A(Zr  5,Zr  0,O  14)           89.7565         0.349335   
    135. A(O   9,Zr  0,O  13)           76.6883         0.484878   
    136. A(Zr  3,Zr  0,O   9)           36.8935         0.321229   
    137. A(O   6,Zr  0,O  11)           66.1866         0.466758   
    138. A(Zr  3,Zr  0,O  12)          105.6596         0.356034   
    139. A(O  11,Zr  0,O  14)           69.9863         0.471052   
    140. A(O   9,Zr  0,O  11)           88.5028         0.443703   
    141. A(O   6,Zr  0,O  13)           92.7411         0.510609   
    142. A(Zr  5,Zr  0,O   6)           38.0050         0.346408   
    143. A(O  14,Zr  0,O  15)           76.5593         0.517059   
    144. A(O   6,Zr  0,O   9)           68.4682         0.456450   
    145. A(O   9,Zr  0,O  14)          137.2181         0.460628   
    146. A(O   6,Zr  0,O  12)           81.1600         0.511522   
    147. A(O   9,Zr  0,O  15)           74.9623         0.486416   
    148. A(O  13,Zr  0,O  15)           85.6102         0.544992   
    149. A(Zr  3,Zr  0,Zr  5)           70.7914         0.251682   
    150. A(Zr  3,Zr  0,O  14)          156.3480         0.339135   
    151. A(Zr  3,Zr  0,O   6)           35.4389         0.336323   
    152. A(Zr  5,Zr  0,O   9)           94.2713         0.330698   
    153. A(Zr  3,Zr  0,O  13)           71.8260         0.355457   
    154. A(O  11,Zr  0,O  15)          106.6618         0.497564   
    155. A(Zr  3,Zr  0,O  15)          110.8475         0.356492   
    156. A(Zr  2,Zr  1,O  19)          105.5018         0.354565   
    157. A(O   7,Zr  1,O  16)          142.8302         0.513804   
    158. A(O   8,Zr  1,O  19)          141.0533         0.482753   
    159. A(O   7,Zr  1,O   8)           68.3296         0.454990   
    160. A(Zr  4,Zr  1,O   8)           94.0698         0.331755   
    161. A(O   7,Zr  1,O  18)           93.0532         0.512185   
    162. A(Zr  2,Zr  1,O  17)          155.4640         0.337439   
    163. A(Zr  4,Zr  1,O  17)           89.1704         0.350065   
    164. A(Zr  2,Zr  1,Zr  4)           70.0421         0.252725   
    165. A(O  10,Zr  1,O  19)          101.4315         0.498375   
    166. A(O   8,Zr  1,O  10)           87.9170         0.445115   
    167. A(O   7,Zr  1,O  10)           66.0820         0.469511   
    168. A(O  17,Zr  1,O  18)          131.8246         0.514926   
    169. A(Zr  4,Zr  1,O  19)           73.7523         0.368061   
    170. A(Zr  2,Zr  1,O   8)           36.9797         0.320015   
    171. A(O  10,Zr  1,O  18)          157.7569         0.500767   
    172. A(Zr  2,Zr  1,O   7)           34.9176         0.335841   
    173. A(O  16,Zr  1,O  17)           77.1244         0.516555   
    174. A(Zr  4,Zr  1,O   7)           37.8516         0.348385   
    175. A(O   8,Zr  1,O  18)           76.6654         0.485054   
    176. A(Zr  2,Zr  1,O  10)           85.4060         0.329181   
    177. A(O   8,Zr  1,O  17)          138.0092         0.457360   
    178. A(O  16,Zr  1,O  19)          135.0926         0.546028   
    179. A(Zr  4,Zr  1,O  16)          142.8201         0.370765   
    180. A(O  18,Zr  1,O  19)           81.7527         0.544287   
    181. A(Zr  2,Zr  1,O  18)           72.6130         0.356117   
    182. A(O   7,Zr  1,O  19)           81.0285         0.509727   
    183. A(Zr  2,Zr  1,O  16)          111.4648         0.357139   
    184. A(O  16,Zr  1,O  18)           85.7316         0.548699   
    185. A(O  10,Zr  1,O  17)           70.0632         0.471975   
    186. A(Zr  4,Zr  1,O  10)           37.1732         0.341386   
    187. A(Zr  4,Zr  1,O  18)          127.0543         0.369692   
    188. A(O   8,Zr  1,O  16)           75.3042         0.486569   
    189. A(O  10,Zr  1,O  16)          105.9921         0.502342   
    190. A(O  17,Zr  1,O  19)           79.7803         0.512452   
    191. A(O   7,Zr  1,O  17)          126.9109         0.482595   
    192. A(O   7,Zr  2,O   8)           68.4450         0.456591   
    193. A(O  11,Zr  2,O  23)          112.1130         0.488295   
    194. A(Zr  1,Zr  2,O  23)          103.3627         0.340627   
    195. A(Zr  1,Zr  2,O   7)           34.6656         0.333140   
    196. A(O   8,Zr  2,O  22)           88.7291         0.491899   
    197. A(O   8,Zr  2,O  21)          132.4610         0.466944   
    198. A(Zr  5,Zr  2,O   7)           90.2393         0.336504   
    199. A(Zr  5,Zr  2,O  23)          145.6292         0.344093   
    200. A(O  21,Zr  2,O  23)           77.7128         0.494387   
    201. A(O  11,Zr  2,O  22)          155.8902         0.513626   
    202. A(Zr  1,Zr  2,O  22)           71.6738         0.356590   
    203. A(Zr  1,Zr  2,O   8)           37.3524         0.323592   
    204. A(Zr  5,Zr  2,O  11)           35.7035         0.339650   
    205. A(O   7,Zr  2,O  23)           71.3886         0.483283   
    206. A(O  20,Zr  2,O  23)          135.4245         0.526718   
    207. A(O  20,Zr  2,O  21)           81.3668         0.525655   
    208. A(Zr  5,Zr  2,O  21)           94.5331         0.343474   
    209. A(O  21,Zr  2,O  22)          132.4051         0.520105   
    210. A(Zr  5,Zr  2,O  22)          123.7634         0.360276   
    211. A(O   7,Zr  2,O  22)           80.8397         0.508296   
    212. A(O   8,Zr  2,O  23)          139.7676         0.467864   
    213. A(O  22,Zr  2,O  23)           82.7522         0.521154   
    214. A(O   8,Zr  2,O  11)           67.5806         0.461264   
    215. A(O  11,Zr  2,O  21)           70.9847         0.487326   
    216. A(O   7,Zr  2,O  11)           86.0539         0.476415   
    217. A(O   7,Zr  2,O  21)          130.6163         0.482326   
    218. A(Zr  1,Zr  2,O  21)          155.1383         0.340016   
    219. A(Zr  1,Zr  2,O  11)           86.0561         0.336244   
    220. A(O  20,Zr  2,O  22)           83.0964         0.554486   
    221. A(O   8,Zr  2,O  20)           81.6991         0.497086   
    222. A(O   7,Zr  2,O  20)          146.2018         0.513695   
    223. A(Zr  5,Zr  2,O  20)           74.4447         0.363769   
    224. A(Zr  1,Zr  2,Zr  5)           70.3305         0.246954   
    225. A(Zr  1,Zr  2,O  20)          111.7405         0.360035   
    226. A(O  11,Zr  2,O  20)           97.2091         0.519093   
    227. A(Zr  5,Zr  2,O   8)           38.0333         0.326824   
    228. A(Zr  0,Zr  3,O   6)           34.8618         0.330229   
    229. A(O  25,Zr  3,O  27)           82.9182         0.552408   
    230. A(O   9,Zr  3,O  10)           67.8479         0.466643   
    231. A(O   6,Zr  3,O  10)           84.3885         0.475585   
    232. A(O  10,Zr  3,O  26)           71.2517         0.493013   
    233. A(O   9,Zr  3,O  25)           90.4966         0.493331   
    234. A(O   6,Zr  3,O  24)           71.7962         0.482099   
    235. A(O   6,Zr  3,O  25)           79.9623         0.502905   
    236. A(O   9,Zr  3,O  26)          130.7003         0.469070   
    237. A(O   6,Zr  3,O  26)          133.1321         0.478069   
    238. A(O  24,Zr  3,O  25)           83.5085         0.526045   
    239. A(O  24,Zr  3,O  26)           78.2242         0.499821   
    240. A(Zr  4,Zr  3,O  27)           74.6624         0.368797   
    241. A(O  25,Zr  3,O  26)          131.6413         0.521565   
    242. A(Zr  0,Zr  3,O  27)          109.1771         0.359080   
    243. A(O  10,Zr  3,O  27)          100.3754         0.521821   
    244. A(O   6,Zr  3,O   9)           68.2636         0.452674   
    245. A(O  10,Zr  3,O  25)          156.9093         0.518803   
    246. A(Zr  0,Zr  3,O  10)           85.6287         0.339494   
    247. A(Zr  4,Zr  3,O   9)           38.5226         0.333127   
    248. A(Zr  4,Zr  3,O  25)          126.3812         0.366846   
    249. A(Zr  0,Zr  3,O  25)           71.8326         0.357197   
    250. A(Zr  0,Zr  3,O   9)           37.2476         0.324649   
    251. A(O   9,Zr  3,O  24)          140.0479         0.473006   
    252. A(Zr  4,Zr  3,O  24)          142.6605         0.352879   
    253. A(Zr  0,Zr  3,O  24)          104.5043         0.343715   
    254. A(O   9,Zr  3,O  27)           80.2509         0.496170   
    255. A(O  24,Zr  3,O  27)          137.3609         0.529113   
    256. A(O   6,Zr  3,O  27)          143.7578         0.505811   
    257. A(Zr  4,Zr  3,O  10)           36.4183         0.348507   
    258. A(Zr  4,Zr  3,O   6)           90.3276         0.338908   
    259. A(Zr  0,Zr  3,Zr  4)           70.8586         0.250932   
    260. A(Zr  4,Zr  3,O  26)           92.4536         0.350174   
    261. A(O  26,Zr  3,O  27)           81.2258         0.524602   
    262. A(O  10,Zr  3,O  24)          107.6174         0.497197   
    263. A(Zr  0,Zr  3,O  26)          156.2171         0.341104   
    264. A(O   9,Zr  4,O  10)           66.4451         0.442640   
    265. A(O   7,Zr  4,O  10)           64.9216         0.449005   
    266. A(Zr  3,Zr  4,O  10)           35.4438         0.338127   
    267. A(O  28,Zr  4,O  30)           82.0107         0.551661   
    268. A(O  29,Zr  4,O  30)          136.7831         0.532280   
    269. A(Zr  3,Zr  4,O  30)          105.3739         0.366089   
    270. A(O   9,Zr  4,O  29)           72.2488         0.469963   
    271. A(Zr  1,Zr  4,O  29)          145.3373         0.360783   
    272. A(O  10,Zr  4,O  31)          131.3721         0.474317   
    273. A(O   7,Zr  4,O  30)           92.2695         0.489412   
    274. A(Zr  3,Zr  4,O  31)          161.3855         0.348466   
    275. A(O  28,Zr  4,O  31)          124.1452         0.522236   
    276. A(O   9,Zr  4,O  31)          135.5333         0.457316   
    277. A(O  10,Zr  4,O  30)           85.6545         0.500488   
    278. A(O  28,Zr  4,O  29)           82.8141         0.537112   
    279. A(O   7,Zr  4,O  31)           68.7659         0.463945   
    280. A(Zr  1,Zr  4,O  30)           70.4864         0.369608   
    281. A(O  10,Zr  4,O  29)          136.9131         0.487547   
    282. A(O   7,Zr  4,O  29)          110.7036         0.476820   
    283. A(Zr  3,Zr  4,O  29)          108.9389         0.357375   
    284. A(O  10,Zr  4,O  28)          100.1400         0.504973   
    285. A(O   9,Zr  4,O  28)           78.5417         0.486620   
    286. A(Zr  3,Zr  4,O  28)           74.2348         0.369109   
    287. A(Zr  1,Zr  4,O  28)          128.4411         0.372666   
    288. A(Zr  3,Zr  4,O   7)           93.6135         0.331421   
    289. A(O  30,Zr  4,O  31)           82.0872         0.517565   
    290. A(O   9,Zr  4,O  30)          142.1239         0.482333   
    291. A(Zr  1,Zr  4,O   7)           36.4932         0.334500   
    292. A(O  29,Zr  4,O  31)           73.6760         0.504087   
    293. A(Zr  1,Zr  4,O   9)           97.2084         0.330159   
    294. A(O   7,Zr  4,O  28)          164.4950         0.493776   
    295. A(O   7,Zr  4,O   9)           97.9231         0.433121   
    296. A(Zr  1,Zr  4,Zr  3)           72.4324         0.258888   
    297. A(Zr  1,Zr  4,O  31)           94.8248         0.351761   
    298. A(Zr  3,Zr  4,O   9)           37.8973         0.327135   
    299. A(Zr  1,Zr  4,O  10)           37.1638         0.341291   
    300. A(O  11,Zr  5,O  35)           97.3916         0.505964   
    301. A(O  34,Zr  5,O  35)           82.6786         0.535061   
    302. A(O  33,Zr  5,O  35)           81.7576         0.551354   
    303. A(O  32,Zr  5,O  35)          126.7521         0.519884   
    304. A(O   8,Zr  5,O  35)           78.9992         0.484385   
    305. A(O   6,Zr  5,O  35)          161.6282         0.488281   
    306. A(Zr  2,Zr  5,O  35)           73.5498         0.361935   
    307. A(O  33,Zr  5,O  34)          134.4387         0.532325   
    308. A(O  32,Zr  5,O  34)           73.7484         0.502150   
    309. A(O  11,Zr  5,O  34)          137.7309         0.488803   
    310. A(Zr  0,Zr  5,O  35)          125.6300         0.369655   
    311. A(Zr  0,Zr  5,O  34)          148.0191         0.358104   
    312. A(O  11,Zr  5,O  33)           86.7337         0.503407   
    313. A(O  32,Zr  5,O  33)           82.1128         0.517242   
    314. A(O   6,Zr  5,O  33)           91.4286         0.485833   
    315. A(Zr  0,Zr  5,O  33)           70.8295         0.367933   
    316. A(Zr  2,Zr  5,O  34)          108.0070         0.350702   
    317. A(O   6,Zr  5,O  32)           68.4868         0.458822   
    318. A(Zr  0,Zr  5,O   6)           36.3707         0.329882   
    319. A(Zr  0,Zr  5,Zr  2)           71.9514         0.253659   
    320. A(O   8,Zr  5,O  33)          144.3542         0.481960   
    321. A(Zr  0,Zr  5,O  32)           95.4199         0.348948   
    322. A(Zr  2,Zr  5,O  32)          159.1537         0.341798   
    323. A(O  11,Zr  5,O  32)          131.7667         0.475200   
    324. A(Zr  2,Zr  5,O   6)           92.6394         0.323257   
    325. A(Zr  2,Zr  5,O  33)          108.0587         0.360261   
    326. A(O   8,Zr  5,O  34)           72.1134         0.468112   
    327. A(O   8,Zr  5,O  32)          133.2050         0.455213   
    328. A(O   8,Zr  5,O  11)           66.5235         0.443382   
    329. A(O   6,Zr  5,O  11)           65.0490         0.446875   
    330. A(Zr  2,Zr  5,O  11)           35.1351         0.333631   
    331. A(Zr  0,Zr  5,O  11)           37.1585         0.340550   
    332. A(O   6,Zr  5,O   8)           97.5368         0.428353   
    333. A(O   6,Zr  5,O  34)          113.6717         0.471848   
    334. A(Zr  2,Zr  5,O   8)           37.4180         0.320970   
    335. A(Zr  0,Zr  5,O   8)           96.8990         0.327531   
    336. A(Zr  3,O   6,Zr  5)          134.7503         0.446186   
    337. A(Zr  0,O   6,Zr  5)          105.6243         0.455209   
    338. A(Zr  0,O   6,Zr  3)          109.6993         0.470691   
    339. A(Zr  2,O   7,Zr  4)          133.8192         0.455079   
    340. A(Zr  1,O   7,Zr  4)          105.6552         0.459128   
    341. A(Zr  1,O   7,Zr  2)          110.4169         0.475784   
    342. A(Zr  1,O   8,Zr  2)          105.6679         0.436829   
    343. A(Zr  2,O   8,Zr  5)          104.5487         0.433522   
    344. A(Zr  1,O   8,Zr  5)          130.8435         0.428268   
    345. A(Zr  3,O   9,Zr  4)          103.5801         0.435543   
    346. A(Zr  0,O   9,Zr  4)          131.8563         0.430513   
    347. A(Zr  0,O   9,Zr  3)          105.8589         0.439106   
    348. A(Zr  3,O  10,Zr  4)          108.1379         0.474377   
    349. A(Zr  1,O  10,Zr  4)          105.6629         0.459104   
    350. A(Zr  1,O  10,Zr  3)          145.4221         0.474524   
    351. A(Zr  2,O  11,Zr  5)          109.1614         0.471919   
    352. A(Zr  0,O  11,Zr  5)          105.9842         0.458161   
    353. A(Zr  0,O  11,Zr  2)          143.4024         0.467243   
    354. A(Zr  0,O  12,C  36)          125.5447         0.503022   
    355. A(Zr  0,O  13,C  37)          127.3109         0.501814   
    356. A(Zr  0,O  14,C  38)          135.2284         0.478178   
    357. A(Zr  0,O  15,C  39)          137.9873         0.505873   
    358. A(Zr  1,O  16,C  40)          138.5468         0.507361   
    359. A(Zr  1,O  17,C  41)          137.0383         0.476165   
    360. A(Zr  1,O  18,C  42)          127.4942         0.503711   
    361. A(Zr  1,O  19,C  43)          124.5163         0.501236   
    362. A(Zr  2,O  20,C  44)          131.6515         0.510860   
    363. A(Zr  2,O  21,C  38)          139.7299         0.480006   
    364. A(Zr  2,O  22,C  42)          129.3705         0.504427   
    365. A(Zr  2,O  23,C  45)          137.1743         0.479880   
    366. A(Zr  3,O  24,C  46)          136.8258         0.484126   
    367. A(Zr  3,O  25,C  37)          128.1067         0.504525   
    368. A(Zr  3,O  26,C  41)          138.9512         0.481198   
    369. A(Zr  3,O  27,C  47)          131.4068         0.508589   
    370. A(H  63,O  28,H  65)          103.6611         0.097256   
    371. A(H  64,O  28,H  65)           51.2163         0.098753   
    372. A(C  47,O  28,H  65)          123.7974         0.138043   
    373. A(Zr  4,O  28,H  65)           93.2745         0.143600   
    374. A(C  47,O  28,H  64)          108.4757         0.164037   
    375. A(H  63,O  28,H  64)           54.3062         0.101633   
    376. A(C  47,O  28,H  63)           92.3190         0.152525   
    377. A(Zr  4,O  28,H  63)          108.4758         0.159724   
    378. A(Zr  4,O  28,H  64)          118.8179         0.172540   
    379. A(Zr  4,O  28,C  47)          132.0891         0.509095   
    380. A(Zr  4,O  29,C  39)          140.1867         0.492479   
    381. A(C  39,O  29,H  65)          100.5026         0.170034   
    382. A(Zr  4,O  29,H  65)          112.3734         0.175228   
    383. A(H  62,O  30,H  70)           48.2223         0.096866   
    384. A(H  63,O  30,H  70)          101.1599         0.097726   
    385. A(C  43,O  30,H  70)           72.4349         0.135711   
    386. A(Zr  4,O  30,H  70)          101.0957         0.140605   
    387. A(H  62,O  30,H  63)           53.5530         0.100796   
    388. A(C  43,O  30,H  62)           91.2128         0.152144   
    389. A(Zr  4,O  30,H  62)          123.1665         0.158761   
    390. A(C  43,O  30,H  63)          118.8951         0.159049   
    391. A(Zr  4,O  30,H  63)          112.7428         0.166389   
    392. A(Zr  4,O  30,C  43)          128.2731         0.503266   
    393. A(H  66,O  31,H  70)           56.2297         0.102411   
    394. A(C  45,O  31,H  66)          117.2174         0.156800   
    395. A(Zr  4,O  31,H  66)          101.6123         0.158912   
    396. A(C  45,O  31,H  70)          109.9835         0.163657   
    397. A(Zr  4,O  31,H  70)          119.6654         0.165983   
    398. A(Zr  4,O  31,C  45)          128.5131         0.478181   
    399. A(Zr  5,O  32,C  46)          129.1674         0.477062   
    400. A(Zr  5,O  33,C  36)          128.9946         0.504285   
    401. A(Zr  5,O  34,C  40)          138.8263         0.491690   
    402. A(Zr  5,O  35,C  44)          132.5792         0.508003   
    403. A(O  12,C  36,O  33)          126.7508         0.464528   
    404. A(O  33,C  36,H  58)          116.6382         0.363782   
    405. A(O  12,C  36,H  58)          116.6089         0.363942   
    406. A(O  13,C  37,O  25)          127.2923         0.464191   
    407. A(O  25,C  37,H  51)          116.3517         0.363810   
    408. A(O  13,C  37,H  51)          116.3559         0.363799   
    409. A(O  14,C  38,O  21)          129.9883         0.467217   
    410. A(O  21,C  38,H  50)          114.9536         0.366415   
    411. A(O  14,C  38,H  50)          115.0526         0.366537   
    412. A(O  15,C  39,O  29)          128.9079         0.468406   
    413. A(H  54,C  39,H  65)           66.9083         0.129069   
    414. A(O  29,C  39,H  65)           54.7138         0.143734   
    415. A(O  15,C  39,H  65)          157.0929         0.143767   
    416. A(O  29,C  39,H  54)          115.5538         0.366580   
    417. A(O  15,C  39,H  54)          115.5321         0.366748   
    418. A(O  16,C  40,O  34)          128.9988         0.468215   
    419. A(O  34,C  40,H  56)          115.5087         0.366496   
    420. A(O  16,C  40,H  56)          115.4878         0.366550   
    421. A(O  17,C  41,O  26)          130.1072         0.467344   
    422. A(O  26,C  41,H  48)          114.9041         0.366565   
    423. A(O  17,C  41,H  48)          114.9828         0.366599   
    424. A(O  18,C  42,O  22)          127.4204         0.464541   
    425. A(O  22,C  42,H  49)          116.2839         0.363992   
    426. A(O  18,C  42,H  49)          116.2956         0.364003   
    427. A(O  30,C  43,H  62)           64.1867         0.139559   
    428. A(O  19,C  43,H  62)          162.1247         0.139590   
    429. A(H  52,C  43,H  70)           69.2725         0.128495   
    430. A(O  30,C  43,H  70)           83.5432         0.142935   
    431. A(O  19,C  43,H  70)          116.3050         0.142968   
    432. A(H  62,C  43,H  70)           47.1402         0.096272   
    433. A(H  52,C  43,H  62)           55.3192         0.126023   
    434. A(O  30,C  43,H  52)          116.7977         0.363582   
    435. A(O  19,C  43,H  52)          116.6374         0.363751   
    436. A(O  19,C  43,O  30)          126.5583         0.464206   
    437. A(O  35,C  44,H  59)          116.2034         0.365029   
    438. A(O  20,C  44,H  59)          116.2440         0.365057   
    439. A(O  20,C  44,O  35)          127.5527         0.466425   
    440. A(O  31,C  45,H  55)          115.1020         0.365709   
    441. A(O  23,C  45,H  55)          115.1877         0.365180   
    442. A(O  23,C  45,O  31)          129.7089         0.465698   
    443. A(O  32,C  46,H  57)          115.0967         0.365667   
    444. A(O  24,C  46,H  57)          115.2401         0.365227   
    445. A(O  24,C  46,O  32)          129.6599         0.465735   
    446. A(H  53,C  47,H  64)           67.1774         0.122092   
    447. A(O  28,C  47,H  64)           49.3640         0.134240   
    448. A(O  27,C  47,H  64)          173.5956         0.134236   
    449. A(H  53,C  47,H  63)           78.4454         0.125556   
    450. A(O  28,C  47,H  63)           63.3188         0.138977   
    451. A(O  27,C  47,H  63)          128.7450         0.138973   
    452. A(H  63,C  47,H  64)           45.5160         0.094992   
    453. A(O  28,C  47,H  53)          116.2065         0.365004   
    454. A(O  27,C  47,H  53)          116.2839         0.364979   
    455. A(O  27,C  47,O  28)          127.5096         0.466299   
    456. A(H  62,H  52,H  70)           53.1095         0.092817   
    457. A(C  43,H  52,H  70)           89.7394         0.114597   
    458. A(C  43,H  52,H  62)          104.9600         0.118985   
    459. A(H  63,H  53,H  64)           47.7362         0.091288   
    460. A(C  47,H  53,H  63)           81.5110         0.109608   
    461. A(C  47,H  53,H  64)           93.3565         0.111414   
    462. A(C  39,H  54,H  65)           92.1681         0.115939   
    463. A(C  45,H  55,H  70)           87.5617         0.108932   
    464. A(Al 68,Al 60,H  71)           98.4949         0.402074   
    465. A(H  66,Al 60,H  71)          109.3533         0.359795   
    466. A(H  65,Al 60,H  71)          117.9759         0.375436   
    467. A(H  64,Al 60,H  71)          107.7812         0.360343   
    468. A(Al 61,Al 60,H  71)          101.2267         0.399831   
    469. A(H  66,Al 60,Al 68)           35.7630         0.385548   
    470. A(H  65,Al 60,Al 68)          133.4597         0.402676   
    471. A(H  64,Al 60,Al 68)           94.2597         0.386148   
    472. A(Al 61,Al 60,Al 68)           60.2898         0.429392   
    473. A(H  65,Al 60,H  66)          101.2586         0.360316   
    474. A(H  64,Al 60,H  66)          120.3709         0.346019   
    475. A(Al 61,Al 60,H  66)           92.2477         0.383424   
    476. A(H  64,Al 60,H  65)          100.3844         0.360865   
    477. A(Al 61,Al 60,H  65)          130.4387         0.400429   
    478. A(Al 61,Al 60,H  64)           35.4511         0.384019   
    479. A(H  67,Al 61,Al 68)          103.2591         0.398031   
    480. A(H  64,Al 61,Al 68)           93.6309         0.381663   
    481. A(H  63,Al 61,Al 68)          122.7342         0.398132   
    482. A(H  62,Al 61,Al 68)           35.1325         0.381954   
    483. A(Al 60,Al 61,Al 68)           59.6986         0.424820   
    484. A(H  64,Al 61,H  67)          106.0350         0.360027   
    485. A(H  63,Al 61,H  67)          126.0701         0.375279   
    486. A(H  62,Al 61,H  67)          105.7787         0.360297   
    487. A(Al 60,Al 61,H  67)          102.4789         0.399994   
    488. A(H  63,Al 61,H  64)           98.1131         0.360116   
    489. A(H  62,Al 61,H  64)          124.5859         0.345927   
    490. A(Al 60,Al 61,H  64)           35.4017         0.383522   
    491. A(H  62,Al 61,H  63)           98.2390         0.360385   
    492. A(Al 60,Al 61,H  63)          123.5121         0.400096   
    493. A(Al 60,Al 61,H  62)           93.7901         0.383815   
    494. A(O  30,H  62,C  43)           24.6005         0.097514   
    495. A(C  43,H  62,H  52)           19.7208         0.094521   
    496. A(C  43,H  62,Al 68)          100.5946         0.130929   
    497. A(C  43,H  62,Al 61)          112.6016         0.130872   
    498. A(O  30,H  62,H  52)           43.6689         0.095896   
    499. A(O  30,H  62,Al 68)           98.5646         0.141366   
    500. A(O  30,H  62,Al 61)           90.8095         0.141294   
    501. A(H  52,H  62,Al 68)          107.2558         0.122959   
    502. A(H  52,H  62,Al 61)          124.6056         0.122912   
    503. A(Al 61,H  62,Al 68)          109.6953         0.346534   
    504. A(C  47,H  63,H  53)           20.0436         0.092732   
    505. A(O  28,H  63,C  47)           24.3621         0.097414   
    506. A(O  30,H  63,C  47)           73.9000         0.098307   
    507. A(C  47,H  63,Al 61)          111.1087         0.132539   
    508. A(O  28,H  63,H  53)           39.6518         0.093743   
    509. A(O  30,H  63,H  53)           93.5209         0.094247   
    510. A(H  53,H  63,Al 61)          105.3289         0.113544   
    511. A(O  28,H  63,O  30)           56.3509         0.100830   
    512. A(O  28,H  63,Al 61)           94.8562         0.144341   
    513. A(O  30,H  63,Al 61)           96.8466         0.150216   
    514. A(C  47,H  64,H  53)           19.4661         0.092674   
    515. A(O  28,H  64,C  47)           22.1603         0.097997   
    516. A(C  47,H  64,Al 61)          104.0854         0.126312   
    517. A(C  47,H  64,Al 60)          120.6494         0.126375   
    518. A(O  28,H  64,H  53)           41.5452         0.095094   
    519. A(H  53,H  64,Al 61)          107.6021         0.114273   
    520. A(H  53,H  64,Al 60)          132.8710         0.114316   
    521. A(O  28,H  64,Al 61)          100.7760         0.150887   
    522. A(O  28,H  64,Al 60)          102.6701         0.150992   
    523. A(Al 60,H  64,Al 61)          109.1472         0.346105   
    524. A(O  28,H  65,C  39)           71.5801         0.096097   
    525. A(O  28,H  65,H  54)           91.9187         0.093771   
    526. A(O  28,H  65,O  29)           54.6770         0.099506   
    527. A(O  28,H  65,Al 60)           85.4205         0.131770   
    528. A(C  39,H  65,H  54)           20.9236         0.094312   
    529. A(O  29,H  65,C  39)           24.7836         0.100697   
    530. A(C  39,H  65,Al 60)          138.7576         0.136618   
    531. A(O  29,H  65,H  54)           44.2043         0.096864   
    532. A(H  54,H  65,Al 60)          150.1849         0.121014   
    533. A(O  29,H  65,Al 60)          114.6978         0.159498   
    534. A(O  31,H  66,Al 68)           94.0111         0.144874   
    535. A(O  31,H  66,Al 60)          122.0111         0.144893   
    536. A(Al 60,H  66,Al 68)          108.4842         0.345412   
    537. A(H  69,Al 68,H  70)          121.9459         0.375271   
    538. A(H  66,Al 68,H  70)          100.3889         0.360064   
    539. A(H  62,Al 68,H  70)           97.6657         0.360889   
    540. A(Al 61,Al 68,H  70)          125.4448         0.398283   
    541. A(Al 60,Al 68,H  70)          130.8073         0.402493   
    542. A(H  66,Al 68,H  69)          109.3341         0.359704   
    543. A(H  62,Al 68,H  69)          107.1183         0.360527   
    544. A(Al 61,Al 68,H  69)          102.5389         0.397872   
    545. A(Al 60,Al 68,H  69)           99.2339         0.402076   
    546. A(H  62,Al 68,H  66)          120.9793         0.346104   
    547. A(Al 61,Al 68,H  66)           91.9721         0.381465   
    548. A(Al 60,Al 68,H  66)           35.7528         0.385446   
    549. A(Al 61,Al 68,H  62)           35.1721         0.382355   
    550. A(Al 60,Al 68,H  62)           94.1380         0.386348   
    551. A(Al 60,Al 68,Al 61)           60.0116         0.427243   
    552. A(O  30,H  70,H  55)           92.3773         0.092376   
    553. A(O  30,H  70,C  43)           24.0219         0.095719   
    554. A(O  30,H  70,H  52)           39.1212         0.093354   
    555. A(O  30,H  70,O  31)           53.6655         0.098270   
    556. A(O  30,H  70,Al 68)           86.8533         0.129841   
    557. A(C  43,H  70,H  55)           98.4715         0.092898   
    558. A(H  52,H  70,H  55)          118.2617         0.091526   
    559. A(O  31,H  70,H  55)           39.4737         0.094378   
    560. A(H  55,H  70,Al 68)          113.3799         0.112693   
    561. A(C  43,H  70,H  52)           20.9881         0.094028   
    562. A(O  31,H  70,C  43)           65.8957         0.099703   
    563. A(C  43,H  70,Al 68)          105.4371         0.136157   
    564. A(O  31,H  70,H  52)           86.8301         0.095937   
    565. A(H  52,H  70,Al 68)          101.3153         0.119563   
    566. A(O  31,H  70,Al 68)          100.1316         0.154063   
    567. D(Zr  5,Zr  2,Zr  1,O   7)    121.6472         0.010000   
    568. D(Zr  5,Zr  2,Zr  1,Zr  4)    102.9809         0.010000   
    569. D(O   7,Zr  2,Zr  1,Zr  4)    -18.6663         0.010000   
    570. D(Zr  4,Zr  3,Zr  0,O   6)   -120.5864         0.010000   
    571. D(Zr  4,Zr  3,Zr  0,Zr  5)   -102.3001         0.010000   
    572. D(O   6,Zr  3,Zr  0,Zr  5)     18.2863         0.010000   
    573. D(Zr  1,Zr  4,Zr  3,O   6)     75.3881         0.010000   
    574. D(O   7,Zr  4,Zr  1,Zr  2)     17.3709         0.010000   
    575. D(Zr  1,Zr  4,Zr  3,Zr  0)    104.8652         0.010000   
    576. D(Zr  3,Zr  4,Zr  1,Zr  2)   -105.2529         0.010000   
    577. D(Zr  3,Zr  4,Zr  1,O   7)   -122.6237         0.010000   
    578. D(O   7,Zr  4,Zr  3,Zr  0)     74.7398         0.010000   
    579. D(O   6,Zr  5,Zr  0,Zr  3)    -17.1859         0.010000   
    580. D(Zr  0,Zr  5,Zr  2,Zr  1)   -105.2829         0.010000   
    581. D(Zr  2,Zr  5,Zr  0,Zr  3)    104.4237         0.010000   
    582. D(Zr  2,Zr  5,Zr  0,O   6)    121.6096         0.010000   
    583. D(O   6,Zr  5,Zr  2,Zr  1)    -74.9141         0.010000   
    584. D(Zr  0,Zr  5,Zr  2,O   7)    -76.3223         0.010000   
    585. D(Zr  0,O   6,Zr  5,Zr  2)    -54.1540         0.010000   
    586. D(Zr  3,O   6,Zr  5,Zr  0)    140.3621         0.010000   
    587. D(Zr  0,O   6,Zr  5,O   8)    -91.4139         0.010000   
    588. D(Zr  5,O   6,Zr  3,Zr  0)   -139.2658         0.010000   
    589. D(Zr  3,O   6,Zr  0,O   9)    -21.8192         0.010000   
    590. D(Zr  5,O   6,Zr  0,Zr  3)    151.2354         0.010000   
    591. D(Zr  0,O   6,Zr  3,O   9)     22.0406         0.010000   
    592. D(Zr  0,O   6,Zr  3,Zr  4)     54.4178         0.010000   
    593. D(Zr  3,O   6,Zr  0,Zr  5)   -151.2354         0.010000   
    594. D(Zr  4,O   7,Zr  1,Zr  2)   -150.6421         0.010000   
    595. D(Zr  1,O   7,Zr  2,Zr  5)    -53.2859         0.010000   
    596. D(Zr  2,O   7,Zr  1,Zr  4)    150.6421         0.010000   
    597. D(Zr  1,O   7,Zr  2,O   8)    -21.3388         0.010000   
    598. D(Zr  4,O   7,Zr  2,Zr  1)    139.1356         0.010000   
    599. D(Zr  2,O   7,Zr  1,O   8)     21.1653         0.010000   
    600. D(Zr  1,O   7,Zr  4,O   9)     91.4263         0.010000   
    601. D(Zr  1,O   7,Zr  4,Zr  3)     53.5667         0.010000   
    602. D(Zr  2,O   7,Zr  4,Zr  1)   -140.4469         0.010000   
    603. D(Zr  2,O   8,Zr  5,Zr  0)     47.7968         0.010000   
    604. D(Zr  1,O   8,Zr  5,Zr  0)    -78.5857         0.010000   
    605. D(Zr  1,O   8,Zr  2,Zr  5)    140.7622         0.010000   
    606. D(Zr  5,O   8,Zr  2,Zr  1)   -140.7622         0.010000   
    607. D(Zr  1,O   8,Zr  2,O   7)     19.9459         0.010000   
    608. D(Zr  5,O   8,Zr  1,Zr  2)    125.9693         0.010000   
    609. D(Zr  2,O   8,Zr  1,O   7)    -20.0947         0.010000   
    610. D(Zr  2,O   8,Zr  1,Zr  4)    -48.4435         0.010000   
    611. D(Zr  1,O   8,Zr  5,Zr  2)   -126.3825         0.010000   
    612. D(Zr  4,O   9,Zr  3,Zr  0)    141.4661         0.010000   
    613. D(Zr  0,O   9,Zr  4,Zr  1)     77.5615         0.010000   
    614. D(Zr  4,O   9,Zr  0,Zr  3)   -125.6071         0.010000   
    615. D(Zr  0,O   9,Zr  4,Zr  3)    126.4306         0.010000   
    616. D(Zr  0,O   9,Zr  3,Zr  4)   -141.4661         0.010000   
    617. D(Zr  0,O   9,Zr  3,O   6)    -20.7563         0.010000   
    618. D(Zr  3,O   9,Zr  4,Zr  1)    -48.8691         0.010000   
    619. D(Zr  3,O   9,Zr  0,O   6)     21.0382         0.010000   
    620. D(Zr  3,O   9,Zr  0,Zr  5)     49.5285         0.010000   
    621. D(Zr  1,O  10,Zr  4,O   7)    -31.5740         0.010000   
    622. D(Zr  1,O  10,Zr  3,Zr  4)    167.3784         0.010000   
    623. D(Zr  1,O  10,Zr  3,Zr  0)    104.1427         0.010000   
    624. D(Zr  1,O  10,Zr  4,Zr  3)   -172.6002         0.010000   
    625. D(Zr  4,O  10,Zr  1,Zr  2)     62.5640         0.010000   
    626. D(Zr  3,O  10,Zr  1,Zr  2)   -104.9817         0.010000   
    627. D(Zr  3,O  10,Zr  1,Zr  4)   -167.5457         0.010000   
    628. D(Zr  3,O  10,Zr  4,Zr  1)    172.6002         0.010000   
    629. D(Zr  4,O  10,Zr  3,Zr  0)    -63.2358         0.010000   
    630. D(Zr  2,O  11,Zr  5,Zr  0)   -169.6242         0.010000   
    631. D(Zr  0,O  11,Zr  5,Zr  2)    169.6242         0.010000   
    632. D(Zr  0,O  11,Zr  2,Zr  1)   -101.9467         0.010000   
    633. D(Zr  0,O  11,Zr  2,Zr  5)   -163.1174         0.010000   
    634. D(Zr  5,O  11,Zr  2,Zr  1)     61.1707         0.010000   
    635. D(Zr  5,O  11,Zr  0,Zr  3)    -62.2808         0.010000   
    636. D(Zr  0,O  11,Zr  5,O   6)     31.0860         0.010000   
    637. D(Zr  2,O  11,Zr  0,Zr  5)    163.4199         0.010000   
    638. D(Zr  2,O  11,Zr  0,Zr  3)    101.1392         0.010000   
    639. D(C  36,O  12,Zr  0,Zr  5)     28.1297         0.010000   
    640. D(C  36,O  12,Zr  0,Zr  3)     92.2571         0.010000   
    641. D(C  37,O  13,Zr  0,Zr  5)    -16.5003         0.010000   
    642. D(C  37,O  13,Zr  0,Zr  3)     30.7486         0.010000   
    643. D(C  38,O  14,Zr  0,Zr  5)     66.6169         0.010000   
    644. D(C  38,O  14,Zr  0,Zr  3)     32.6965         0.010000   
    645. D(C  39,O  15,Zr  0,Zr  5)     58.2366         0.010000   
    646. D(C  39,O  15,Zr  0,Zr  3)    -27.2245         0.010000   
    647. D(C  40,O  16,Zr  1,Zr  4)    -63.2363         0.010000   
    648. D(C  40,O  16,Zr  1,Zr  2)     21.6860         0.010000   
    649. D(C  41,O  17,Zr  1,Zr  4)    -60.6475         0.010000   
    650. D(C  41,O  17,Zr  1,Zr  2)    -29.2710         0.010000   
    651. D(C  42,O  18,Zr  1,Zr  4)     18.5216         0.010000   
    652. D(C  42,O  18,Zr  1,Zr  2)    -28.2742         0.010000   
    653. D(C  43,O  19,Zr  1,Zr  4)    -30.6058         0.010000   
    654. D(C  43,O  19,Zr  1,Zr  2)    -93.8762         0.010000   
    655. D(C  44,O  20,Zr  2,Zr  5)      3.9727         0.010000   
    656. D(C  44,O  20,Zr  2,Zr  1)    -56.8740         0.010000   
    657. D(C  38,O  21,Zr  2,Zr  5)    -35.2369         0.010000   
    658. D(C  38,O  21,Zr  2,Zr  1)     15.5646         0.010000   
    659. D(C  42,O  22,Zr  2,Zr  5)     22.4650         0.010000   
    660. D(C  42,O  22,Zr  2,Zr  1)    -27.1482         0.010000   
    661. D(C  45,O  23,Zr  2,Zr  5)    -71.0443         0.010000   
    662. D(C  45,O  23,Zr  2,Zr  1)      3.5588         0.010000   
    663. D(C  46,O  24,Zr  3,Zr  4)     78.4475         0.010000   
    664. D(C  46,O  24,Zr  3,Zr  0)      1.1157         0.010000   
    665. D(C  37,O  25,Zr  3,Zr  0)     29.4414         0.010000   
    666. D(C  37,O  25,Zr  3,Zr  4)    -18.4589         0.010000   
    667. D(C  41,O  26,Zr  3,Zr  4)     42.8554         0.010000   
    668. D(C  41,O  26,Zr  3,Zr  0)     -1.3689         0.010000   
    669. D(C  47,O  27,Zr  3,Zr  4)     -2.5247         0.010000   
    670. D(C  47,O  27,Zr  3,Zr  0)     60.3861         0.010000   
    671. D(C  47,O  28,Zr  4,Zr  1)     48.5982         0.010000   
    672. D(C  47,O  28,Zr  4,Zr  3)     -2.7554         0.010000   
    673. D(H  64,O  28,Zr  4,Zr  1)   -121.2402         0.010000   
    674. D(H  65,O  29,Zr  4,Zr  1)    163.4349         0.010000   
    675. D(C  39,O  29,Zr  4,Zr  3)     33.0085         0.010000   
    676. D(C  39,O  29,Zr  4,Zr  1)    -53.2744         0.010000   
    677. D(H  63,O  30,Zr  4,Zr  1)    141.3863         0.010000   
    678. D(C  43,O  30,Zr  4,Zr  3)    -99.6627         0.010000   
    679. D(C  43,O  30,Zr  4,Zr  1)    -35.1016         0.010000   
    680. D(H  70,O  31,Zr  4,Zr  1)     88.0004         0.010000   
    681. D(C  45,O  31,Zr  4,Zr  3)    -29.2200         0.010000   
    682. D(C  45,O  31,Zr  4,Zr  1)    -74.9254         0.010000   
    683. D(C  46,O  32,Zr  5,Zr  2)     22.5502         0.010000   
    684. D(C  46,O  32,Zr  5,Zr  0)     73.8404         0.010000   
    685. D(C  36,O  33,Zr  5,Zr  2)     95.4790         0.010000   
    686. D(C  36,O  33,Zr  5,Zr  0)     32.7605         0.010000   
    687. D(C  40,O  34,Zr  5,Zr  2)    -40.8494         0.010000   
    688. D(C  40,O  34,Zr  5,Zr  0)     43.7269         0.010000   
    689. D(C  44,O  35,Zr  5,Zr  2)      4.0226         0.010000   
    690. D(C  44,O  35,Zr  5,Zr  0)    -48.4547         0.010000   
    691. D(O  12,C  36,O  33,Zr  5)    -26.3628         0.045843   
    692. D(H  58,C  36,O  12,Zr  0)    161.6087         0.046108   
    693. D(O  33,C  36,O  12,Zr  0)    -17.8400         0.046108   
    694. D(H  58,C  36,O  33,Zr  5)    154.1887         0.045843   
    695. D(H  51,C  37,O  25,Zr  3)    159.4862         0.045782   
    696. D(O  13,C  37,O  25,Zr  3)    -20.4219         0.045782   
    697. D(H  51,C  37,O  13,Zr  0)    156.3286         0.045764   
    698. D(O  25,C  37,O  13,Zr  0)    -23.7633         0.045764   
    699. D(H  50,C  38,O  21,Zr  2)    173.8544         0.047518   
    700. D(O  14,C  38,O  21,Zr  2)     -5.2350         0.047518   
    701. D(H  50,C  38,O  14,Zr  0)    164.2792         0.047723   
    702. D(O  21,C  38,O  14,Zr  0)    -16.6321         0.047723   
    703. D(H  54,C  39,O  29,Zr  4)   -175.2256         0.058096   
    704. D(O  15,C  39,O  29,H  65)    151.5205         0.058096   
    705. D(O  29,C  39,O  15,Zr  0)     -9.3868         0.053657   
    706. D(O  15,C  39,O  29,Zr  4)      5.7271         0.058096   
    707. D(H  54,C  39,O  15,Zr  0)    171.5658         0.053657   
    708. D(H  56,C  40,O  34,Zr  5)   -179.1298         0.048197   
    709. D(O  16,C  40,O  34,Zr  5)      0.0387         0.048197   
    710. D(H  56,C  40,O  16,Zr  1)   -167.9861         0.048291   
    711. D(O  34,C  40,O  16,Zr  1)     12.8453         0.048291   
    712. D(H  48,C  41,O  26,Zr  3)   -178.1407         0.047670   
    713. D(O  17,C  41,O  26,Zr  3)      0.9160         0.047670   
    714. D(H  48,C  41,O  17,Zr  1)   -169.2800         0.047728   
    715. D(O  26,C  41,O  17,Zr  1)     11.6639         0.047728   
    716. D(H  49,C  42,O  22,Zr  2)   -161.1864         0.045974   
    717. D(O  18,C  42,O  22,Zr  2)     18.7439         0.045974   
    718. D(H  49,C  42,O  18,Zr  1)   -158.0422         0.045993   
    719. D(O  22,C  42,O  18,Zr  1)     22.0275         0.045993   
    720. D(H  52,C  43,O  30,Zr  4)   -153.2803         0.067032   
    721. D(O  19,C  43,O  30,H  63)   -148.6041         0.067032   
    722. D(O  19,C  43,O  30,Zr  4)     27.6960         0.067032   
    723. D(H  52,C  43,O  19,Zr  1)   -159.2833         0.055312   
    724. D(O  30,C  43,O  19,Zr  1)     19.7418         0.055312   
    725. D(H  59,C  44,O  35,Zr  5)    176.9916         0.047107   
    726. D(O  20,C  44,O  35,Zr  5)     -2.9927         0.047107   
    727. D(H  59,C  44,O  20,Zr  2)    177.0893         0.047154   
    728. D(O  35,C  44,O  20,Zr  2)     -2.9264         0.047154   
    729. D(H  55,C  45,O  31,Zr  4)   -163.4231         0.056774   
    730. D(O  23,C  45,O  31,H  70)   -148.1132         0.056774   
    731. D(O  23,C  45,O  31,Zr  4)     16.1350         0.056774   
    732. D(H  55,C  45,O  23,Zr  2)   -149.1416         0.046247   
    733. D(O  31,C  45,O  23,Zr  2)     31.3006         0.046247   
    734. D(H  57,C  46,O  32,Zr  5)    163.8871         0.047075   
    735. D(O  24,C  46,O  32,Zr  5)    -15.4182         0.047075   
    736. D(H  57,C  46,O  24,Zr  3)    145.8350         0.046343   
    737. D(O  32,C  46,O  24,Zr  3)    -34.8605         0.046343   
    738. D(H  53,C  47,O  28,Zr  4)   -177.8281         0.069155   
    739. D(O  27,C  47,O  28,H  64)    172.7957         0.069155   
    740. D(O  27,C  47,O  28,Zr  4)      2.1754         0.069155   
    741. D(H  53,C  47,O  27,Zr  3)   -178.2942         0.056658   
    742. D(O  28,C  47,O  27,Zr  3)      1.7023         0.056658   
    743. D(H  70,H  52,C  43,O  19)   -109.8935         0.139927   
    744. D(H  62,H  52,C  43,O  30)     19.4877         0.139927   
    745. D(H  62,H  52,C  43,O  19)   -161.3896         0.139927   
    746. D(H  63,H  53,C  47,O  27)   -127.6974         0.143023   
    747. D(H  64,H  53,C  47,O  28)      5.9292         0.143023   
    748. D(H  64,H  53,C  47,O  27)   -174.0738         0.143023   
    749. D(H  65,H  54,C  39,O  29)     25.8521         0.125961   
    750. D(H  65,H  54,C  39,O  15)   -154.9695         0.125961   
    751. D(H  70,H  55,C  45,O  31)    -24.6469         0.112677   
    752. D(H  70,H  55,C  45,O  23)    155.7287         0.112677   
    753. D(H  63,Al 61,Al 60,H  64)    -50.2419         0.010000   
    754. D(H  62,Al 61,Al 60,H  65)   -114.7804         0.010000   
    755. D(H  62,Al 61,Al 60,H  64)   -152.7230         0.010000   
    756. D(H  52,H  62,Al 61,Al 60)    115.6474         0.010000   
    757. D(Al 68,H  62,Al 61,H  63)   -138.0457         0.010000   
    758. D(Al 68,H  62,H  52,C  43)     72.7832         0.010000   
    759. D(Al 61,H  62,H  52,H  70)   -135.3255         0.010000   
    760. D(Al 61,H  62,H  52,C  43)    -57.2391         0.010000   
    761. D(Al 68,H  62,C  43,O  19)    -43.5390         0.010000   
    762. D(Al 61,H  62,C  43,O  30)    -29.2515         0.010000   
    763. D(Al 61,H  62,C  43,O  19)   -160.2348         0.010000   
    764. D(Al 68,H  62,Al 61,Al 60)    -13.3870         0.010000   
    765. D(Al 68,H  62,O  30,Zr  4)     42.1754         0.010000   
    766. D(Al 61,H  62,O  30,C  43)    153.1818         0.010000   
    767. D(Al 61,H  62,O  30,Zr  4)    -67.8833         0.010000   
    768. D(O  28,H  63,Al 61,Al 60)     -2.3367         0.010000   
    769. D(O  30,H  63,Al 61,Al 60)    -58.9769         0.010000   
    770. D(O  30,H  63,H  53,C  47)    -11.6784         0.010000   
    771. D(Al 61,H  63,H  53,H  64)     -7.3148         0.010000   
    772. D(Al 61,H  63,H  53,C  47)   -109.7673         0.010000   
    773. D(O  30,H  63,C  47,O  27)    -77.5913         0.010000   
    774. D(Al 61,H  63,C  47,O  28)    -50.7626         0.010000   
    775. D(Al 61,H  63,C  47,O  27)   -168.8277         0.010000   
    776. D(O  28,H  63,O  30,Zr  4)     -4.7416         0.010000   
    777. D(Al 61,H  63,O  30,C  43)    -96.6011         0.010000   
    778. D(Al 61,H  63,O  30,Zr  4)     86.5479         0.010000   
    779. D(O  30,H  63,O  28,Zr  4)      4.6408         0.010000   
    780. D(O  30,H  63,Al 61,H  62)     41.1594         0.010000   
    781. D(Al 61,H  63,O  28,C  47)    133.5176         0.010000   
    782. D(Al 61,H  63,O  28,Zr  4)    -90.3600         0.010000   
    783. D(Al 60,H  64,Al 61,H  63)    139.6510         0.010000   
    784. D(Al 60,H  64,Al 61,H  62)     33.7419         0.010000   
    785. D(O  28,H  64,Al 60,Al 61)    106.3148         0.010000   
    786. D(Al 61,H  64,Al 60,H  66)    -41.8689         0.010000   
    787. D(Al 61,H  64,Al 60,H  65)   -151.5904         0.010000   
    788. D(Al 61,H  64,H  53,C  47)     82.4473         0.010000   
    789. D(Al 60,H  64,H  53,H  63)   -132.7125         0.010000   
    790. D(Al 60,H  64,H  53,C  47)    -57.3744         0.010000   
    791. D(Al 61,H  64,C  47,O  27)     20.8683         0.010000   
    792. D(Al 60,H  64,C  47,O  28)    -38.8312         0.010000   
    793. D(Al 60,H  64,C  47,O  27)   -101.9350         0.010000   
    794. D(Al 61,H  64,O  28,Zr  4)     71.1436         0.010000   
    795. D(Al 60,H  64,O  28,C  47)    146.4339         0.010000   
    796. D(O  28,H  64,Al 61,Al 60)   -107.6038         0.010000   
    797. D(Al 60,H  64,O  28,Zr  4)    -41.5005         0.010000   
    798. D(H  54,H  65,Al 60,Al 61)    100.1599         0.010000   
    799. D(O  29,H  65,Al 60,H  64)     83.0838         0.010000   
    800. D(O  29,H  65,Al 60,Al 61)     61.8257         0.010000   
    801. D(O  29,H  65,H  54,C  39)    -16.8435         0.010000   
    802. D(Al 60,H  65,H  54,C  39)    -70.7662         0.010000   
    803. D(O  29,H  65,C  39,O  15)   -107.5800         0.010000   
    804. D(Al 60,H  65,C  39,O  29)    -16.5940         0.010000   
    805. D(Al 60,H  65,C  39,O  15)   -124.1740         0.010000   
    806. D(H  54,H  65,O  29,Zr  4)    171.3831         0.010000   
    807. D(Al 60,H  65,O  29,C  39)    168.0400         0.010000   
    808. D(Al 60,H  65,O  29,Zr  4)    -34.8683         0.010000   
    809. D(O  29,H  65,O  28,Zr  4)    -27.8420         0.010000   
    810. D(Al 60,H  65,O  28,C  47)   -115.2546         0.010000   
    811. D(Al 60,H  65,O  28,Zr  4)     96.9438         0.010000   
    812. D(O  31,H  66,Al 60,Al 61)    -81.7927         0.010000   
    813. D(Al 68,H  66,Al 60,H  64)     48.2157         0.010000   
    814. D(Al 68,H  66,Al 60,Al 61)     25.4221         0.010000   
    815. D(Al 68,H  66,O  31,Zr  4)    -99.3141         0.010000   
    816. D(Al 60,H  66,O  31,C  45)   -129.7042         0.010000   
    817. D(Al 60,H  66,O  31,Zr  4)     15.4352         0.010000   
    818. D(Al 60,Al 68,Al 61,H  62)   -164.4799         0.010000   
    819. D(H  62,Al 68,Al 60,Al 61)     -8.8899         0.010000   
    820. D(Al 61,Al 68,Al 60,H  65)    119.2171         0.010000   
    821. D(Al 61,Al 68,Al 60,H  64)     10.5785         0.010000   
    822. D(Al 61,Al 68,H  66,O  31)    100.3717         0.010000   
    823. D(Al 61,Al 68,H  66,Al 60)    -25.3416         0.010000   
    824. D(Al 60,Al 68,H  66,O  31)    125.7133         0.010000   
    825. D(Al 61,Al 68,H  62,H  52)   -137.9734         0.010000   
    826. D(Al 60,Al 68,H  62,H  52)   -124.5373         0.010000   
    827. D(Al 60,Al 68,H  62,Al 61)     13.4361         0.010000   
    828. D(H  62,Al 68,Al 61,Al 60)    164.4799         0.010000   
    829. D(Al 60,Al 68,Al 61,H  63)   -112.6155         0.010000   
    830. D(H  52,H  70,Al 68,Al 60)     95.3614         0.010000   
    831. D(O  31,H  70,Al 68,Al 60)      6.5950         0.010000   
    832. D(O  31,H  70,H  55,C  45)     17.1295         0.010000   
    833. D(Al 68,H  70,H  55,C  45)     94.2160         0.010000   
    834. D(O  31,H  70,H  52,C  43)     -3.9623         0.010000   
    835. D(Al 68,H  70,H  52,H  62)      5.3692         0.010000   
    836. D(Al 68,H  70,H  52,C  43)   -103.6682         0.010000   
    837. D(O  31,H  70,C  43,O  19)    -73.9896         0.010000   
    838. D(Al 68,H  70,C  43,O  30)    -40.5819         0.010000   
    839. D(Al 68,H  70,C  43,O  19)   -168.3699         0.010000   
    840. D(H  52,H  70,O  31,Zr  4)    -36.6373         0.010000   
    841. D(Al 68,H  70,O  31,C  45)   -129.8504         0.010000   
    842. D(Al 68,H  70,O  31,Zr  4)     64.2994         0.010000   
    843. D(O  31,H  70,O  30,Zr  4)     12.9847         0.010000   
    844. D(O  31,H  70,Al 68,Al 61)    -72.1039         0.010000   
    845. D(Al 68,H  70,O  30,C  43)    141.0964         0.010000   
    846. D(Al 68,H  70,O  30,Zr  4)    -92.0338         0.010000   
    -----------------------------------------------------------------

Number of atoms                         .... 72
Number of degrees of freedom            .... 846


         *************************************************************
         *                GEOMETRY OPTIMIZATION CYCLE   1            *
         *************************************************************
---------------------------------
CARTESIAN COORDINATES (ANGSTROEM)
---------------------------------
  Zr    -0.392516    2.173104    1.513882
  Zr     0.482695   -2.079465   -1.467030
  Zr     1.845740   -1.134123    1.537719
  Zr    -1.717234    1.254051   -1.513873
  Zr     1.661686    1.073236   -1.678815
  Zr    -1.561921   -0.993420    1.725983
  O     -1.651635    0.820923    0.552849
  O      1.757513   -0.732941   -0.517921
  O      0.070289   -1.947100    0.651895
  O      0.048979    2.040525   -0.594685
  O     -0.125418   -0.059601   -1.633066
  O      0.214244    0.146086    1.711542
  O     -1.930275    2.236885    2.776008
  O     -1.341291    3.748834    0.746422
  O      0.622281    1.908409    3.297428
  O      1.265105    3.242772    1.265631
  O     -1.179394   -3.131298   -1.211219
  O     -0.528032   -1.789537   -3.256214
  O      1.423239   -3.662348   -0.717078
  O      2.009529   -2.139472   -2.749861
  O      1.345070   -2.371049    2.987749
  O      2.149847    0.128408    3.140527
  O      2.849855   -2.709844    0.864692
  O      3.561030   -0.134171    0.988826
  O     -3.384007    0.165995   -1.035242
  O     -2.782072    2.773505   -0.807940
  O     -1.950240    0.082158   -3.191475
  O     -1.188936    2.578677   -2.882772
  O      1.138085    2.497919   -2.943110
  O      2.454742    2.629200   -0.650058
  O      2.055777    0.101821   -3.368502
  O      3.618919    0.555488   -1.259619
  O     -3.510529   -0.517158    1.211766
  O     -2.046925   -0.006911    3.380053
  O     -2.310636   -2.619384    0.770319
  O     -0.983398   -2.349877    3.045218
  C     -2.333267    1.254271    3.527346
  C     -2.385895    3.739555   -0.030454
  C      1.617516    1.175868    3.690380
  C      2.208913    3.364635    0.387710
  C     -2.085565   -3.309223   -0.302932
  C     -1.449791   -0.997117   -3.707795
  C      2.452071   -3.668368    0.079602
  C      2.361231   -1.154403   -3.524249
  C      0.187678   -2.752382    3.435350
  C      4.141555    0.227896   -0.117240
  C     -3.998113   -0.199662    0.051031
  C     -0.021353    2.951655   -3.311464
  H     -1.856719   -1.271970   -4.674878
  H      3.048974   -4.581989    0.091557
  H      2.066497    1.477170    4.630902
  H     -2.997484    4.643834   -0.031047
  H      2.960550   -1.410469   -4.400822
  H     -0.012977    3.736251   -4.067862
  H      2.897268    4.188362    0.551777
  H      5.227014    0.268718   -0.078096
  H     -2.757733   -4.145852   -0.470820
  H     -5.080773   -0.258333   -0.025950
  H     -2.971079    1.515851    4.374198
  H      0.200194   -3.496736    4.231293
  Al     4.274146    3.698575   -3.458619
  Al     3.245992    2.271963   -5.545733
  H      4.089494    0.879498   -5.154195
  H      1.761708    1.648816   -5.550810
  H      2.965402    3.542609   -4.490040
  H      3.550757    4.322828   -2.164670
  H      5.002584    2.339236   -2.802354
  H      4.012108    2.906545   -6.811859
  Al     5.280159    1.237504   -4.035087
  H      6.589821    1.680714   -4.861559
  H      5.220861   -0.142594   -3.209641
  H      5.386503    4.591584   -4.206901

----------------------------
CARTESIAN COORDINATES (A.U.)
----------------------------
  NO LB      ZA    FRAG     MASS         X           Y           Z
   0 Zr   12.0000*   0    91.220   -0.741748    4.106571    2.860822
   1 Zr   12.0000*   0    91.220    0.912161   -3.929620   -2.772285
   2 Zr   12.0000*   0    91.220    3.487942   -2.143182    2.905868
   3 Zr   12.0000*   0    91.220   -3.245102    2.369813   -2.860805
   4 Zr   12.0000*   0    91.220    3.140132    2.028123   -3.172501
   5 Zr   12.0000*   0    91.220   -2.951604   -1.877292    3.261635
   6 O     8.0000    0    15.999   -3.121138    1.551319    1.044732
   7 O     8.0000    0    15.999    3.321217   -1.385057   -0.978729
   8 O     8.0000    0    15.999    0.132827   -3.679486    1.231903
   9 O     8.0000    0    15.999    0.092556    3.856033   -1.123792
  10 O     8.0000    0    15.999   -0.237006   -0.112629   -3.086048
  11 O     8.0000    0    15.999    0.404863    0.276063    3.234346
  12 O     8.0000    0    15.999   -3.647691    4.227100    5.245895
  13 O     8.0000    0    15.999   -2.534673    7.084269    1.410534
  14 O     8.0000    0    15.999    1.175940    3.606371    6.231235
[...]

* The epsilon (eps) is given for a Dirac delta lineshape.
** The dipole moment derivative (T) already includes vibrational overlap.

The first frequency considered to be a vibration is 8
The total number of vibrations considered is 208


--------------------------
THERMOCHEMISTRY AT 298.15K
--------------------------

Temperature         ...   298.15 K
Pressure            ...     1.00 atm
Total Mass          ...  1273.54 AMU
Quasi RRHO          ...     True
Cut-Off Frequency   ...     1.00 cm^-1

Throughout the following assumptions are being made:
  (1) The electronic state is orbitally nondegenerate
  (2) There are no thermally accessible electronically excited states
  (3) Hindered rotations indicated by low frequency modes are not
      treated as such but are treated as vibrations and this may
      cause some error
  (4) All equations used are the standard statistical mechanics
      equations for an ideal gas
  (5) All vibrations are strictly harmonic

freq.      10.74  E(vib)   ...       0.58 
freq.      19.85  E(vib)   ...       0.56 
freq.      29.60  E(vib)   ...       0.55 
freq.      32.20  E(vib)   ...       0.55 
freq.      35.31  E(vib)   ...       0.54 
freq.      41.96  E(vib)   ...       0.53 
freq.      45.03  E(vib)   ...       0.53 
freq.      51.43  E(vib)   ...       0.52 
freq.      54.12  E(vib)   ...       0.52 
freq.      60.54  E(vib)   ...       0.51 
freq.      78.70  E(vib)   ...       0.49 
freq.      79.69  E(vib)   ...       0.49 
freq.      83.19  E(vib)   ...       0.48 
freq.      93.31  E(vib)   ...       0.47 
freq.      96.04  E(vib)   ...       0.47 
freq.      98.12  E(vib)   ...       0.46 
freq.     102.71  E(vib)   ...       0.46 
freq.     103.18  E(vib)   ...       0.46 
freq.     103.75  E(vib)   ...       0.46 
freq.     109.37  E(vib)   ...       0.45 
freq.     110.67  E(vib)   ...       0.45 
freq.     114.35  E(vib)   ...       0.44 
freq.     119.22  E(vib)   ...       0.44 
freq.     125.39  E(vib)   ...       0.43 
freq.     128.37  E(vib)   ...       0.43 
freq.     140.99  E(vib)   ...       0.41 
freq.     146.46  E(vib)   ...       0.41 
freq.     149.34  E(vib)   ...       0.40 
freq.     151.30  E(vib)   ...       0.40 
freq.     152.91  E(vib)   ...       0.40 
freq.     156.05  E(vib)   ...       0.40 
freq.     158.17  E(vib)   ...       0.39 
freq.     158.40  E(vib)   ...       0.39 
freq.     162.12  E(vib)   ...       0.39 
freq.     164.94  E(vib)   ...       0.39 
freq.     167.05  E(vib)   ...       0.39 
freq.     168.70  E(vib)   ...       0.38 
freq.     169.35  E(vib)   ...       0.38 
freq.     171.40  E(vib)   ...       0.38 
freq.     174.81  E(vib)   ...       0.38 
freq.     185.15  E(vib)   ...       0.37 
freq.     187.08  E(vib)   ...       0.36 
freq.     189.92  E(vib)   ...       0.36 
freq.     192.25  E(vib)   ...       0.36 
freq.     194.99  E(vib)   ...       0.36 
freq.     197.86  E(vib)   ...       0.35 
freq.     203.63  E(vib)   ...       0.35 
freq.     209.37  E(vib)   ...       0.34 
freq.     210.71  E(vib)   ...       0.34 
freq.     211.86  E(vib)   ...       0.34 
freq.     227.75  E(vib)   ...       0.33 
freq.     229.25  E(vib)   ...       0.32 
freq.     231.93  E(vib)   ...       0.32 
freq.     235.52  E(vib)   ...       0.32 
freq.     242.57  E(vib)   ...       0.31 
freq.     258.01  E(vib)   ...       0.30 
freq.     259.17  E(vib)   ...       0.30 
freq.     259.85  E(vib)   ...       0.30 
freq.     261.42  E(vib)   ...       0.30 
freq.     263.18  E(vib)   ...       0.29 
freq.     265.10  E(vib)   ...       0.29 
freq.     265.60  E(vib)   ...       0.29 
freq.     267.08  E(vib)   ...       0.29 
freq.     270.73  E(vib)   ...       0.29 
freq.     272.07  E(vib)   ...       0.29 
freq.     273.99  E(vib)   ...       0.28 
freq.     275.78  E(vib)   ...       0.28 
freq.     277.07  E(vib)   ...       0.28 
freq.     278.01  E(vib)   ...       0.28 
freq.     279.97  E(vib)   ...       0.28 
freq.     285.09  E(vib)   ...       0.28 
freq.     288.97  E(vib)   ...       0.27 
freq.     290.58  E(vib)   ...       0.27 
freq.     291.95  E(vib)   ...       0.27 
freq.     293.84  E(vib)   ...       0.27 
freq.     301.04  E(vib)   ...       0.26 
freq.     305.04  E(vib)   ...       0.26 
freq.     306.42  E(vib)   ...       0.26 
freq.     307.96  E(vib)   ...       0.26 
freq.     309.60  E(vib)   ...       0.26 
freq.     312.42  E(vib)   ...       0.25 
freq.     314.08  E(vib)   ...       0.25 
freq.     316.69  E(vib)   ...       0.25 
freq.     321.08  E(vib)   ...       0.25 
freq.     322.61  E(vib)   ...       0.25 
freq.     328.99  E(vib)   ...       0.24 
freq.     337.14  E(vib)   ...       0.24 
freq.     339.94  E(vib)   ...       0.23 
freq.     346.19  E(vib)   ...       0.23 
freq.     349.16  E(vib)   ...       0.23 
freq.     350.81  E(vib)   ...       0.23 
freq.     360.41  E(vib)   ...       0.22 
freq.     370.56  E(vib)   ...       0.21 
freq.     385.73  E(vib)   ...       0.20 
freq.     393.67  E(vib)   ...       0.20 
freq.     399.90  E(vib)   ...       0.19 
freq.     401.58  E(vib)   ...       0.19 
freq.     402.44  E(vib)   ...       0.19 
freq.     408.70  E(vib)   ...       0.19 
freq.     413.28  E(vib)   ...       0.19 
freq.     414.71  E(vib)   ...       0.19 
freq.     416.14  E(vib)   ...       0.18 
freq.     421.75  E(vib)   ...       0.18 
freq.     424.37  E(vib)   ...       0.18 
freq.     431.17  E(vib)   ...       0.18 
freq.     471.47  E(vib)   ...       0.15 
freq.     479.29  E(vib)   ...       0.15 
freq.     482.18  E(vib)   ...       0.15 
freq.     494.42  E(vib)   ...       0.14 
freq.     498.70  E(vib)   ...       0.14 
freq.     521.75  E(vib)   ...       0.13 
freq.     523.91  E(vib)   ...       0.13 
freq.     538.47  E(vib)   ...       0.12 
freq.     624.06  E(vib)   ...       0.09 
freq.     672.00  E(vib)   ...       0.08 
freq.     678.09  E(vib)   ...       0.08 
freq.     683.45  E(vib)   ...       0.07 
freq.     685.39  E(vib)   ...       0.07 
freq.     686.66  E(vib)   ...       0.07 
freq.     692.58  E(vib)   ...       0.07 
freq.     713.42  E(vib)   ...       0.07 
freq.     729.42  E(vib)   ...       0.06 
freq.     732.97  E(vib)   ...       0.06 
freq.     733.46  E(vib)   ...       0.06 
freq.     734.45  E(vib)   ...       0.06 
freq.     735.33  E(vib)   ...       0.06 
freq.     736.02  E(vib)   ...       0.06 
freq.     736.98  E(vib)   ...       0.06 
freq.     737.39  E(vib)   ...       0.06 
freq.     738.28  E(vib)   ...       0.06 
freq.     738.89  E(vib)   ...       0.06 
freq.     740.05  E(vib)   ...       0.06 
freq.     740.85  E(vib)   ...       0.06 
freq.     741.87  E(vib)   ...       0.06 
freq.     742.79  E(vib)   ...       0.06 
freq.     785.93  E(vib)   ...       0.05 
freq.     922.76  E(vib)   ...       0.03 
freq.     980.97  E(vib)   ...       0.02 
freq.     998.65  E(vib)   ...       0.02 
freq.     999.13  E(vib)   ...       0.02 
freq.     999.58  E(vib)   ...       0.02 
freq.     999.74  E(vib)   ...       0.02 
freq.    1001.18  E(vib)   ...       0.02 
freq.    1001.39  E(vib)   ...       0.02 
freq.    1001.55  E(vib)   ...       0.02 
freq.    1002.03  E(vib)   ...       0.02 
freq.    1006.17  E(vib)   ...       0.02 
freq.    1006.61  E(vib)   ...       0.02 
freq.    1007.03  E(vib)   ...       0.02 
freq.    1007.28  E(vib)   ...       0.02 
freq.    1049.10  E(vib)   ...       0.02 
freq.    1346.69  E(vib)   ...       0.01 
freq.    1347.49  E(vib)   ...       0.01 
freq.    1348.53  E(vib)   ...       0.01 
freq.    1350.82  E(vib)   ...       0.01 
freq.    1353.03  E(vib)   ...       0.01 
freq.    1354.21  E(vib)   ...       0.01 
freq.    1354.57  E(vib)   ...       0.01 
freq.    1355.40  E(vib)   ...       0.01 
freq.    1356.80  E(vib)   ...       0.01 
freq.    1358.39  E(vib)   ...       0.01 
freq.    1358.61  E(vib)   ...       0.01 
freq.    1359.45  E(vib)   ...       0.01 
freq.    1360.61  E(vib)   ...       0.01 
freq.    1361.45  E(vib)   ...       0.01 
freq.    1363.47  E(vib)   ...       0.01 
freq.    1364.39  E(vib)   ...       0.01 
freq.    1364.74  E(vib)   ...       0.01 
freq.    1365.15  E(vib)   ...       0.01 
freq.    1365.30  E(vib)   ...       0.01 
freq.    1366.86  E(vib)   ...       0.01 
freq.    1367.86  E(vib)   ...       0.01 
freq.    1371.00  E(vib)   ...       0.01 
freq.    1372.01  E(vib)   ...       0.01 
freq.    1379.97  E(vib)   ...       0.01 
freq.    1537.92  E(vib)   ...       0.00 
freq.    1545.92  E(vib)   ...       0.00 
freq.    1562.12  E(vib)   ...       0.00 
freq.    1564.05  E(vib)   ...       0.00 
freq.    1568.14  E(vib)   ...       0.00 
freq.    1575.18  E(vib)   ...       0.00 
freq.    1576.48  E(vib)   ...       0.00 
freq.    1628.14  E(vib)   ...       0.00 
freq.    1631.19  E(vib)   ...       0.00 
freq.    1635.48  E(vib)   ...       0.00 
freq.    1637.27  E(vib)   ...       0.00 
freq.    1638.35  E(vib)   ...       0.00 
freq.    1676.18  E(vib)   ...       0.00 
freq.    1772.31  E(vib)   ...       0.00 
freq.    1797.37  E(vib)   ...       0.00 
freq.    1874.90  E(vib)   ...       0.00 
freq.    1883.39  E(vib)   ...       0.00 
freq.    1888.73  E(vib)   ...       0.00 
freq.    1889.26  E(vib)   ...       0.00 
freq.    1893.80  E(vib)   ...       0.00 
freq.    1905.38  E(vib)   ...       0.00 
freq.    2885.78  E(vib)   ...       0.00 
freq.    2886.38  E(vib)   ...       0.00 
freq.    2889.53  E(vib)   ...       0.00 
freq.    2890.10  E(vib)   ...       0.00 
freq.    2895.35  E(vib)   ...       0.00 
freq.    2903.77  E(vib)   ...       0.00 
freq.    2903.92  E(vib)   ...       0.00 
freq.    2905.56  E(vib)   ...       0.00 
freq.    2907.12  E(vib)   ...       0.00 
freq.    2907.47  E(vib)   ...       0.00 
freq.    2908.19  E(vib)   ...       0.00 
freq.    2914.31  E(vib)   ...       0.00 

------------
INNER ENERGY
------------

The inner energy is: U= E(el) + E(ZPE) + E(vib) + E(rot) + E(trans)
    E(el)   - is the total energy from the electronic structure calculation
              = E(kin-el) + E(nuc-el) + E(el-el) + E(nuc-nuc)
    E(ZPE)  - the the zero temperature vibrational energy from the frequency calculation
    E(vib)  - the the finite temperature correction to E(ZPE) due to population
              of excited vibrational states
    E(rot)  - is the rotational thermal energy
    E(trans)- is the translational thermal energy

Summary of contributions to the inner energy U:
Electronic energy                ...  -3732.51424248 Eh
Zero point energy                ...      0.37001819 Eh     232.19 kcal/mol
Thermal vibrational correction   ...      0.06184046 Eh      38.81 kcal/mol
Thermal rotational correction    ...      0.00141627 Eh       0.89 kcal/mol
Thermal translational correction ...      0.00141627 Eh       0.89 kcal/mol
-----------------------------------------------------------------------
Total thermal energy                  -3732.07955129 Eh


Summary of corrections to the electronic energy:
(perhaps to be used in another calculation)
Total thermal correction                  0.06467300 Eh      40.58 kcal/mol
Non-thermal (ZPE) correction              0.37001819 Eh     232.19 kcal/mol
-----------------------------------------------------------------------
Total correction                          0.43469119 Eh     272.77 kcal/mol


--------
ENTHALPY
--------

The enthalpy is H = U + kB*T
                kB is Boltzmann's constant
Total thermal energy              ...  -3732.07955129 Eh 
Thermal Enthalpy correction       ...      0.00094421 Eh       0.59 kcal/mol
-----------------------------------------------------------------------
Total Enthalpy                    ...  -3732.07860708 Eh


Note: Only C1 symmetry has been detected, increase convergence thresholds 
      if your molecule has a higher symmetry. Symmetry factor of 1.0 is   
      used for the rotational entropy correction. 
 

Note: Rotational entropy computed according to Herzberg 
Infrared and Raman Spectra, Chapter V,1, Van Nostrand Reinhold, 1945 
Point Group:  C1, Symmetry Number:   1  
Rotational constants in cm-1:     0.001796     0.001257     0.001225 

Vibrational entropy computed according to the QRRHO of S. Grimme
Chem.Eur.J. 2012 18 9955 using a reference frequency of 100.0 cm-1


-------
ENTROPY
-------

The entropy contributions are T*S = T*(S(el)+S(vib)+S(rot)+S(trans))
     S(el)   - electronic entropy
     S(vib)  - vibrational entropy
     S(rot)  - rotational entropy
     S(trans)- translational entropy
The entropies will be listed as multiplied by the temperature to get
units of energy

Electronic entropy                ...      0.00000000 Eh      0.00 kcal/mol
Vibrational entropy               ...      0.11162490 Eh     70.05 kcal/mol
Rotational entropy                ...      0.01881353 Eh     11.81 kcal/mol
Translational entropy             ...      0.02247478 Eh     14.10 kcal/mol
-----------------------------------------------------------------------
Final entropy term                ...      0.15291321 Eh     95.95 kcal/mol

In case the symmetry of your molecule has not been determined correctly
or in case you have a reason to use a different symmetry number we print 
out the resulting rotational entropy values for sn=1,12:

 non-linear molecules -----------------------------------
|  sn= 1 | S(rot)=       0.01881353 Eh     11.81 kcal/mol|
|  sn= 2 | S(rot)=       0.01815907 Eh     11.39 kcal/mol|
|  sn= 3 | S(rot)=       0.01777624 Eh     11.15 kcal/mol|
|  sn= 4 | S(rot)=       0.01750462 Eh     10.98 kcal/mol|
|  sn= 5 | S(rot)=       0.01729393 Eh     10.85 kcal/mol|
|  sn= 6 | S(rot)=       0.01712178 Eh     10.74 kcal/mol|
|  sn= 7 | S(rot)=       0.01697624 Eh     10.65 kcal/mol|
|  sn= 8 | S(rot)=       0.01685016 Eh     10.57 kcal/mol|
|  sn= 9 | S(rot)=       0.01673895 Eh     10.50 kcal/mol|
|  sn=10 | S(rot)=       0.01663947 Eh     10.44 kcal/mol|
|  sn=11 | S(rot)=       0.01654948 Eh     10.38 kcal/mol|
|  sn=12 | S(rot)=       0.01646733 Eh     10.33 kcal/mol|
 linear molecules ---------------------------------------
|  Dinfh | S(rot)=       0.01165600 Eh      7.31 kcal/mol|
|  Cinfv | S(rot)=       0.01231046 Eh      7.72 kcal/mol|
 --------------------------------------------------------


-------------------
GIBBS FREE ENERGY
-------------------

The Gibbs free energy is G = H - T*S

Total enthalpy                    ...  -3732.07860708 Eh 
Total entropy correction          ...     -0.15291321 Eh    -95.95 kcal/mol
-----------------------------------------------------------------------
Final Gibbs free energy         ...  -3732.23152028 Eh

For completeness - the Gibbs free energy minus the electronic energy
G-E(el)                           ...      0.28272220 Eh    177.41 kcal/mol


Maximum memory used throughout the entire PROP-calculation: 144.4 MB

--------------------------------
SUGGESTED CITATIONS FOR THIS RUN
--------------------------------

Below you find a list of papers that are relevant to this ORCA run
We neither can nor want to force you to cite these papers, but we appreciate if you do
You receive ORCA, which is the product of decades of hard work by many enthusiastic individuals, for free
The only thing we kindly ask in return is that you cite our papers,
We deeply appreciate it, if you show your appreciation for ORCA by not just citing the generic ORCA reference.

Please note that relegating all ORCA citations to the supporting information does *not* help us.
SI sections are not indexed - citations you put there will not count into any citation statistics
But we need these citations in order to attract the funding resources that allow us to do what we are doing

Therefore, if you are a happy ORCA user, please consider citing a few of the papers listed below in the main body of your paper

In addition to the list printed below, the program has created the file run.bibtex that contains the list in bibtex format
You can import this file easily into all common literature databanks and citation aid programs


List of essential papers. We consider these as the minimum necessary citations

  1. Neese, F.
     Software update: the ORCA program system, version 6.0
     WIRES Comput. Molec. Sci. 2025 15(1), e70019
     doi.org/10.1002/wcms.7019

List of papers to cite with high priority. The work reported in these papers was absolutely
necessary for this run to complete.
Our perspective: the developers of density functionals and basis sets usually get cited in chemistry papers
Good! But without the algorithms to do something with them, the functionals or basis sets would not do anything.
Hence, in our opinion, the algorithm design and method developments papers are equally worthy of getting cited

  1. Neese, F.
     An improvement of the resolution of the identity approximation for the formation of the Coulomb matrix
     J. Comp. Chem. 2003 24(14), 1740-1747
     doi.org/10.1002/jcc.10318
  2. Grimme, S.; Antony, J.; Ehrlich, S.; Krieg, H.
     A consistent and accurate ab initio parametrization of density functional dispersion correction (DFT-D) for the 94 elements H-Pu
     J. Chem. Phys. 2010 132 , 154104
     doi.org/10.1063/1.3382344
  3. Grimme, S.; Ehrlich, S.; Goerigk, L.
     Effect of the damping function in dispersion corrected density functional theory
     J. Comput. Chem. 2011 32(7), 1456-1465
     doi.org/10.1002/jcc.21759
  4. Bykov, D.; Petrenko, T.; Izsak, R.; Kossmann, S.; Becker, U.; Valeev, E.; Neese, F.
     Efficient implementation of the analytic second derivatives of Hartree-Fock and hybrid DFT energies: a detailed analysis of different approximations
     Molec. Phys. 2015 113 , 1961-1977
     doi.org/10.1080/00268976.2015.1025114
  5. Helmich-Paris, B.
     A trust-region augmented Hessian implementation for restricted and unrestricted Hartree–Fock and Kohn–Sham methods
     J. Chem. Phys. 2021 154 , 164104
     doi.org/10.1063/5.0040798
  6. Neese, F.
     The SHARK Integral Generation and Digestion System
     J. Comp. Chem. 2022 44(3), 381
     doi.org/10.1002/jcc.26942

List of suggested additional citations. These are papers that are important in the 'surrounding' of 
of this run, or papers that preceded the highly important papers. If you like your results we are grateful for a citation.

  1. Neese, F.
     The ORCA program system
     WIRES Comput. Molec. Sci. 2012 2(1), 73-78
     doi.org/10.1002/wcms.81
  2. Neese, F.
     Software update: the ORCA program system, version 4.0
     WIRES Comput. Molec. Sci. 2018 8(1), 1-6
     doi.org/10.1002/wcms.1327
  3. Neese, F.; Wennmohs, F.; Becker, U.; Riplinger, C.
     The ORCA quantum chemistry program package
     J. Chem. Phys. 2020 152(22), 224108
     doi.org/10.1063/5.0004608
  4. Neese, F.
     Software update: The ORCA program system—Version 5.0
     WIRES Comput. Molec. Sci. 2022 12(1), e1606
     doi.org/10.1002/wcms.1606

List of optional additional citations

  1. Neese, F.
     Approximate second-order SCF convergence for spin unrestricted wavefunctions
     Chem. Phys. Lett. 2000 325(1-3), 93-98
     doi.org/10.1016/s0009-2614(00)00662-x

Timings for individual modules:

Sum of individual times          ...     7370.503 sec (= 122.842 min)
Startup calculation              ...      262.725 sec (=   4.379 min)   3.6 %
SCF iterations                   ...     2141.886 sec (=  35.698 min)  29.1 %
Property integrals               ...     1556.565 sec (=  25.943 min)  21.1 %
SCF Response                     ...     1371.143 sec (=  22.852 min)  18.6 %
Property calculations            ...     1314.689 sec (=  21.911 min)  17.8 %
SCF Gradient evaluation          ...      696.928 sec (=  11.615 min)   9.5 %
Geometry relaxation              ...       26.568 sec (=   0.443 min)   0.4 %
                             ****ORCA TERMINATED NORMALLY****
TOTAL RUN TIME: 0 days 2 hours 3 minutes 9 seconds 27 msec
