
                                 *****************
                                 * O   R   C   A *
                                 *****************

                                            #,                                       
                                            ###                                      
                                            ####                                     
                                            #####                                    
                                            ######                                   
                                           ########,                                 
                                     ,,################,,,,,                         
                               ,,#################################,,                 
                          ,,##########################################,,             
                       ,#########################################, ''#####,          
                    ,#############################################,,   '####,        
                  ,##################################################,,,,####,       
                ,###########''''           ''''###############################       
              ,#####''   ,,,,##########,,,,          '''####'''          '####       
            ,##' ,,,,###########################,,,                        '##       
           ' ,,###''''                  '''############,,,                           
         ,,##''                                '''############,,,,        ,,,,,,###''
      ,#''                                            '''#######################'''  
     '                                                          ''''####''''         
             ,#######,   #######,   ,#######,      ##                                
            ,#'     '#,  ##    ##  ,#'     '#,    #''#        ,####,    ,#,          
            ##       ##  ##   ,#'  ##            #'  '#       #'       ,# #          
            ##       ##  #######   ##           ,######,      #####,      #          
            '#,     ,#'  ##    ##  '#,     ,#' ,#      #,     #,   #      #          
             '#######'   ##     ##  '#######'  #'      '#     '####' #    #          



                #########################################################
                #                        -***-                          #
                #          Department of theory and spectroscopy        #
                #                                                       #
                #                      Frank Neese                      #
                #                                                       #
                #     Directorship, Architecture, Infrastructure        #
                #                    SHARK, DRIVERS                     #
                #        Core code/Algorithms in most modules           #
                #                                                       #
                #        Max Planck Institute fuer Kohlenforschung      #
                #                Kaiser Wilhelm Platz 1                 #
                #                 D-45470 Muelheim/Ruhr                 #
                #                      Germany                          #
                #                                                       #
                #                  All rights reserved                  #
                #                        -***-                          #
                #########################################################


                         Program Version 6.1.0  -  RELEASE   -
                                (GIT: $679e74b$)
                          ($2025-06-10 18:02:51 +0200$)


 With contributions from (in alphabetic order):
[Max-Planck-Institut fuer Kohlenforschung]                               
  Daniel Aravena         : Magnetic Suceptibility                        
  Michael Atanasov       : Ab Initio Ligand Field Theory (pilot matlab implementation)
  Alexander A. Auer      : GIAO ZORA, VPT2 properties, NMR spectrum      
  Ute Becker             : All parallelization in ORCA, NUMFREQ, NUMCALC 
  Giovanni Bistoni       : ED, misc. LED, open-shell LED, HFLD           
  Dmytro Bykov           : pre 5.0 version of the SCF Hessian            
  Marcos Casanova-Páez   : Triplet and SCS-CIS(D). UHF-(DLPNO)-IP/EA/STEOM-CCSD. UHF-CVS-IP/STEOM-CCSD   
  Vijay G. Chilkuri      : MRCI spin determinant printing, contributions to CSF-ICE 
  Pauline Colinet        : FMM embedding                                 
  Dipayan Datta          : RHF DLPNO-CCSD density                        
  Achintya Kumar Dutta   : EOM-CC, STEOM-CC                              
  Nicolas Foglia         : Exact transition moments, OPA infrastructure, MCD improvements    
  Dmitry Ganyushin       : Spin-Orbit,Spin-Spin,Magnetic field MRCI      
  Miquel Garcia-Rates    : C-PCM and meta-GGA Hessian, CCSD/C-PCM, Gaussian charge scheme 
  Tiago L. C. Gouveia    : GS-ROHF, GS-ROCIS                             
  Yang Guo               : DLPNO-NEVPT2, F12-NEVPT2, CIM, IAO-localization        
  Andreas Hansen         : Spin unrestricted coupled pair/coupled cluster methods 
  Ingolf Harden          : AUTO-CI MPn and infrastructure                
  Benjamin Helmich-Paris : MC-RPA, TRAH-(SCF,CASSCF), AVAS, COSX integrals, SCF dyn. polar., MC-PDFT, srDFT 
  Lee Huntington         : MR-EOM, pCC                                   
  Robert Izsak           : Overlap fitted RIJCOSX, COSX-SCS-MP3, EOM     
  Riya Kayal             : Wick's Theorem for AUTO-CI, AUTO-CI UHF-CCSDT 
  Emily Kempfer          : AUTO-CI RHF CISDT and CCSDT, approximate NEVPT4
  Christian Kollmar      : KDIIS, OOCD, Brueckner-CCSD(T), CCSD density, CASPT2, CASPT2-K, improved NEVPT2 
  Axel Koslowski         : Symmetry handling                             
  Simone Kossmann        : meta-GGA functionals, TD-DFT gradient, OOMP2, (MP2 Hessian; deprecated post 5.0) 
  Lucas Lang             : DCDCAS, Hyperfine gauge corrections, ICE-SOC+SSC
  Marvin Lechner         : AUTO-CI (C++ implementation), FIC-MRCC        
  Spencer Leger          : CASSCF response                               
  Dagmar Lenk            : GEPOL surface, SMD, ORCA-2-JSON               
  Dimitrios Liakos       : Extrapolation schemes; Compound Job, Property file
  Dimitrios Manganas     : Further ROCIS development; embedding schemes. LFT, Crystal Embedding 
  Dimitrios Pantazis     : SARC Basis sets                               
  Anastasios Papadopoulos: AUTO-CI, single reference methods and gradients 
  Taras Petrenko         : pre 6.0 DFT Hessian and TD-DFT gradient,  ECA, NRVS 
  Petra Pikulova         : Analytic Raman intensities                    
  Peter Pinski           : DLPNO-MP2, DLPNO-MP2 Gradient                 
  Shashank Vittal Rao    : ES-AILFT, MagRelax                            
  Christoph Reimann      : Effective Core Potentials                     
  Marius Retegan         : Local ZFS, SOC                                
  Christoph Riplinger    : Optimizer, TS searches, QM/MM, DLPNO-CCSD(T), (RO)-DLPNO pert. Triples 
  Michael Roemelt        : Original ROCIS implementation, recursive CI coupling coefficients
  Masaaki Saitow         : Open-shell DLPNO-CCSD energy and density      
  Barbara Sandhoefer     : DKH picture change effects                    
  Yorick L. A. Schmerwitz: GMF and freeze-and-release deltaSCF, NEB S-IDPP initial path                    
  Kantharuban Sivalingam : CASSCF convergence/infrastructure, NEVPT2, NEVPT3, NEVPT4(SD), FIC-MRCI and CEPA variants
  Bernardo de Souza      : ESD, SOC TD-DFT                               
  Georgi L. Stoychev     : AutoAux, RI-MP2 NMR, DLPNO-MP2 response, X2C  
  Van Anh Tran           : RI-MP2 g-tensors                              
  Willem Van den Heuvel  : Paramagnetic NMR                              
  Zikuan Wang            : NOTCH, Electric field optimization            
  Frank Wennmohs         : Technical directorship and infrastructure     
  Hang Xu                : AUTO-CI-Response properties                   
                                                                         
[FACCTs GmbH]                                                            
  Markus Bursch, Nicolas Foglia, Miquel Garcia-Rates, Ingolf Harden, Hagen Neugebauer, Anastasios Papadopoulos, 
  Christoph Riplinger, Bernardo de Souza, Georgi L. Stoychev                                                    
                                                                 
  APM, various basis sets, CI-OPT, improved COSX, DLPNO-Multilevel,           
  DOCKER, DRACO, updates on ESD, Fragmentator, GOAT, IRC, LR-CPCM, L-BFGS, MBIS, meta-GGA TD-DFT gradient, ML-optimized integration grids, 
  MM, NACMEs, nearIR, NEB, NEB-TS, NL-DFT gradient (VV10), 2- and 3-layer-ONIOM, interface openCOSMO-RS, QMMM,   
  Crystal-QMMM, RESP, rigid body optimization, SF, symmetry and pop. for TD-DFT, various functionals, SOLVATOR                                   
                                                                         
[Other institutions]                                                     
  V. Asgeirsson          : NEB                                           
  Christoph Bannwarth    : sTDA-DFT, sTD-DFT, PBEh-3c, B97-3c, D3        
  Giovanni Bistoni       : ETS/NOCV, ADLD/ADEX, COVALED                  
  Martin Brehm           : Molecular dynamics                            
  Ronald Cardenas        : ETS/NOCV                                      
  Martina Colucci        : COVALED                                       
  Sebastian Ehlert       : rSCAN, r2SCAN, r2SCAN-3c, D4, dhf basis sets  
  Marvin Friede          : D4 for Fr, Ra, Ac-Lr                          
  Lars Goerigk           : TD-DFT with DH, B97 family of functionals     
  Stefan Grimme          : VdW corrections, initial TS optimization, DFT functionals, gCP, sTDA/sTD-DF 
  Waldemar Hujo          : DFT-NL                                        
  H. Jonsson             : NEB                                           
  Holger Kruse           : gCP                                           
  Marcel Mueller         : wB97X-3c, vDZP basis set                      
  Hagen Neugebauer       : wr2SCAN, Native XTB                           
  Gianluca Regni         : ADLD/ADEX                                     
  Tobias Risthaus        : pre 6.0 range-separated hybrid DFT and stability analysis
  Lukas Wittmann         : regularized MP2, r2SCAN double-hybrids, wr2SCAN        
                                                                         
We gratefully acknowledge several colleagues who have allowed us to      
interface, adapt or use parts of their codes:                            
  Ed Valeev, F. Pavosevic, A. Kumar             : LibInt (2-el integral package), F12 methods 
  Garnet Chan, S. Sharma, J. Yang, R. Olivares  : DMRG                   
  Ulf Ekstrom                                   : XCFun DFT Library      
  Mihaly Kallay                                 : mrcc  (arbitrary order and MRCC methods)
  Frank Weinhold                                : gennbo (NPA and NBO analysis)           
  Simon Mueller                                 : openCOSMO-RS                            
  Christopher J. Cramer and Donald G. Truhlar   : smd solvation model                     
  S Lehtola, MJT Oliveira, MAL Marques          : LibXC Library                           
  Liviu Ungur et al                             : ANISO software                          


 Your calculation uses the libint2 library for the computation of 2-el integrals
 For citations please refer to: http://libint.valeyev.net

 Your ORCA version has been built with support for libXC version: 7.0.0
 For citations please refer to: https://libxc.gitlab.io

 This ORCA versions uses:
   CBLAS   interface :  Fast vector & matrix operations
   LAPACKE interface :  Fast linear algebra routines
   SCALAPACK package :  Parallel linear algebra routines
   Shared memory     :  Shared parallel matrices
   BLAS/LAPACK       :  OpenBLAS 0.3.29  USE64BITINT DYNAMIC_ARCH NO_AFFINITY Prescott SINGLE_THREADED
        Core in use  :  Prescott
   Copyright (c) 2011-2014, The OpenBLAS Project


  ***********************************
  * Starting time: Wed Aug 13 02:06:44 2025
  * Host name:     cuda7
  * Process ID:    119082
  * Working dir.:  /local/scratch/mehlhorn/61851
  ***********************************



***************************************
The coordinates will be read from file: start.xyz
***************************************


Your calculation utilizes the geometrical counterpoise correction gCP
Please cite in your paper:
H.Kruse, S. Grimme J.Chem.Phys., 136, (2012), 154101 
   

Your calculation utilizes the atom-pairwise dispersion correction
with the Becke-Johnson damping scheme (D3BJ)


Warning: RI is on but no J-basis has been assigned. Assigning Def2/J (nothing to worry about!)
================================================================================

cite the ECPs for Zr [Def2-ECP] as follows:
Ce-Yb(ecp-28): M. Dolg, H. Stoll, H.Preuss, J. Chem. Phys., 1989, 90, 1730-1734.
Y-Cd(ecp-28), Hf-Hg(ecp-46): D. Andrae,U. Haeussermann, M. Dolg, H. Stoll, H. Preuss, Theor. Chim. Acta, 1990, 77, 123-141.
In-Sb(ecp-28), Tl-Bi(ecp-46): B. Metz, H. Stoll, M. Dolg, J. Chem. Phys., 2000, 113, 2563-2569.
Te-Xe(ecp-28), Po-Rn(ecp-46): K. A. Peterson, D. Figgen, E. Goll, H. Stoll, M. Dolg, J. Chem. Phys., 2003, 119, 11113-11123.
Rb(ecp-28), Cs(ecp-46): T. Leininger, A. Nicklass, W. Kuechle, H. Stoll, M. Dolg, A. Bergner, Chem. Phys. Lett., 1996, 255, 274-280.
Sr(ecp-28), Ba(ecp-46): M. Kaupp, P. V. Schleyer, H. Stoll and H. Preuss, J. Chem. Phys., 1991, 94, 1360-1366.
La(ecp-46): M. Dolg, H. Stoll, A. Savin, H. Preuss, Theor. Chim. Acta, 1989, 75, 173-194.
Lu(ecp-28): X. Cao, M. Dolg, J. Chem. Phys., 2001, 115, 7348-7355.

ECP parameters for Zr [Def2-ECP] have been obtained from:
TURBOMOLE (7.0.2)

----- Orbital basis set information -----
Your calculation utilizes the basis: def2-SV(P)
   F. Weigend and R. Ahlrichs, Phys. Chem. Chem. Phys. 7, 3297 (2005).

----- AuxJ basis set information -----
Your calculation utilizes the auxiliary basis: def2/J
   H-Rn: F. Weigend, Phys. Chem. Chem. Phys. 8, 1057 (2006).
   Fr-Lr: K. Eichkorn, F. Weigend, O. Treutler, R. Ahlrichs; Theor. Chem. Acc. 97, 119 (1997).

================================================================================
                                        WARNINGS
                       Please study these warnings very carefully!
================================================================================


WARNING: Gradients are needed
  ===> : At least TightSCF should be used for SCF convergence

WARNING: Geometry Optimization
  ===> : Switching off AutoStart
         For restart on a previous wavefunction, please use MOREAD

================================================================================
                                       INPUT FILE
================================================================================
NAME = run.inp
|  1> # Geometry optimization for (AlH3)n cluster
|  2> 
|  3> %pal nprocs 24  end
|  4> 
|  5> %geom MaxIter 500 end
|  6> 
|  7> 
|  8> ! PBE def2-SV(P)
|  9> ! RKS	# closed shell for AlH3
| 10> ! D3    #  dispersion correction
| 11> ! gCP(DFT/SV(P))
| 12> ! Freq 	# Frequency analysis to check the stabiltity of the structures
| 13> 
| 14> ! NoPop # population analysis not necessary	
| 15> 
| 16> ! DEFGRID2
| 17> ! NormalSCF
| 18> ! SloppyOpt
| 19> 
| 20> ! SmallPrint
| 21> 
| 22> 
| 23> * xyzFile 0 1 start.xyz # only maingroup elements H and Al so there should be no net spin
| 24> 
| 25>                          ****END OF INPUT****
================================================================================

                       *****************************
                       * Geometry Optimization Run *
                       *****************************

Geometry optimization settings:
Update method            Update   .... BFGS
Choice of coordinates    CoordSys .... (2022) Redundant Internals
Initial Hessian          InHess   .... Almloef's Model
Max. no of cycles        MaxIter  .... 500

Convergence Tolerances:
Energy Change            TolE     ....  8.0000e-05 Eh
Max. Gradient            TolMAXG  ....  5.0000e-03 Eh/bohr
RMS Gradient             TolRMSG  ....  1.0000e-03 Eh/bohr
Max. Displacement        TolMAXD  ....  3.0000e-02 bohr
RMS Displacement         TolRMSD  ....  2.0000e-02 bohr
Strict Convergence                .... False

------------------------------------------------------------------------------
                        ORCA OPTIMIZATION COORDINATE SETUP
------------------------------------------------------------------------------

The optimization will be done in redundant internal coordinates (2022)
Making redundant internal coordinates   ...  (2022 redundants) done
Evaluating the initial hessian          ...  (Almloef) done
Evaluating the coordinates              ...  done
Calculating the B-matrix                .... done
Calculating the G-matrix                .... done
The number of degrees of freedom        ....  864

    -----------------------------------------------------------------
                    Redundant Internal Coordinates


    -----------------------------------------------------------------
         Definition                    Initial Value    Approx d2E/dq
    -----------------------------------------------------------------
      1. B(Zr  2,Zr  1)                  3.4022         0.039413   
      2. B(Zr  3,Zr  0)                  3.4164         0.037410   
      3. B(Zr  4,Zr  3)                  3.4208         0.036809   
      4. B(Zr  4,Zr  1)                  3.4279         0.035859   
      5. B(Zr  5,Zr  2)                  3.4354         0.034890   
      6. B(Zr  5,Zr  0)                  3.3441         0.048789   
      7. B(O   6,Zr  0)                  2.1324         0.370308   
      8. B(O   6,Zr  3)                  2.0963         0.422737   
      9. B(O   6,Zr  5)                  2.0746         0.457844   
     10. B(O   7,Zr  2)                  2.1117         0.399558   
     11. B(O   7,Zr  1)                  2.1066         0.407113   
     12. B(O   7,Zr  4)                  2.1539         0.342136   
     13. B(O   8,Zr  2)                  2.1246         0.381031   
     14. B(O   8,Zr  1)                  2.1785         0.312633   
     15. B(O   8,Zr  5)                  2.1829         0.307647   
     16. B(O   9,Zr  4)                  2.1178         0.390740   
     17. B(O   9,Zr  3)                  2.1080         0.404952   
     18. B(O   9,Zr  0)                  2.1410         0.358797   
     19. B(O  10,Zr  4)                  2.0931         0.427747   
     20. B(O  10,Zr  3)                  2.1115         0.399786   
     21. B(O  10,Zr  1)                  2.1389         0.361549   
     22. B(O  11,Zr  5)                  2.0911         0.430884   
     23. B(O  11,Zr  2)                  2.1209         0.386267   
     24. B(O  11,Zr  0)                  2.1689         0.323867   
     25. B(O  12,Zr  0)                  1.9729         0.665426   
     26. B(O  13,Zr  0)                  1.9811         0.645475   
     27. B(O  14,Zr  0)                  2.0726         0.461261   
     28. B(O  15,Zr  0)                  2.0508         0.499792   
     29. B(O  16,Zr  1)                  2.0285         0.542431   
     30. B(O  17,Zr  1)                  2.0691         0.467300   
     31. B(O  18,Zr  1)                  1.9783         0.652195   
     32. B(O  19,Zr  1)                  1.9817         0.644105   
     33. B(O  20,Zr  2)                  1.9783         0.652320   
     34. B(O  21,Zr  2)                  2.0346         0.530388   
     35. B(O  22,Zr  2)                  1.9731         0.664921   
     36. B(O  23,Zr  2)                  2.0822         0.445210   
     37. B(O  24,Zr  3)                  2.0546         0.492840   
     38. B(O  25,Zr  3)                  1.9888         0.627495   
     39. B(O  26,Zr  3)                  2.0334         0.532678   
     40. B(O  27,Zr  3)                  1.9847         0.637091   
     41. B(O  28,Zr  4)                  1.9902         0.624306   
     42. B(O  29,Zr  4)                  2.0663         0.471993   
     43. B(O  30,Zr  4)                  1.9876         0.630372   
     44. B(O  31,Zr  4)                  2.0258         0.547707   
     45. B(O  32,Zr  5)                  2.0691         0.467261   
     46. B(O  33,Zr  5)                  1.9848         0.636893   
     47. B(O  34,Zr  5)                  1.9903         0.624047   
     48. B(O  35,Zr  5)                  1.9725         0.666232   
     49. B(C  36,O  33)                  1.2989         0.781970   
     50. B(C  36,O  12)                  1.2990         0.781756   
     51. B(C  37,O  25)                  1.3009         0.776283   
     52. B(C  37,O  13)                  1.3018         0.773605   
     53. B(C  38,O  21)                  1.2968         0.788189   
     54. B(C  38,O  14)                  1.2994         0.780497   
     55. B(C  39,O  29)                  1.3016         0.774200   
     56. B(C  39,O  15)                  1.2991         0.781386   
     57. B(C  40,O  34)                  1.2948         0.793844   
     58. B(C  40,O  16)                  1.2950         0.793349   
     59. B(C  41,O  26)                  1.3019         0.773342   
     60. B(C  41,O  17)                  1.2997         0.779660   
     61. B(C  42,O  18)                  1.3002         0.778209   
     62. B(C  42,O  22)                  1.3004         0.777713   
     63. B(C  43,O  19)                  1.3009         0.776304   
     64. B(C  43,O  30)                  1.3005         0.777424   
     65. B(C  44,O  35)                  1.2991         0.781504   
     66. B(C  44,O  20)                  1.2994         0.780550   
     67. B(C  45,O  31)                  1.2958         0.790893   
     68. B(C  45,O  23)                  1.2973         0.786619   
     69. B(C  46,O  32)                  1.2971         0.787181   
     70. B(C  46,O  24)                  1.2974         0.786319   
     71. B(C  47,O  28)                  1.3018         0.773716   
     72. B(C  47,O  27)                  1.3019         0.773523   
     73. B(H  48,C  41)                  1.0880         0.362778   
     74. B(H  49,C  42)                  1.0911         0.358614   
     75. B(H  50,C  38)                  1.0868         0.364394   
     76. B(H  51,C  37)                  1.0919         0.357607   
     77. B(H  52,C  43)                  1.0915         0.358084   
     78. B(H  53,C  47)                  1.0916         0.358012   
     79. B(H  54,C  39)                  1.0876         0.363230   
     80. B(H  55,C  45)                  1.0853         0.366397   
     81. B(H  56,C  40)                  1.0859         0.365578   
     82. B(H  57,C  46)                  1.0852         0.366490   
     83. B(H  58,C  36)                  1.0899         0.360201   
     84. B(H  59,C  44)                  1.0903         0.359697   
     85. B(Al 61,Al 60)                  2.6880         0.260617   
     86. B(H  62,Al 61)                  1.6745         0.294769   
     87. B(H  63,Al 61)                  1.6161         0.365261   
     88. B(H  64,Al 61)                  1.6776         0.291436   
     89. B(H  64,Al 60)                  1.6674         0.302512   
     90. B(H  65,H  50)                  2.9674         0.010000   
     91. B(H  65,O  14)                  2.8592         0.010000   
     92. B(H  65,O  12)                  2.5517         0.010000   
     93. B(H  65,Al 60)                  1.6040         0.381924   
     94. B(H  66,Al 60)                  1.6747         0.294540   
     95. B(H  66,O  12)                  3.0149         0.010000   
     96. B(H  67,Al 61)                  1.6119         0.370941   
     97. B(Al 68,H  62)                  1.6676         0.302305   
     98. B(Al 68,Al 61)                  2.7031         0.246561   
     99. B(H  69,Al 68)                  1.6746         0.294652   
    100. B(H  70,Al 68)                  1.6044         0.381330   
    101. B(H  71,Al 60)                  1.6032         0.383014   
    102. B(Al 72,H  69)                  1.6809         0.287906   
    103. B(Al 72,Al 68)                  3.3520         0.022734   
    104. B(Al 72,H  66)                  1.6832         0.285448   
    105. B(Al 72,Al 60)                  3.3555         0.022444   
    106. B(H  73,Al 72)                  1.6996         0.268753   
    107. B(H  74,H  51)                  2.7094         0.010000   
    108. B(H  74,Al 72)                  1.6125         0.370176   
    109. B(H  75,Al 68)                  1.6042         0.381647   
    110. B(Al 76,H  73)                  1.6833         0.285404   
    111. B(Al 76,Al 72)                  3.2517         0.032865   
    112. B(H  77,Al 76)                  1.6042         0.381615   
    113. B(H  78,H  58)                  2.3762         0.010000   
    114. B(H  78,Al 76)                  1.6030         0.383373   
    115. B(Al 79,Al 76)                  2.7069         0.243123   
    116. B(Al 79,Al 72)                  2.6918         0.256983   
    117. B(H  80,C  46)                  2.8560         0.010000   
    118. B(H  80,H  57)                  2.6798         0.010000   
    119. B(H  80,Al 79)                  1.6081         0.376125   
    120. B(H  81,C  36)                  2.9089         0.010000   
    121. B(H  81,O  13)                  2.3573         0.010000   
    122. B(H  81,O  12)                  2.3274         0.010000   
    123. B(H  81,Al 79)                  1.6810         0.287762   
    124. B(H  81,Al 72)                  1.6867         0.281881   
    125. B(H  82,Al 79)                  1.6854         0.283211   
    126. B(H  82,Al 72)                  1.6890         0.279503   
    127. B(H  83,Al 79)                  1.6712         0.298411   
    128. B(H  83,Al 76)                  1.6734         0.295926   
    129. A(Zr  3,Zr  0,O   9)           36.1548         0.327343   
    130. A(O   9,Zr  0,O  12)          168.0839         0.497430   
    131. A(O   6,Zr  0,O   9)           65.2616         0.446690   
    132. A(Zr  5,Zr  0,O  14)          106.6333         0.356917   
    133. A(O  11,Zr  0,O  12)           79.1025         0.488071   
    134. A(Zr  3,Zr  0,O  11)           95.2046         0.321881   
    135. A(O  12,Zr  0,O  13)           84.2342         0.555488   
    136. A(O   9,Zr  0,O  14)          109.7975         0.464920   
    137. A(Zr  5,Zr  0,O  11)           37.4617         0.336309   
    138. A(Zr  3,Zr  0,Zr  5)           72.4747         0.258866   
    139. A(Zr  3,Zr  0,O  12)          131.9507         0.363106   
    140. A(O   6,Zr  0,O  12)          104.4789         0.500360   
    141. A(Zr  3,Zr  0,O  13)           69.5446         0.361223   
    142. A(O   9,Zr  0,O  15)           69.8038         0.471809   
    143. A(Zr  5,Zr  0,O   9)           97.3323         0.342109   
    144. A(O  11,Zr  0,O  14)           70.4141         0.456306   
    145. A(Zr  3,Zr  0,O  15)           98.2757         0.345910   
    146. A(Zr  3,Zr  0,O  14)          141.6647         0.341287   
    147. A(O  14,Zr  0,O  15)           73.7072         0.494205   
    148. A(Zr  5,Zr  0,O  12)           75.1701         0.380087   
    149. A(O   9,Zr  0,O  13)           88.4902         0.494626   
    150. A(Zr  5,Zr  0,O  15)          165.8527         0.361827   
    151. A(O   6,Zr  0,O  11)           65.2833         0.438493   
    152. A(O  11,Zr  0,O  15)          136.7959         0.463036   
    153. A(O  12,Zr  0,O  15)          118.4827         0.529248   
    154. A(O   6,Zr  0,O  13)           83.9759         0.497535   
    155. A(O   9,Zr  0,O  11)          100.7191         0.436004   
    156. A(O   6,Zr  0,O  14)          132.9061         0.467617   
    157. A(O   6,Zr  0,O  15)          133.4847         0.474555   
    158. A(O  11,Zr  0,O  13)          139.5162         0.485331   
    159. A(O  13,Zr  0,O  14)          142.7692         0.518357   
    160. A(Zr  5,Zr  0,O  13)          102.5874         0.378088   
    161. A(Zr  5,Zr  0,O   6)           36.7588         0.343925   
    162. A(Zr  3,Zr  0,O   6)           35.7537         0.329053   
    163. A(O  13,Zr  0,O  15)           83.4529         0.526225   
    164. A(O  12,Zr  0,O  14)           81.4982         0.521325   
    165. A(Zr  2,Zr  1,O  19)          105.2526         0.364324   
    166. A(O  10,Zr  1,O  18)          163.8910         0.496282   
    167. A(O   8,Zr  1,O  18)           79.4559         0.483099   
    168. A(O   8,Zr  1,O  17)          134.8523         0.454457   
    169. A(O   7,Zr  1,O  18)           98.1050         0.507371   
    170. A(O   7,Zr  1,O  17)          132.3945         0.476965   
    171. A(O  10,Zr  1,O  16)          110.8096         0.479643   
    172. A(Zr  4,Zr  1,O  19)           71.3339         0.358497   
    173. A(O   7,Zr  1,O  19)           82.6099         0.506191   
    174. A(O  10,Zr  1,O  17)           69.1803         0.466681   
    175. A(Zr  4,Zr  1,O  10)           35.4584         0.325478   
    176. A(O  10,Zr  1,O  19)           91.5972         0.495133   
    177. A(O   7,Zr  1,O  16)          138.2131         0.490280   
    178. A(Zr  2,Zr  1,O  17)          161.6312         0.345036   
    179. A(Zr  4,Zr  1,O  17)           95.5745         0.339618   
    180. A(Zr  4,Zr  1,O   8)           94.8589         0.317824   
    181. A(O  16,Zr  1,O  18)           83.1131         0.535447   
    182. A(O  17,Zr  1,O  19)           82.8384         0.519416   
    183. A(O  16,Zr  1,O  19)          138.2749         0.534188   
    184. A(Zr  2,Zr  1,Zr  4)           72.2325         0.249312   
    185. A(Zr  2,Zr  1,O  10)           93.8078         0.330591   
    186. A(O   7,Zr  1,O  10)           66.2127         0.455077   
    187. A(Zr  2,Zr  1,O  18)           73.6304         0.365103   
    188. A(Zr  2,Zr  1,O   8)           37.2026         0.322772   
    189. A(O  16,Zr  1,O  17)           73.7574         0.503000   
    190. A(Zr  4,Zr  1,O  16)          143.6770         0.348219   
    191. A(O   8,Zr  1,O  19)          141.8048         0.481987   
    192. A(Zr  4,Zr  1,O  18)          128.7631         0.359260   
    193. A(Zr  4,Zr  1,O   7)           36.9027         0.331917   
    194. A(O  17,Zr  1,O  18)          124.3300         0.520634   
    195. A(O   8,Zr  1,O  10)           96.7584         0.433838   
    196. A(Zr  2,Zr  1,O  16)          107.7004         0.353823   
    197. A(O  18,Zr  1,O  19)           82.3253         0.553150   
    198. A(Zr  2,Zr  1,O   7)           36.2919         0.337169   
    199. A(O   8,Zr  1,O  16)           72.0384         0.466999   
    200. A(O   7,Zr  1,O   8)           67.2457         0.443228   
    201. A(Zr  5,Zr  2,O   8)           37.6939         0.326825   
    202. A(Zr  1,Zr  2,O  22)           72.5187         0.366313   
    203. A(Zr  5,Zr  2,O   7)           88.4683         0.329395   
    204. A(O   7,Zr  2,O   8)           68.1488         0.457884   
    205. A(Zr  1,Zr  2,O  23)           99.8191         0.342245   
    206. A(Zr  1,Zr  2,O  21)          155.8428         0.352481   
    207. A(O   8,Zr  2,O  21)          138.2313         0.482308   
    208. A(O  11,Zr  2,O  23)          118.6460         0.468198   
    209. A(O  22,Zr  2,O  23)           81.1856         0.517800   
    210. A(O  21,Zr  2,O  23)           74.3827         0.496412   
    211. A(Zr  1,Zr  2,Zr  5)           71.8372         0.248322   
    212. A(Zr  1,Zr  2,O   8)           38.3134         0.333478   
    213. A(O  11,Zr  2,O  20)           87.9065         0.502441   
    214. A(Zr  5,Zr  2,O  22)          122.4211         0.358767   
    215. A(O   8,Zr  2,O  11)           68.8640         0.455070   
    216. A(O  20,Zr  2,O  23)          136.2144         0.515947   
    217. A(O   8,Zr  2,O  23)          137.4047         0.467028   
    218. A(O  20,Zr  2,O  21)           83.6384         0.533204   
    219. A(O   7,Zr  2,O  23)           70.1581         0.471112   
    220. A(Zr  1,Zr  2,O   7)           36.1904         0.336119   
    221. A(O  21,Zr  2,O  22)          128.0045         0.535132   
    222. A(O  11,Zr  2,O  22)          157.3861         0.504236   
    223. A(O   8,Zr  2,O  22)           89.2727         0.502955   
    224. A(O   7,Zr  2,O  22)           88.3827         0.507428   
    225. A(O  20,Zr  2,O  22)           83.5092         0.556523   
    226. A(O  11,Zr  2,O  21)           71.3326         0.483524   
    227. A(O   7,Zr  2,O  11)           88.6659         0.459025   
    228. A(O   7,Zr  2,O  21)          123.2187         0.486557   
    229. A(Zr  5,Zr  2,O  21)          100.5555         0.345311   
    230. A(Zr  1,Zr  2,O  11)           92.2444         0.334234   
    231. A(Zr  5,Zr  2,O  23)          148.4129         0.335354   
    232. A(O   8,Zr  2,O  20)           82.7908         0.501166   
    233. A(O   7,Zr  2,O  20)          149.9246         0.505619   
    234. A(Zr  5,Zr  2,O  20)           71.9834         0.357601   
    235. A(Zr  1,Zr  2,O  20)          114.1484         0.365115   
    236. A(Zr  5,Zr  2,O  11)           35.0662         0.327561   
    237. A(Zr  4,Zr  3,O  10)           35.3746         0.332357   
    238. A(O   9,Zr  3,O  10)           67.9070         0.463051   
    239. A(O   9,Zr  3,O  27)           90.4191         0.504658   
    240. A(O   6,Zr  3,O  24)           71.5427         0.485027   
    241. A(O  26,Zr  3,O  27)           83.4306         0.531266   
    242. A(Zr  4,Zr  3,O  24)          154.9666         0.344160   
    243. A(O  24,Zr  3,O  25)           80.2415         0.522063   
    244. A(O  10,Zr  3,O  25)          142.3959         0.502030   
    245. A(O   9,Zr  3,O  26)          140.8057         0.488154   
    246. A(O   6,Zr  3,O  10)           83.6253         0.466708   
    247. A(Zr  0,Zr  3,O  27)          124.8674         0.360419   
    248. A(O  24,Zr  3,O  26)           80.0596         0.506300   
    249. A(Zr  0,Zr  3,Zr  4)           68.1003         0.248371   
    250. A(Zr  4,Zr  3,O  27)           72.2535         0.359426   
    251. A(O  24,Zr  3,O  27)          132.7759         0.523553   
    252. A(O  10,Zr  3,O  26)           72.9130         0.486996   
    253. A(O  10,Zr  3,O  27)           79.4765         0.503451   
    254. A(O   6,Zr  3,O  26)          108.6381         0.492056   
    255. A(Zr  4,Zr  3,O  26)          106.3629         0.348689   
    256. A(Zr  0,Zr  3,O  26)          143.5827         0.349643   
    257. A(Zr  4,Zr  3,O   6)           83.5557         0.335451   
    258. A(O   6,Zr  3,O  25)          100.1633         0.507282   
    259. A(Zr  4,Zr  3,O  25)          107.3797         0.358499   
    260. A(O  10,Zr  3,O  24)          134.8800         0.480055   
    261. A(O   9,Zr  3,O  24)          128.5645         0.481193   
    262. A(Zr  0,Zr  3,O   9)           36.8118         0.333961   
    263. A(O   6,Zr  3,O  27)          155.3261         0.508721   
    264. A(O  25,Zr  3,O  27)           82.9632         0.547972   
    265. A(Zr  0,Zr  3,O   6)           36.4663         0.336356   
    266. A(Zr  0,Zr  3,O  24)           92.1462         0.345097   
    267. A(O   6,Zr  3,O   9)           66.4693         0.467807   
    268. A(O   9,Zr  3,O  25)           79.3111         0.503232   
    269. A(Zr  4,Zr  3,O   9)           36.0482         0.333065   
    270. A(O  25,Zr  3,O  26)          137.4867         0.529749   
    271. A(Zr  0,Zr  3,O  10)           89.0106         0.333251   
    272. A(Zr  0,Zr  3,O  25)           74.3029         0.359488   
    273. A(O   9,Zr  4,O  10)           68.0632         0.465759   
    274. A(O   7,Zr  4,O  10)           66.1723         0.454601   
    275. A(Zr  3,Zr  4,O  10)           35.7331         0.336109   
    276. A(O  10,Zr  4,O  28)           91.7003         0.507915   
    277. A(O  30,Zr  4,O  31)           81.9295         0.532993   
    278. A(Zr  1,Zr  4,Zr  3)           69.1956         0.246851   
    279. A(O   9,Zr  4,O  31)          134.8085         0.487441   
    280. A(Zr  3,Zr  4,O  31)          158.1540         0.350330   
    281. A(O  29,Zr  4,O  30)          137.3744         0.518291   
    282. A(Zr  3,Zr  4,O  30)          107.5530         0.358778   
    283. A(O   7,Zr  4,O  30)           95.1100         0.488139   
    284. A(Zr  1,Zr  4,O  30)           72.7516         0.357186   
    285. A(O  28,Zr  4,O  29)           83.1476         0.517353   
    286. A(O  10,Zr  4,O  29)          139.0931         0.482219   
    287. A(O   7,Zr  4,O   9)           91.6560         0.447189   
    288. A(O   9,Zr  4,O  29)           71.1801         0.474247   
    289. A(O   7,Zr  4,O  29)          112.2655         0.462837   
    290. A(Zr  3,Zr  4,O  29)          105.6053         0.341676   
    291. A(Zr  1,Zr  4,O  29)          145.5774         0.340185   
    292. A(O   9,Zr  4,O  28)           77.9724         0.499422   
    293. A(O  10,Zr  4,O  30)           81.1775         0.508833   
    294. A(Zr  3,Zr  4,O  28)           72.2747         0.358188   
    295. A(O   9,Zr  4,O  30)          142.5098         0.500322   
    296. A(Zr  1,Zr  4,O  28)          124.0163         0.356599   
    297. A(O  28,Zr  4,O  30)           82.2031         0.546345   
    298. A(Zr  3,Zr  4,O   9)           35.8570         0.331099   
    299. A(Zr  1,Zr  4,O   9)           92.6023         0.329671   
    300. A(Zr  1,Zr  4,O  31)           96.1129         0.348787   
    301. A(O  28,Zr  4,O  31)          129.2720         0.532023   
    302. A(O   7,Zr  4,O  31)           71.5304         0.475640   
    303. A(Zr  3,Zr  4,O   7)           87.7882         0.323929   
    304. A(O  29,Zr  4,O  31)           77.0209         0.504848   
    305. A(Zr  1,Zr  4,O   7)           35.9631         0.322543   
    306. A(O   7,Zr  4,O  28)          157.8276         0.487267   
    307. A(O  10,Zr  4,O  31)          132.4471         0.495686   
    308. A(Zr  1,Zr  4,O  10)           36.3557         0.334651   
    309. A(O  34,Zr  5,O  35)           84.7312         0.552064   
    310. A(O  33,Zr  5,O  35)           82.5722         0.554205   
    311. A(O  32,Zr  5,O  35)          129.7625         0.522711   
    312. A(O  11,Zr  5,O  35)           96.0692         0.514827   
    313. A(O  33,Zr  5,O  34)          138.0923         0.547368   
    314. A(Zr  0,Zr  5,O  35)          132.5147         0.380167   
    315. A(O  32,Zr  5,O  34)           76.9664         0.516337   
    316. A(O  11,Zr  5,O  34)          142.2449         0.508569   
    317. A(Zr  2,Zr  5,O  35)           74.6091         0.358887   
    318. A(O   8,Zr  5,O  33)          139.3751         0.479564   
    319. A(O   8,Zr  5,O  35)           77.8580         0.483565   
    320. A(O   8,Zr  5,O  32)          137.9708         0.453123   
    321. A(Zr  2,Zr  5,O   6)           84.8626         0.336919   
    322. A(Zr  0,Zr  5,Zr  2)           71.0165         0.256206   
    323. A(O  32,Zr  5,O  33)           81.0392         0.518312   
    324. A(O   6,Zr  5,O  33)          105.6593         0.516339   
    325. A(Zr  2,Zr  5,O  34)          110.8502         0.354921   
    326. A(O  11,Zr  5,O  33)           78.9372         0.510509   
    327. A(Zr  0,Zr  5,O   6)           37.9598         0.356467   
    328. A(O   6,Zr  5,O  34)          100.1751         0.514372   
    329. A(Zr  2,Zr  5,O  32)          155.5914         0.338064   
    330. A(Zr  0,Zr  5,O  32)           87.6663         0.357702   
    331. A(Zr  0,Zr  5,O  33)           75.1372         0.377214   
    332. A(O  11,Zr  5,O  32)          126.3424         0.481973   
    333. A(Zr  2,Zr  5,O  33)          103.9044         0.356150   
    334. A(Zr  0,Zr  5,O  34)          137.9911         0.375888   
    335. A(O   8,Zr  5,O  34)           75.0776         0.477766   
    336. A(O   6,Zr  5,O  32)           70.8585         0.487408   
    337. A(O   6,Zr  5,O  35)          159.2601         0.520717   
    338. A(O   8,Zr  5,O  11)           68.3026         0.446504   
    339. A(O   6,Zr  5,O  11)           67.6922         0.480166   
    340. A(Zr  2,Zr  5,O  11)           35.6405         0.333537   
    341. A(Zr  0,Zr  5,O  11)           39.1119         0.352818   
    342. A(O   6,Zr  5,O   8)           83.9236         0.451449   
    343. A(Zr  2,Zr  5,O   8)           36.5220         0.315584   
    344. A(Zr  0,Zr  5,O   8)           92.5809         0.333450   
    345. A(Zr  3,O   6,Zr  5)          146.7654         0.478480   
    346. A(Zr  0,O   6,Zr  5)          105.2814         0.466980   
    347. A(Zr  0,O   6,Zr  3)          107.7800         0.460216   
    348. A(Zr  2,O   7,Zr  4)          141.3991         0.449003   
    349. A(Zr  1,O   7,Zr  4)          107.1342         0.450532   
    350. A(Zr  1,O   7,Zr  2)          107.5178         0.463453   
    351. A(Zr  1,O   8,Zr  2)          104.4841         0.437959   
    352. A(Zr  2,O   8,Zr  5)          105.7841         0.436692   
    353. A(Zr  1,O   8,Zr  5)          133.7745         0.421465   
    354. A(Zr  3,O   9,Zr  4)          108.0948         0.461118   
    355. A(Zr  0,O   9,Zr  4)          128.0326         0.451065   
    356. A(Zr  0,O   9,Zr  3)          107.0334         0.454004   
    357. A(Zr  3,O  10,Zr  4)          108.8923         0.467716   
    358. A(Zr  1,O  10,Zr  4)          108.1860         0.459196   
    359. A(Zr  1,O  10,Zr  3)          132.3869         0.453575   
    360. A(Zr  2,O  11,Zr  5)          109.2932         0.465401   
    361. A(Zr  0,O  11,Zr  5)          103.4264         0.450686   
    362. A(Zr  0,O  11,Zr  2)          133.2924         0.441847   
    363. A(Zr  0,O  12,C  36)          131.2780         0.509791   
    364. A(H  65,O  12,H  66)           51.6156         0.100226   
    365. A(H  66,O  12,H  81)           47.8213         0.102528   
    366. A(Zr  0,O  12,H  66)           94.8894         0.148895   
    367. A(C  36,O  12,H  66)          132.5840         0.142657   
    368. A(H  65,O  12,H  81)           93.6551         0.108885   
    369. A(C  36,O  12,H  65)          109.1082         0.167871   
    370. A(Zr  0,O  12,H  65)          109.6904         0.177041   
    371. A(C  36,O  12,H  81)          102.9782         0.184041   
    372. A(Zr  0,O  12,H  81)          102.7820         0.195091   
    373. A(Zr  0,O  13,C  37)          130.2103         0.505912   
    374. A(C  37,O  13,H  81)          128.0028         0.181483   
    375. A(Zr  0,O  13,H  81)          101.4775         0.191770   
    376. A(Zr  0,O  14,C  38)          140.2643         0.476156   
    377. A(C  38,O  14,H  65)           91.4533         0.150054   
    378. A(Zr  0,O  14,H  65)           96.4184         0.151751   
    379. A(Zr  0,O  15,C  39)          126.2813         0.483352   
    380. A(Zr  1,O  16,C  40)          139.8613         0.492111   
    381. A(Zr  1,O  17,C  41)          127.3542         0.477203   
    382. A(Zr  1,O  18,C  42)          128.6685         0.507452   
    383. A(Zr  1,O  19,C  43)          129.2236         0.506040   
    384. A(Zr  2,O  20,C  44)          133.2729         0.507755   
    385. A(Zr  2,O  21,C  38)          128.6072         0.489476   
    386. A(Zr  2,O  22,C  42)          130.6751         0.509226   
    387. A(Zr  2,O  23,C  45)          141.3929         0.473745   
    388. A(Zr  3,O  24,C  46)          139.7601         0.482664   
    389. A(Zr  3,O  25,C  37)          125.1612         0.503579   
    390. A(Zr  3,O  26,C  41)          135.4332         0.488145   
    391. A(Zr  3,O  27,C  47)          128.0741         0.504670   
    392. A(Zr  4,O  28,C  47)          128.0460         0.502791   
    393. A(Zr  4,O  29,C  39)          137.9332         0.477464   
    394. A(Zr  4,O  30,C  43)          127.5784         0.504146   
    395. A(Zr  4,O  31,C  45)          134.6305         0.492712   
    396. A(Zr  5,O  32,C  46)          134.9842         0.478040   
    397. A(Zr  5,O  33,C  36)          130.7905         0.505664   
    398. A(Zr  5,O  34,C  40)          139.3925         0.505164   
    399. A(Zr  5,O  35,C  44)          129.4947         0.509876   
    400. A(O  12,C  36,O  33)          127.5209         0.465988   
    401. A(O  33,C  36,H  81)          130.5265         0.149793   
    402. A(O  12,C  36,H  81)           51.2272         0.149789   
    403. A(H  58,C  36,H  81)           88.7999         0.133484   
    404. A(O  33,C  36,H  58)          116.0402         0.364872   
    405. A(O  12,C  36,H  58)          116.4384         0.364855   
    406. A(O  13,C  37,O  25)          126.8938         0.464474   
    407. A(O  25,C  37,H  51)          116.3621         0.363967   
    408. A(O  13,C  37,H  51)          116.7341         0.363752   
    409. A(O  14,C  38,O  21)          129.0674         0.466527   
    410. A(O  21,C  38,H  50)          115.3685         0.366092   
    411. A(O  14,C  38,H  50)          115.5613         0.365478   
    412. A(O  15,C  39,O  29)          129.6206         0.465097   
    413. A(O  29,C  39,H  54)          115.2175         0.364771   
    414. A(O  15,C  39,H  54)          115.1610         0.365349   
    415. A(O  16,C  40,O  34)          129.0300         0.468538   
    416. A(O  34,C  40,H  56)          115.5091         0.366745   
    417. A(O  16,C  40,H  56)          115.4561         0.366705   
    418. A(O  17,C  41,O  26)          129.5784         0.464814   
    419. A(O  26,C  41,H  48)          115.2664         0.364625   
    420. A(O  17,C  41,H  48)          115.1481         0.365133   
    421. A(O  18,C  42,O  22)          127.1394         0.465135   
    422. A(O  22,C  42,H  49)          116.4300         0.364256   
    423. A(O  18,C  42,H  49)          116.4306         0.364296   
    424. A(O  30,C  43,H  52)          116.4269         0.364141   
    425. A(O  19,C  43,H  52)          116.4488         0.364051   
    426. A(O  19,C  43,O  30)          127.1235         0.464895   
    427. A(O  35,C  44,H  59)          116.2144         0.364747   
    428. A(O  20,C  44,H  59)          116.2037         0.364671   
    429. A(O  20,C  44,O  35)          127.5817         0.465805   
    430. A(O  31,C  45,H  55)          115.1583         0.366651   
    431. A(O  23,C  45,H  55)          115.1693         0.366311   
    432. A(O  23,C  45,O  31)          129.6713         0.467488   
    433. A(H  57,C  46,H  80)           69.6793         0.135670   
    434. A(O  32,C  46,H  80)           91.3412         0.152626   
    435. A(O  24,C  46,H  80)          104.7852         0.152610   
    436. A(O  32,C  46,H  57)          114.9141         0.366372   
    437. A(O  24,C  46,H  57)          114.9178         0.366303   
    438. A(O  24,C  46,O  32)          130.1596         0.467053   
    439. A(O  28,C  47,H  53)          116.2423         0.363831   
    440. A(O  27,C  47,H  53)          116.2687         0.363815   
    441. A(O  27,C  47,O  28)          127.4890         0.464183   
    442. A(C  38,H  50,H  65)           90.5812         0.112368   
    443. A(C  37,H  51,H  74)          108.9291         0.117834   
    444. A(C  46,H  57,H  80)           88.0025         0.118717   
    445. A(C  36,H  58,H  78)          142.8883         0.127101   
    446. A(H  65,Al 60,Al 72)           98.7060         0.274707   
    447. A(H  64,Al 60,Al 72)          108.8132         0.265163   
    448. A(Al 61,Al 60,Al 72)           76.2416         0.296756   
    449. A(H  66,Al 60,H  71)           93.1035         0.361816   
    450. A(H  65,Al 60,H  71)          155.8433         0.378340   
    451. A(H  64,Al 60,H  71)           96.7391         0.363470   
    452. A(Al 61,Al 60,H  71)          114.7681         0.412694   
    453. A(H  65,Al 60,H  66)           97.1593         0.361640   
    454. A(H  64,Al 60,H  66)          110.6995         0.347628   
    455. A(Al 61,Al 60,H  66)           77.7230         0.394011   
    456. A(H  64,Al 60,H  65)           99.9490         0.363293   
    457. A(Al 61,Al 60,H  65)           88.8334         0.412485   
    458. A(H  71,Al 60,Al 72)           92.2475         0.274826   
    459. A(Al 61,Al 60,H  64)           36.6551         0.395860   
    460. A(H  67,Al 61,Al 68)          117.6772         0.406348   
    461. A(H  64,Al 61,Al 68)          112.8111         0.389486   
    462. A(H  63,Al 61,Al 68)          126.2843         0.405242   
    463. A(H  62,Al 61,Al 68)           35.9355         0.390261   
    464. A(Al 60,Al 61,Al 68)          103.6583         0.446380   
    465. A(H  64,Al 61,H  67)           81.6362         0.359197   
    466. A(H  63,Al 61,H  67)           75.8673         0.373364   
    467. A(H  62,Al 61,H  67)           82.0499         0.359893   
    468. A(Al 60,Al 61,H  67)          116.0605         0.410356   
    469. A(H  63,Al 61,H  64)          120.7237         0.358255   
    470. A(H  62,Al 61,H  64)          114.4437         0.345499   
    471. A(Al 60,Al 61,H  64)           36.3975         0.393281   
    472. A(H  62,Al 61,H  63)          115.5827         0.358949   
    473. A(Al 60,Al 61,H  63)          116.1922         0.409235   
    474. A(Al 60,Al 61,H  62)          127.8789         0.394065   
    475. A(Al 61,H  62,Al 68)          107.9577         0.347634   
    476. A(Al 60,H  64,Al 61)          106.9474         0.347009   
    477. A(O  12,H  65,H  50)           90.6102         0.095664   
    478. A(H  50,H  65,Al 60)          104.8460         0.116894   
    479. A(O  14,H  65,H  50)           40.5573         0.094160   
    480. A(O  12,H  65,O  14)           58.1167         0.101779   
    481. A(O  14,H  65,Al 60)           90.1631         0.142492   
    482. A(O  12,H  65,Al 60)          105.9234         0.158077   
    483. A(O  12,H  66,Al 72)           97.5053         0.132997   
    484. A(O  12,H  66,Al 60)           86.7927         0.133310   
    485. A(Al 72,Al 68,H  75)           93.4200         0.275217   
    486. A(H  70,Al 68,H  75)          165.3513         0.378004   
    487. A(H  69,Al 68,H  75)           90.9682         0.361619   
    488. A(H  62,Al 68,H  75)           96.2621         0.363205   
    489. A(Al 61,Al 68,H  75)           98.6642         0.408398   
    490. A(H  70,Al 68,Al 72)           88.7277         0.275182   
    491. A(H  62,Al 68,Al 72)          112.2235         0.265648   
    492. A(Al 61,Al 68,Al 72)           76.1168         0.294763   
    493. A(H  69,Al 68,H  70)           90.8615         0.361567   
    494. A(H  62,Al 68,H  70)           96.3253         0.363154   
    495. A(Al 61,Al 68,H  70)           95.9195         0.408338   
    496. A(H  62,Al 68,H  69)          113.5009         0.347611   
    497. A(Al 61,Al 68,H  69)           77.4203         0.390233   
    498. A(Al 61,Al 68,H  62)           36.1068         0.391987   
    499. A(Al 68,H  69,Al 72)          174.7465         0.344770   
    500. A(H  81,Al 72,H  82)           73.8630         0.340526   
    501. A(Al 76,Al 72,H  82)           63.9004         0.277636   
    502. A(H  74,Al 72,H  82)          112.8405         0.356527   
    503. A(H  73,Al 72,H  82)           76.6199         0.337825   
    504. A(Al 68,Al 72,H  82)          109.8300         0.262541   
    505. A(H  66,Al 72,H  82)          154.7323         0.341243   
    506. A(Al 60,Al 72,H  82)          156.1477         0.262037   
    507. A(Al 79,Al 72,H  81)           36.8640         0.390035   
    508. A(Al 76,Al 72,H  81)           60.7704         0.277999   
    509. A(H  74,Al 72,H  81)          119.2226         0.357041   
    510. A(H  73,Al 72,H  81)           72.2831         0.338303   
    511. A(H  69,Al 72,H  81)          144.5707         0.342218   
    512. A(Al 68,Al 72,H  81)          142.2145         0.262874   
    513. A(H  66,Al 72,H  81)           83.9894         0.341727   
    514. A(Al 60,Al 72,H  81)           86.0566         0.262369   
    515. A(Al 76,Al 72,Al 79)           53.1779         0.314767   
    516. A(H  74,Al 72,Al 79)          124.5692         0.409186   
    517. A(H  73,Al 72,Al 79)           69.0934         0.386803   
    518. A(H  69,Al 72,Al 79)          136.1291         0.391480   
    519. A(Al 68,Al 72,Al 79)          133.8716         0.296700   
    520. A(H  66,Al 72,Al 79)          119.5935         0.390893   
    521. A(Al 60,Al 72,Al 79)          121.4981         0.296097   
    522. A(H  69,Al 72,H  82)          110.9709         0.341732   
    523. A(H  73,Al 72,Al 76)           15.9336         0.275969   
    524. A(H  69,Al 72,Al 76)           89.0338         0.278905   
    525. A(Al 68,Al 72,Al 76)           86.4160         0.219400   
    526. A(Al 79,Al 72,H  82)           37.0397         0.389459   
    527. A(H  66,Al 72,Al 76)           94.8453         0.278537   
    528. A(Al 60,Al 72,Al 76)           95.2520         0.219021   
    529. A(H  73,Al 72,H  74)          166.2183         0.354163   
    530. A(H  69,Al 72,H  74)           92.0080         0.358327   
    531. A(Al 68,Al 72,H  74)           94.6298         0.273935   
    532. A(H  66,Al 72,H  74)           88.3891         0.357805   
    533. A(Al 60,Al 72,H  74)           87.9990         0.273398   
    534. A(H  69,Al 72,H  73)           74.8840         0.339499   
    535. A(Al 68,Al 72,H  73)           72.2694         0.261007   
    536. A(H  66,Al 72,H  73)           85.2754         0.339013   
    537. A(Al 60,Al 72,H  73)           85.2040         0.260507   
    538. A(H  66,Al 72,H  69)           80.3944         0.342939   
    539. A(Al 60,Al 72,H  69)           78.2574         0.263201   
    540. A(H  66,Al 72,Al 68)           80.4912         0.263369   
    541. A(Al 60,Al 72,Al 68)           78.3789         0.208616   
    542. A(Al 72,H  73,Al 76)          147.9736         0.339005   
    543. A(H  51,H  74,Al 72)          101.6180         0.123323   
    544. A(Al 79,Al 76,H  83)           35.9394         0.389571   
    545. A(H  78,Al 76,H  83)          104.0373         0.362164   
    546. A(H  77,Al 76,H  83)          102.7115         0.361880   
    547. A(H  73,Al 76,H  83)          103.8790         0.344515   
    548. A(Al 72,Al 76,H  83)           88.0507         0.280090   
    549. A(H  78,Al 76,Al 79)          115.3730         0.407710   
    550. A(H  77,Al 76,Al 79)          100.1764         0.407379   
    551. A(H  73,Al 76,Al 79)           68.8278         0.387118   
    552. A(Al 72,Al 76,Al 79)           52.7533         0.311952   
    553. A(H  77,Al 76,H  78)          144.2690         0.378348   
    554. A(H  73,Al 76,H  78)           97.1150         0.359935   
    555. A(Al 72,Al 76,H  78)          104.1260         0.291622   
    556. A(H  73,Al 76,H  77)           99.0028         0.359653   
    557. A(Al 72,Al 76,H  77)          100.0216         0.291412   
    558. A(Al 72,Al 76,H  73)           16.0927         0.278531   
    559. A(H  58,H  78,Al 76)          112.3632         0.134640   
    560. A(H  82,Al 79,H  83)          112.6274         0.344552   
    561. A(H  81,Al 79,H  83)          100.1276         0.345476   
    562. A(H  80,Al 79,H  83)          124.8707         0.361502   
    563. A(Al 76,Al 79,H  83)           35.9960         0.390141   
    564. A(Al 72,Al 79,H  83)          109.2405         0.393943   
    565. A(H  81,Al 79,H  82)           74.0987         0.342459   
    566. A(H  80,Al 79,H  82)          117.7111         0.358296   
    567. A(Al 76,Al 79,H  82)           80.0652         0.386598   
    568. A(Al 72,Al 79,H  82)           37.1318         0.390356   
    569. A(H  80,Al 79,H  81)          113.6272         0.359270   
    570. A(Al 76,Al 79,H  81)           76.7145         0.387674   
    571. A(Al 72,Al 79,H  81)           37.0078         0.391446   
    572. A(Al 76,Al 79,H  80)          160.8316         0.406337   
    573. A(Al 72,Al 79,H  80)          124.1713         0.410344   
    574. A(Al 72,Al 79,Al 76)           74.0688         0.444116   
    575. A(C  46,H  80,H  57)           22.3182         0.095817   
    576. A(C  46,H  80,Al 79)          135.7431         0.144445   
    577. A(H  57,H  80,Al 79)          149.9737         0.124305   
    578. A(O  13,H  81,C  36)           85.3539         0.103949   
    579. A(O  12,H  81,C  36)           25.7946         0.104326   
    580. A(C  36,H  81,Al 79)          101.6981         0.138936   
    581. A(C  36,H  81,Al 72)          148.2814         0.138703   
    582. A(O  12,H  81,O  13)           68.9466         0.112373   
    583. A(O  13,H  81,Al 79)          105.7346         0.165152   
    584. A(O  13,H  81,Al 72)          101.2188         0.164797   
    585. A(O  12,H  81,Al 79)          124.3989         0.167073   
    586. A(O  12,H  81,Al 72)          129.4394         0.166709   
    587. A(Al 72,H  81,Al 79)          106.1282         0.342189   
    588. A(Al 72,H  82,Al 79)          105.8285         0.340794   
    589. A(Al 76,H  83,Al 79)          108.0646         0.347105   
    590. D(Zr  5,Zr  2,Zr  1,Zr  4)    102.8335         0.010000   
    591. D(Zr  5,Zr  2,Zr  1,O   7)    113.6257         0.010000   
    592. D(O   7,Zr  2,Zr  1,Zr  4)    -10.7922         0.010000   
    593. D(Zr  4,Zr  3,Zr  0,O   6)   -109.9012         0.010000   
    594. D(Zr  4,Zr  3,Zr  0,Zr  5)   -107.7442         0.010000   
    595. D(O   6,Zr  3,Zr  0,Zr  5)      2.1571         0.010000   
    596. D(Zr  3,Zr  4,Zr  1,Zr  2)   -106.3234         0.010000   
    597. D(Zr  1,Zr  4,Zr  3,O   6)     69.3319         0.010000   
    598. D(Zr  1,Zr  4,Zr  3,Zr  0)    103.5545         0.010000   
    599. D(O   7,Zr  4,Zr  3,Zr  0)     71.9648         0.010000   
    600. D(O   7,Zr  4,Zr  1,Zr  2)     10.6365         0.010000   
    601. D(Zr  3,Zr  4,Zr  1,O   7)   -116.9599         0.010000   
    602. D(O   6,Zr  5,Zr  0,Zr  3)     -2.1061         0.010000   
    603. D(Zr  2,Zr  5,Zr  0,O   6)    106.6781         0.010000   
    604. D(Zr  2,Zr  5,Zr  0,Zr  3)    104.5721         0.010000   
    605. D(Zr  0,Zr  5,Zr  2,Zr  1)   -100.8095         0.010000   
    606. D(O   6,Zr  5,Zr  2,Zr  1)    -64.5382         0.010000   
    607. D(Zr  0,Zr  5,Zr  2,O   7)    -68.0460         0.010000   
    608. D(Zr  3,O   6,Zr  5,Zr  0)    174.0188         0.010000   
    609. D(Zr  0,O   6,Zr  5,Zr  2)    -65.4344         0.010000   
    610. D(Zr  0,O   6,Zr  5,O   8)   -102.1265         0.010000   
    611. D(Zr  0,O   6,Zr  3,O   9)     28.3575         0.010000   
    612. D(Zr  5,O   6,Zr  0,Zr  3)    176.5616         0.010000   
    613. D(Zr  3,O   6,Zr  0,O   9)    -28.1708         0.010000   
    614. D(Zr  5,O   6,Zr  3,Zr  0)   -173.9405         0.010000   
    615. D(Zr  0,O   6,Zr  3,Zr  4)     61.3992         0.010000   
    616. D(Zr  3,O   6,Zr  0,Zr  5)   -176.5616         0.010000   
    617. D(Zr  2,O   7,Zr  1,Zr  4)    162.7245         0.010000   
    618. D(Zr  4,O   7,Zr  1,Zr  2)   -162.7245         0.010000   
    619. D(Zr  1,O   7,Zr  2,O   8)    -27.9219         0.010000   
    620. D(Zr  1,O   7,Zr  2,Zr  5)    -60.5570         0.010000   
    621. D(Zr  2,O   7,Zr  1,O   8)     27.3647         0.010000   
    622. D(Zr  2,O   7,Zr  4,Zr  1)   -153.0048         0.010000   
    623. D(Zr  1,O   7,Zr  4,O   9)     92.1492         0.010000   
    624. D(Zr  1,O   7,Zr  4,Zr  3)     56.4941         0.010000   
    625. D(Zr  4,O   7,Zr  2,Zr  1)    152.9438         0.010000   
    626. D(Zr  1,O   8,Zr  5,Zr  2)   -129.1080         0.010000   
    627. D(Zr  2,O   8,Zr  5,Zr  0)     52.5538         0.010000   
    628. D(Zr  1,O   8,Zr  2,Zr  5)    144.6417         0.010000   
    629. D(Zr  5,O   8,Zr  2,Zr  1)   -144.6417         0.010000   
    630. D(Zr  1,O   8,Zr  5,Zr  0)    -76.5542         0.010000   
    631. D(Zr  5,O   8,Zr  1,Zr  2)    129.5372         0.010000   
    632. D(Zr  1,O   8,Zr  2,O   7)     26.4868         0.010000   
    633. D(Zr  2,O   8,Zr  1,O   7)    -26.7418         0.010000   
    634. D(Zr  2,O   8,Zr  1,Zr  4)    -51.7935         0.010000   
    635. D(Zr  3,O   9,Zr  4,Zr  1)    -47.9434         0.010000   
    636. D(Zr  4,O   9,Zr  3,Zr  0)    141.0786         0.010000   
    637. D(Zr  0,O   9,Zr  4,Zr  1)     82.3598         0.010000   
    638. D(Zr  0,O   9,Zr  3,Zr  4)   -141.0786         0.010000   
    639. D(Zr  0,O   9,Zr  3,O   6)    -28.1081         0.010000   
    640. D(Zr  0,O   9,Zr  4,Zr  3)    130.3032         0.010000   
    641. D(Zr  4,O   9,Zr  0,Zr  3)   -130.6965         0.010000   
    642. D(Zr  3,O   9,Zr  0,Zr  5)     46.3125         0.010000   
    643. D(Zr  3,O   9,Zr  0,O   6)     27.8765         0.010000   
    644. D(Zr  1,O  10,Zr  4,O   7)    -26.7949         0.010000   
    645. D(Zr  1,O  10,Zr  4,Zr  3)   -149.5879         0.010000   
    646. D(Zr  4,O  10,Zr  1,Zr  2)     51.6368         0.010000   
    647. D(Zr  1,O  10,Zr  3,Zr  4)    139.3732         0.010000   
    648. D(Zr  1,O  10,Zr  3,Zr  0)     87.6925         0.010000   
    649. D(Zr  4,O  10,Zr  3,Zr  0)    -51.6807         0.010000   
    650. D(Zr  3,O  10,Zr  4,Zr  1)    149.5879         0.010000   
    651. D(Zr  3,O  10,Zr  1,Zr  2)    -87.9388         0.010000   
    652. D(Zr  3,O  10,Zr  1,Zr  4)   -139.5757         0.010000   
    653. D(Zr  2,O  11,Zr  5,Zr  0)   -146.1506         0.010000   
    654. D(Zr  0,O  11,Zr  5,Zr  2)    146.1506         0.010000   
    655. D(Zr  5,O  11,Zr  2,Zr  1)     53.2144         0.010000   
    656. D(Zr  0,O  11,Zr  2,Zr  5)   -131.8965         0.010000   
    657. D(Zr  0,O  11,Zr  2,Zr  1)    -78.6820         0.010000   
    658. D(Zr  2,O  11,Zr  0,Zr  5)    133.7561         0.010000   
    659. D(Zr  0,O  11,Zr  5,O   6)     32.1889         0.010000   
    660. D(Zr  5,O  11,Zr  0,Zr  3)    -51.9748         0.010000   
    661. D(Zr  2,O  11,Zr  0,Zr  3)     81.7813         0.010000   
    662. D(H  81,O  12,Zr  0,Zr  3)    -68.7377         0.010000   
    663. D(C  36,O  12,Zr  0,Zr  5)      2.6909         0.010000   
    664. D(C  36,O  12,Zr  0,Zr  3)     51.6322         0.010000   
    665. D(H  81,O  13,Zr  0,Zr  3)    151.7785         0.010000   
    666. D(C  37,O  13,Zr  0,Zr  5)    -99.9593         0.010000   
    667. D(C  37,O  13,Zr  0,Zr  3)    -34.3273         0.010000   
    668. D(H  65,O  14,Zr  0,Zr  3)    177.6570         0.010000   
    669. D(C  38,O  14,Zr  0,Zr  5)      0.3453         0.010000   
    670. D(C  38,O  14,Zr  0,Zr  3)    -82.2496         0.010000   
    671. D(C  39,O  15,Zr  0,Zr  5)    -25.6715         0.010000   
    672. D(C  39,O  15,Zr  0,Zr  3)    -73.7629         0.010000   
    673. D(C  40,O  16,Zr  1,Zr  4)    -43.7850         0.010000   
    674. D(C  40,O  16,Zr  1,Zr  2)     40.0917         0.010000   
    675. D(C  41,O  17,Zr  1,Zr  4)    -74.7305         0.010000   
    676. D(C  41,O  17,Zr  1,Zr  2)    -27.4962         0.010000   
    677. D(C  42,O  18,Zr  1,Zr  4)     27.2061         0.010000   
    678. D(C  42,O  18,Zr  1,Zr  2)    -22.7218         0.010000   
    679. D(C  43,O  19,Zr  1,Zr  4)    -29.7554         0.010000   
    680. D(C  43,O  19,Zr  1,Zr  2)    -94.5431         0.010000   
    681. D(C  44,O  20,Zr  2,Zr  5)     14.1819         0.010000   
    682. D(C  44,O  20,Zr  2,Zr  1)    -45.4839         0.010000   
    683. D(C  38,O  21,Zr  2,Zr  5)    -67.4265         0.010000   
    684. D(C  38,O  21,Zr  2,Zr  1)      1.5131         0.010000   
    685. D(C  42,O  22,Zr  2,Zr  5)     31.6790         0.010000   
    686. D(C  42,O  22,Zr  2,Zr  1)    -22.3632         0.010000   
    687. D(C  45,O  23,Zr  2,Zr  5)    -46.8376         0.010000   
    688. D(C  45,O  23,Zr  2,Zr  1)     24.3486         0.010000   
    689. D(C  46,O  24,Zr  3,Zr  0)    -38.1397         0.010000   
    690. D(C  46,O  24,Zr  3,Zr  4)     -1.4444         0.010000   
    691. D(C  37,O  25,Zr  3,Zr  4)    -86.3963         0.010000   
    692. D(C  37,O  25,Zr  3,Zr  0)    -25.9952         0.010000   
    693. D(C  41,O  26,Zr  3,Zr  4)     -4.3615         0.010000   
    694. D(C  41,O  26,Zr  3,Zr  0)    -79.4812         0.010000   
    695. D(C  47,O  27,Zr  3,Zr  4)    -28.6485         0.010000   
    696. D(C  47,O  27,Zr  3,Zr  0)     16.9009         0.010000   
    697. D(C  47,O  28,Zr  4,Zr  3)    -27.7294         0.010000   
    698. D(C  47,O  28,Zr  4,Zr  1)     20.5434         0.010000   
    699. D(C  39,O  29,Zr  4,Zr  3)      4.4135         0.010000   
    700. D(C  39,O  29,Zr  4,Zr  1)    -71.4172         0.010000   
    701. D(C  43,O  30,Zr  4,Zr  3)    -87.7786         0.010000   
    702. D(C  43,O  30,Zr  4,Zr  1)    -27.0058         0.010000   
    703. D(C  45,O  31,Zr  4,Zr  3)    -16.3552         0.010000   
    704. D(C  45,O  31,Zr  4,Zr  1)    -62.5024         0.010000   
    705. D(C  46,O  32,Zr  5,Zr  2)     40.2928         0.010000   
    706. D(C  46,O  32,Zr  5,Zr  0)     68.9340         0.010000   
    707. D(C  36,O  33,Zr  5,Zr  2)     64.7535         0.010000   
    708. D(C  36,O  33,Zr  5,Zr  0)     -0.8900         0.010000   
    709. D(C  40,O  34,Zr  5,Zr  2)    -18.3483         0.010000   
    710. D(C  40,O  34,Zr  5,Zr  0)     66.0703         0.010000   
    711. D(C  44,O  35,Zr  5,Zr  2)     15.1460         0.010000   
    712. D(C  44,O  35,Zr  5,Zr  0)    -29.6107         0.010000   
    713. D(O  12,C  36,O  33,Zr  5)      3.2530         0.051846   
    714. D(H  58,C  36,O  12,Zr  0)    175.1366         0.064896   
    715. D(O  33,C  36,O  12,H  81)    115.7243         0.064896   
    716. D(O  33,C  36,O  12,Zr  0)     -4.5689         0.064896   
    717. D(H  58,C  36,O  33,Zr  5)   -176.4534         0.051846   
    718. D(O  13,C  37,O  25,Zr  3)     14.3386         0.046120   
    719. D(H  51,C  37,O  13,Zr  0)   -151.0701         0.050614   
    720. D(H  51,C  37,O  25,Zr  3)   -164.4626         0.046120   
    721. D(O  25,C  37,O  13,H  81)   -157.4690         0.050614   
    722. D(O  25,C  37,O  13,Zr  0)     30.1326         0.050614   
    723. D(H  50,C  38,O  21,Zr  2)   -163.9230         0.047713   
    724. D(O  14,C  38,O  21,Zr  2)     15.4277         0.047713   
    725. D(H  50,C  38,O  14,Zr  0)   -150.3476         0.051628   
    726. D(O  21,C  38,O  14,H  65)    132.1586         0.051628   
    727. D(O  21,C  38,O  14,Zr  0)     30.3027         0.051628   
    728. D(H  54,C  39,O  29,Zr  4)   -150.9180         0.045845   
    729. D(O  15,C  39,O  29,Zr  4)     29.4455         0.045845   
    730. D(H  54,C  39,O  15,Zr  0)   -163.6734         0.046799   
    731. D(O  29,C  39,O  15,Zr  0)     15.9633         0.046799   
    732. D(H  56,C  40,O  34,Zr  5)    167.2282         0.048481   
    733. D(O  16,C  40,O  34,Zr  5)    -13.6168         0.048481   
    734. D(H  56,C  40,O  16,Zr  1)    178.1513         0.048413   
    735. D(O  34,C  40,O  16,Zr  1)     -1.0041         0.048413   
    736. D(H  48,C  41,O  26,Zr  3)   -141.8025         0.045732   
    737. D(O  17,C  41,O  26,Zr  3)     39.2245         0.045732   
    738. D(H  48,C  41,O  17,Zr  1)   -165.1787         0.046568   
    739. D(O  26,C  41,O  17,Zr  1)     13.7953         0.046568   
    740. D(H  49,C  42,O  22,Zr  2)   -164.2312         0.046309   
    741. D(O  18,C  42,O  22,Zr  2)     15.7900         0.046309   
    742. D(H  49,C  42,O  18,Zr  1)   -162.6694         0.046375   
    743. D(O  22,C  42,O  18,Zr  1)     17.3094         0.046375   
    744. D(H  52,C  43,O  30,Zr  4)   -161.3953         0.046271   
    745. D(O  19,C  43,O  30,Zr  4)     18.2825         0.046271   
    746. D(H  52,C  43,O  19,Zr  1)   -156.8263         0.046123   
    747. D(O  30,C  43,O  19,Zr  1)     23.4959         0.046123   
    748. D(H  59,C  44,O  35,Zr  5)    167.7933         0.046814   
    749. D(O  20,C  44,O  35,Zr  5)    -12.3463         0.046814   
    750. D(H  59,C  44,O  20,Zr  2)    170.4470         0.046687   
    751. D(O  35,C  44,O  20,Zr  2)     -9.4134         0.046687   
    752. D(H  55,C  45,O  31,Zr  4)   -166.4935         0.048079   
    753. D(O  23,C  45,O  31,Zr  4)     13.9080         0.048079   
    754. D(H  55,C  45,O  23,Zr  2)   -166.5554         0.047501   
    755. D(O  31,C  45,O  23,Zr  2)     13.0430         0.047501   
    756. D(H  57,C  46,O  32,Zr  5)    161.3994         0.052623   
    757. D(O  24,C  46,O  32,Zr  5)    -19.7304         0.052623   
    758. D(H  57,C  46,O  24,Zr  3)    177.5628         0.052494   
    759. D(O  32,C  46,O  24,Zr  3)     -1.3074         0.052494   
    760. D(H  53,C  47,O  28,Zr  4)   -160.2014         0.045781   
    761. D(O  27,C  47,O  28,Zr  4)     19.7061         0.045781   
    762. D(H  53,C  47,O  27,Zr  3)   -158.4577         0.045756   
    763. D(O  28,C  47,O  27,Zr  3)     21.6348         0.045756   
    764. D(H  65,H  50,C  38,O  21)   -134.3922         0.112836   
    765. D(H  65,H  50,C  38,O  14)     46.1666         0.112836   
    766. D(H  74,H  51,C  37,O  25)   -148.7634         0.107793   
    767. D(H  74,H  51,C  37,O  13)     32.3101         0.107793   
    768. D(H  80,H  57,C  46,O  32)     81.6924         0.126791   
    769. D(H  80,H  57,C  46,O  24)    -97.3556         0.126791   
    770. D(H  78,H  58,C  36,O  33)   -143.7507         0.121552   
    771. D(H  78,H  58,C  36,O  12)     36.5094         0.121552   
    772. D(H  63,Al 61,Al 60,H  64)   -106.9938         0.010000   
    773. D(H  62,Al 61,Al 60,H  65)   -171.4155         0.010000   
    774. D(H  62,Al 61,Al 60,H  64)     80.1133         0.010000   
    775. D(Al 68,H  62,Al 61,H  63)   -117.2247         0.010000   
    776. D(Al 68,H  62,Al 61,Al 60)     55.7049         0.010000   
    777. D(Al 60,H  64,Al 61,H  63)     93.3887         0.010000   
    778. D(Al 60,H  64,Al 61,H  62)   -121.3344         0.010000   
    779. D(Al 61,H  64,Al 60,H  66)     27.3117         0.010000   
    780. D(Al 61,H  64,Al 60,H  65)    -74.3155         0.010000   
    781. D(O  14,H  65,Al 60,Al 61)    176.7743         0.010000   
    782. D(O  12,H  65,Al 60,H  64)    155.1272         0.010000   
    783. D(O  12,H  65,Al 60,Al 61)    120.0354         0.010000   
    784. D(O  12,H  65,H  50,C  38)      7.3726         0.010000   
    785. D(Al 60,H  65,H  50,C  38)    -99.2858         0.010000   
    786. D(O  12,H  65,O  14,Zr  0)     25.0925         0.010000   
    787. D(Al 60,H  65,O  14,C  38)    135.3665         0.010000   
    788. D(Al 60,H  65,O  14,Zr  0)    -83.6509         0.010000   
    789. D(O  14,H  65,O  12,Zr  0)    -28.0491         0.010000   
    790. D(Al 60,H  65,O  12,C  36)   -158.1263         0.010000   
    791. D(Al 60,H  65,O  12,Zr  0)     51.9315         0.010000   
    792. D(O  12,H  66,Al 60,H  64)   -136.9702         0.010000   
    793. D(O  12,H  66,Al 60,Al 61)   -120.6902         0.010000   
    794. D(Al 72,H  66,O  12,Zr  0)     95.6016         0.010000   
    795. D(Al 60,H  66,O  12,C  36)    106.7672         0.010000   
    796. D(Al 60,H  66,O  12,Zr  0)    -85.3029         0.010000   
    797. D(H  70,Al 68,H  62,Al 61)     91.3814         0.010000   
    798. D(H  69,Al 68,H  62,Al 61)     -2.3280         0.010000   
    799. D(H  69,Al 68,Al 61,Al 60)     39.9618         0.010000   
    800. D(H  62,Al 68,Al 61,H  63)     84.2559         0.010000   
    801. D(H  62,Al 68,Al 61,Al 60)   -137.8508         0.010000   
    802. D(Al 72,H  69,Al 68,H  62)     61.4518         0.010000   
    803. D(Al 72,H  69,Al 68,Al 61)     60.0465         0.010000   
    804. D(H  66,Al 72,H  69,Al 68)    -91.8960         0.010000   
    805. D(H  66,Al 72,Al 68,Al 61)    -31.7531         0.010000   
    806. D(Al 60,Al 72,Al 68,H  62)    -32.4441         0.010000   
    807. D(Al 60,Al 72,Al 68,Al 61)    -32.3414         0.010000   
    808. D(H  69,Al 72,H  66,O  12)    155.5197         0.010000   
    809. D(Al 68,Al 72,H  66,O  12)    152.8629         0.010000   
    810. D(H  69,Al 72,Al 60,Al 61)     35.2001         0.010000   
    811. D(Al 60,Al 72,H  69,Al 68)    -92.3839         0.010000   
    812. D(Al 68,Al 72,Al 60,H  64)     15.4617         0.010000   
    813. D(Al 68,Al 72,Al 60,Al 61)     32.5257         0.010000   
    814. D(Al 76,H  73,Al 72,H  66)   -126.7426         0.010000   
    815. D(Al 76,H  73,Al 72,Al 60)   -128.9391         0.010000   
    816. D(H  51,H  74,Al 72,H  66)    115.2755         0.010000   
    817. D(H  51,H  74,Al 72,Al 60)    117.4317         0.010000   
    818. D(Al 72,H  74,H  51,C  37)    -73.6357         0.010000   
    819. D(H  77,Al 76,H  74,H  51)   -103.2437         0.010000   
    820. D(H  73,Al 76,H  74,H  51)    166.3624         0.010000   
    821. D(H  78,Al 76,H  73,Al 72)    117.0408         0.010000   
    822. D(H  77,Al 76,H  73,Al 72)    -94.9593         0.010000   
    823. D(H  77,Al 76,Al 72,Al 60)    138.8605         0.010000   
    824. D(H  73,Al 76,Al 72,H  66)     53.2710         0.010000   
    825. D(H  73,Al 76,Al 72,Al 60)     51.1106         0.010000   
    826. D(H  58,H  78,Al 76,H  73)    -80.6546         0.010000   
    827. D(H  58,H  78,Al 76,Al 72)    -65.9053         0.010000   
    828. D(Al 76,H  78,H  58,C  36)     43.7817         0.010000   
    829. D(H  80,Al 79,Al 76,Al 72)    163.2913         0.010000   
    830. D(Al 72,Al 79,Al 76,H  77)     94.9117         0.010000   
    831. D(Al 72,Al 79,Al 76,H  73)     -0.8833         0.010000   
    832. D(H  80,Al 79,Al 72,Al 60)   -102.3933         0.010000   
    833. D(Al 76,Al 79,Al 72,H  66)     72.3103         0.010000   
    834. D(Al 76,Al 79,Al 72,Al 60)     71.0550         0.010000   
    835. D(C  46,H  80,Al 79,Al 72)     90.2067         0.010000   
    836. D(H  57,H  80,Al 79,Al 76)    -41.1237         0.010000   
    837. D(H  57,H  80,Al 79,Al 72)    119.3554         0.010000   
    838. D(Al 79,H  80,H  57,C  46)    -63.5233         0.010000   
    839. D(H  57,H  80,C  46,O  24)    111.5260         0.010000   
    840. D(Al 79,H  80,C  46,O  32)     23.9255         0.010000   
    841. D(Al 79,H  80,C  46,O  24)   -108.4019         0.010000   
    842. D(Al 79,H  81,O  12,Zr  0)    106.7155         0.010000   
    843. D(Al 72,H  81,O  12,C  36)    146.0207         0.010000   
    844. D(Al 72,H  81,O  12,Zr  0)    -75.6916         0.010000   
    845. D(Al 72,H  81,Al 79,H  80)    115.9856         0.010000   
    846. D(Al 72,H  81,Al 79,Al 76)    -81.0663         0.010000   
    847. D(O  12,H  81,Al 72,Al 60)    -13.1576         0.010000   
    848. D(Al 79,H  81,Al 72,H  66)    165.5011         0.010000   
    849. D(Al 79,H  81,Al 72,Al 60)    164.7750         0.010000   
    850. D(Al 79,H  81,C  36,O  12)    153.8210         0.010000   
    851. D(Al 72,H  81,C  36,O  33)   -165.1261         0.010000   
    852. D(Al 72,H  81,C  36,O  12)    -55.1837         0.010000   
    853. D(Al 79,H  81,O  13,Zr  0)   -132.8898         0.010000   
    854. D(Al 72,H  81,O  13,C  37)    -57.4667         0.010000   
    855. D(O  12,H  81,Al 79,Al 72)    178.0650         0.010000   
    856. D(Al 72,H  81,O  13,Zr  0)    116.6165         0.010000   
    857. D(Al 72,H  82,Al 79,H  80)   -110.9335         0.010000   
    858. D(Al 72,H  82,Al 79,Al 76)     76.6853         0.010000   
    859. D(Al 79,H  82,Al 72,H  66)    -27.5302         0.010000   
    860. D(Al 79,H  82,Al 72,Al 60)    -31.5534         0.010000   
    861. D(Al 76,H  83,Al 79,H  80)    178.3452         0.010000   
    862. D(Al 76,H  83,Al 79,Al 72)     12.8071         0.010000   
    863. D(Al 79,H  83,Al 76,H  73)    -12.9139         0.010000   
    864. D(Al 79,H  83,Al 76,Al 72)     -9.9830         0.010000   
    -----------------------------------------------------------------

Number of atoms                         .... 84
Number of degrees of freedom            .... 864


         *************************************************************
         *                GEOMETRY OPTIMIZATION CYCLE   1            *
         *************************************************************
---------------------------------
CARTESIAN COORDINATES (ANGSTROEM)
---------------------------------
  Zr    -0.191892    2.111089    1.474666
  Zr     0.312702   -2.052887   -1.414543
  Zr     1.796231   -1.287807    1.550050
  Zr    -1.731835    1.254873   -1.452330
  Zr     1.675174    1.079285   -1.704210
  Zr    -1.596473   -0.891409    1.916562
  O     -1.382561    0.624253    0.516170
  O      1.593017   -0.678051   -0.461457
  O     -0.065892   -1.892303    0.724766
  O      0.076403    1.977906   -0.645264
  O     -0.101271   -0.010736   -1.897418
  O      0.253183    0.072544    2.066468
  O     -0.823132    2.119072    3.343787
  O     -1.759885    3.277722    1.150215
  O      1.651123    2.048940    2.420778
  O      0.860775    3.732847    0.790974
  O     -1.400906   -3.058290   -1.005338
  O     -0.855689   -1.922071   -3.117123
  O      1.163177   -3.718849   -0.770337
  O      1.789772   -2.123267   -2.733825
  O      1.208349   -2.416843    3.064384
  O      2.476199   -0.060570    3.023515
  O      2.600896   -2.968299    0.900885
  O      3.606111   -0.527580    0.855687
  O     -3.544436    1.009310   -0.516663
  O     -2.206449    3.159440   -1.131708
  O     -2.466568   -0.314229   -2.516701
  O     -1.221760    1.937617   -3.244731
  O      1.042049    2.453652   -2.996966
  O      2.393588    2.726560   -0.684335
  O      2.102610    0.093704   -3.376457
  O      3.569628    0.534524   -1.236950
  O     -3.431067    0.016035    1.613351
  O     -1.783474    0.021050    3.669218
  O     -2.587811   -2.234362    0.832529
  O     -1.122940   -2.429774    3.056754
  C     -1.398051    1.198941    4.058077
  C     -2.251238    3.734271    0.034447
  C      2.398360    1.231562    3.100522
  C      1.917159    3.700786    0.035498
  C     -2.386431   -3.034188   -0.165606
  C     -1.954932   -1.245429   -3.269123
  C      2.149568   -3.856815    0.065484
  C      2.226946   -1.191739   -3.529732
  C      0.043364   -2.820168    3.475010
  C      4.138705    0.026620   -0.189400
  C     -4.030470    0.555482    0.597375
  C     -0.111905    2.520581   -3.595808
  H     -2.541130   -1.506973   -4.147573
  H      2.654244   -4.824212    0.065739
  H      3.057834    1.695133    3.829406
  H     -2.772558    4.692445    0.082984
  H      2.760845   -1.525252   -4.421446
  H     -0.153129    3.135280   -4.496919
  H      2.491526    4.623876    0.004271
  H      5.223289    0.065505   -0.189015
  H     -3.157352   -3.781241   -0.329158
  H     -5.105688    0.658086    0.702552
  H     -1.574903    1.438306    5.106581
  H      0.045018   -3.575963    4.260845
  Al     1.052141    4.814303    4.084398
  Al     0.131690    6.023301    6.301720
  H     -0.233820    7.643721    6.512834
  H     -0.266498    5.052218    7.530666
  H      1.513669    5.735783    5.395203
  H      0.832207    3.398190    4.804825
  H     -0.551005    5.101175    3.694184
  H      1.228777    6.353422    7.435618
  Al    -1.341323    8.077501    5.343973
  H     -1.716362    6.835161    4.285564
  H     -2.650892    7.762635    6.215759
  H      1.596595    5.810923    2.952766
[...]
freq.      67.89  E(vib)   ...       0.50 
freq.      69.54  E(vib)   ...       0.50 
freq.      79.07  E(vib)   ...       0.49 
freq.      83.64  E(vib)   ...       0.48 
freq.      88.38  E(vib)   ...       0.48 
freq.      93.53  E(vib)   ...       0.47 
freq.      95.65  E(vib)   ...       0.47 
freq.      97.52  E(vib)   ...       0.46 
freq.      99.58  E(vib)   ...       0.46 
freq.     100.65  E(vib)   ...       0.46 
freq.     104.54  E(vib)   ...       0.46 
freq.     105.86  E(vib)   ...       0.45 
freq.     110.38  E(vib)   ...       0.45 
freq.     114.17  E(vib)   ...       0.44 
freq.     117.72  E(vib)   ...       0.44 
freq.     120.09  E(vib)   ...       0.44 
freq.     130.34  E(vib)   ...       0.43 
freq.     142.15  E(vib)   ...       0.41 
freq.     144.78  E(vib)   ...       0.41 
freq.     148.54  E(vib)   ...       0.41 
freq.     149.88  E(vib)   ...       0.40 
freq.     151.99  E(vib)   ...       0.40 
freq.     153.46  E(vib)   ...       0.40 
freq.     154.21  E(vib)   ...       0.40 
freq.     158.13  E(vib)   ...       0.39 
freq.     160.22  E(vib)   ...       0.39 
freq.     164.61  E(vib)   ...       0.39 
freq.     165.45  E(vib)   ...       0.39 
freq.     167.56  E(vib)   ...       0.38 
freq.     168.53  E(vib)   ...       0.38 
freq.     173.24  E(vib)   ...       0.38 
freq.     174.87  E(vib)   ...       0.38 
freq.     176.39  E(vib)   ...       0.38 
freq.     184.90  E(vib)   ...       0.37 
freq.     188.11  E(vib)   ...       0.36 
freq.     189.85  E(vib)   ...       0.36 
freq.     193.11  E(vib)   ...       0.36 
freq.     196.76  E(vib)   ...       0.36 
freq.     198.52  E(vib)   ...       0.35 
freq.     204.15  E(vib)   ...       0.35 
freq.     205.26  E(vib)   ...       0.35 
freq.     207.96  E(vib)   ...       0.34 
freq.     209.68  E(vib)   ...       0.34 
freq.     212.37  E(vib)   ...       0.34 
freq.     214.19  E(vib)   ...       0.34 
freq.     227.23  E(vib)   ...       0.33 
freq.     228.74  E(vib)   ...       0.32 
freq.     233.54  E(vib)   ...       0.32 
freq.     238.17  E(vib)   ...       0.32 
freq.     239.44  E(vib)   ...       0.31 
freq.     245.34  E(vib)   ...       0.31 
freq.     251.64  E(vib)   ...       0.30 
freq.     258.05  E(vib)   ...       0.30 
freq.     261.05  E(vib)   ...       0.30 
freq.     263.93  E(vib)   ...       0.29 
freq.     264.19  E(vib)   ...       0.29 
freq.     265.28  E(vib)   ...       0.29 
freq.     266.71  E(vib)   ...       0.29 
freq.     267.85  E(vib)   ...       0.29 
freq.     270.03  E(vib)   ...       0.29 
freq.     271.70  E(vib)   ...       0.29 
freq.     272.49  E(vib)   ...       0.29 
freq.     274.28  E(vib)   ...       0.28 
freq.     275.49  E(vib)   ...       0.28 
freq.     276.48  E(vib)   ...       0.28 
freq.     279.73  E(vib)   ...       0.28 
freq.     282.48  E(vib)   ...       0.28 
freq.     283.11  E(vib)   ...       0.28 
freq.     286.47  E(vib)   ...       0.27 
freq.     292.30  E(vib)   ...       0.27 
freq.     293.39  E(vib)   ...       0.27 
freq.     295.38  E(vib)   ...       0.27 
freq.     300.52  E(vib)   ...       0.26 
freq.     301.30  E(vib)   ...       0.26 
freq.     305.65  E(vib)   ...       0.26 
freq.     307.84  E(vib)   ...       0.26 
freq.     309.59  E(vib)   ...       0.26 
freq.     311.12  E(vib)   ...       0.26 
freq.     313.55  E(vib)   ...       0.25 
freq.     315.87  E(vib)   ...       0.25 
freq.     319.73  E(vib)   ...       0.25 
freq.     322.05  E(vib)   ...       0.25 
freq.     325.66  E(vib)   ...       0.24 
freq.     326.85  E(vib)   ...       0.24 
freq.     328.49  E(vib)   ...       0.24 
freq.     334.64  E(vib)   ...       0.24 
freq.     340.12  E(vib)   ...       0.23 
freq.     341.35  E(vib)   ...       0.23 
freq.     350.46  E(vib)   ...       0.23 
freq.     352.12  E(vib)   ...       0.23 
freq.     365.16  E(vib)   ...       0.22 
freq.     370.48  E(vib)   ...       0.21 
freq.     371.41  E(vib)   ...       0.21 
freq.     386.99  E(vib)   ...       0.20 
freq.     388.38  E(vib)   ...       0.20 
freq.     390.36  E(vib)   ...       0.20 
freq.     395.41  E(vib)   ...       0.20 
freq.     401.24  E(vib)   ...       0.19 
freq.     403.53  E(vib)   ...       0.19 
freq.     405.18  E(vib)   ...       0.19 
freq.     418.33  E(vib)   ...       0.18 
freq.     420.30  E(vib)   ...       0.18 
freq.     421.92  E(vib)   ...       0.18 
freq.     425.78  E(vib)   ...       0.18 
freq.     442.32  E(vib)   ...       0.17 
freq.     456.87  E(vib)   ...       0.16 
freq.     477.72  E(vib)   ...       0.15 
freq.     481.34  E(vib)   ...       0.15 
freq.     482.05  E(vib)   ...       0.15 
freq.     482.50  E(vib)   ...       0.15 
freq.     497.95  E(vib)   ...       0.14 
freq.     521.55  E(vib)   ...       0.13 
freq.     531.40  E(vib)   ...       0.13 
freq.     542.24  E(vib)   ...       0.12 
freq.     548.77  E(vib)   ...       0.12 
freq.     593.76  E(vib)   ...       0.10 
freq.     617.41  E(vib)   ...       0.09 
freq.     625.87  E(vib)   ...       0.09 
freq.     638.82  E(vib)   ...       0.09 
freq.     652.00  E(vib)   ...       0.08 
freq.     655.38  E(vib)   ...       0.08 
freq.     669.54  E(vib)   ...       0.08 
freq.     673.54  E(vib)   ...       0.08 
freq.     678.93  E(vib)   ...       0.08 
freq.     680.73  E(vib)   ...       0.08 
freq.     687.66  E(vib)   ...       0.07 
freq.     692.04  E(vib)   ...       0.07 
freq.     698.98  E(vib)   ...       0.07 
freq.     718.50  E(vib)   ...       0.07 
freq.     722.27  E(vib)   ...       0.07 
freq.     733.65  E(vib)   ...       0.06 
freq.     735.13  E(vib)   ...       0.06 
freq.     735.87  E(vib)   ...       0.06 
freq.     736.05  E(vib)   ...       0.06 
freq.     737.19  E(vib)   ...       0.06 
freq.     738.01  E(vib)   ...       0.06 
freq.     738.86  E(vib)   ...       0.06 
freq.     739.19  E(vib)   ...       0.06 
freq.     739.78  E(vib)   ...       0.06 
freq.     740.30  E(vib)   ...       0.06 
freq.     741.10  E(vib)   ...       0.06 
freq.     741.99  E(vib)   ...       0.06 
freq.     743.06  E(vib)   ...       0.06 
freq.     749.56  E(vib)   ...       0.06 
freq.     779.39  E(vib)   ...       0.05 
freq.     807.04  E(vib)   ...       0.05 
freq.     827.40  E(vib)   ...       0.04 
freq.     861.71  E(vib)   ...       0.04 
freq.     878.69  E(vib)   ...       0.04 
freq.     923.10  E(vib)   ...       0.03 
freq.     950.74  E(vib)   ...       0.03 
freq.     998.36  E(vib)   ...       0.02 
freq.     998.93  E(vib)   ...       0.02 
freq.     999.78  E(vib)   ...       0.02 
freq.    1001.57  E(vib)   ...       0.02 
freq.    1001.79  E(vib)   ...       0.02 
freq.    1004.73  E(vib)   ...       0.02 
freq.    1005.09  E(vib)   ...       0.02 
freq.    1005.53  E(vib)   ...       0.02 
freq.    1006.06  E(vib)   ...       0.02 
freq.    1006.32  E(vib)   ...       0.02 
freq.    1008.14  E(vib)   ...       0.02 
freq.    1011.17  E(vib)   ...       0.02 
freq.    1038.64  E(vib)   ...       0.02 
freq.    1183.58  E(vib)   ...       0.01 
freq.    1342.88  E(vib)   ...       0.01 
freq.    1347.58  E(vib)   ...       0.01 
freq.    1348.13  E(vib)   ...       0.01 
freq.    1350.47  E(vib)   ...       0.01 
freq.    1350.82  E(vib)   ...       0.01 
freq.    1352.65  E(vib)   ...       0.01 
freq.    1353.10  E(vib)   ...       0.01 
freq.    1353.83  E(vib)   ...       0.01 
freq.    1354.36  E(vib)   ...       0.01 
freq.    1355.44  E(vib)   ...       0.01 
freq.    1356.51  E(vib)   ...       0.01 
freq.    1358.06  E(vib)   ...       0.01 
freq.    1359.94  E(vib)   ...       0.01 
freq.    1360.68  E(vib)   ...       0.01 
freq.    1361.94  E(vib)   ...       0.01 
freq.    1362.75  E(vib)   ...       0.01 
freq.    1363.04  E(vib)   ...       0.01 
freq.    1363.96  E(vib)   ...       0.01 
freq.    1364.52  E(vib)   ...       0.01 
freq.    1365.22  E(vib)   ...       0.01 
freq.    1366.66  E(vib)   ...       0.01 
freq.    1369.97  E(vib)   ...       0.01 
freq.    1370.85  E(vib)   ...       0.01 
freq.    1378.87  E(vib)   ...       0.01 
freq.    1538.44  E(vib)   ...       0.00 
freq.    1548.62  E(vib)   ...       0.00 
freq.    1549.14  E(vib)   ...       0.00 
freq.    1560.68  E(vib)   ...       0.00 
freq.    1561.51  E(vib)   ...       0.00 
freq.    1566.58  E(vib)   ...       0.00 
freq.    1574.60  E(vib)   ...       0.00 
freq.    1575.41  E(vib)   ...       0.00 
freq.    1619.35  E(vib)   ...       0.00 
freq.    1626.86  E(vib)   ...       0.00 
freq.    1630.57  E(vib)   ...       0.00 
freq.    1631.89  E(vib)   ...       0.00 
freq.    1635.22  E(vib)   ...       0.00 
freq.    1637.06  E(vib)   ...       0.00 
freq.    1687.61  E(vib)   ...       0.00 
freq.    1714.20  E(vib)   ...       0.00 
freq.    1756.72  E(vib)   ...       0.00 
freq.    1827.95  E(vib)   ...       0.00 
freq.    1833.11  E(vib)   ...       0.00 
freq.    1853.18  E(vib)   ...       0.00 
freq.    1870.17  E(vib)   ...       0.00 
freq.    1885.09  E(vib)   ...       0.00 
freq.    1888.39  E(vib)   ...       0.00 
freq.    1895.56  E(vib)   ...       0.00 
freq.    1897.72  E(vib)   ...       0.00 
freq.    1900.18  E(vib)   ...       0.00 
freq.    1903.64  E(vib)   ...       0.00 
freq.    1907.90  E(vib)   ...       0.00 
freq.    1913.10  E(vib)   ...       0.00 
freq.    1968.42  E(vib)   ...       0.00 
freq.    2881.48  E(vib)   ...       0.00 
freq.    2884.83  E(vib)   ...       0.00 
freq.    2889.14  E(vib)   ...       0.00 
freq.    2891.29  E(vib)   ...       0.00 
freq.    2892.66  E(vib)   ...       0.00 
freq.    2899.72  E(vib)   ...       0.00 
freq.    2906.92  E(vib)   ...       0.00 
freq.    2907.75  E(vib)   ...       0.00 
freq.    2909.37  E(vib)   ...       0.00 
freq.    2910.54  E(vib)   ...       0.00 
freq.    2911.82  E(vib)   ...       0.00 
freq.    2912.83  E(vib)   ...       0.00 

------------
INNER ENERGY
------------

The inner energy is: U= E(el) + E(ZPE) + E(vib) + E(rot) + E(trans)
    E(el)   - is the total energy from the electronic structure calculation
              = E(kin-el) + E(nuc-el) + E(el-el) + E(nuc-nuc)
    E(ZPE)  - the the zero temperature vibrational energy from the frequency calculation
    E(vib)  - the the finite temperature correction to E(ZPE) due to population
              of excited vibrational states
    E(rot)  - is the rotational thermal energy
    E(trans)- is the translational thermal energy

Summary of contributions to the inner energy U:
Electronic energy                ...  -4464.47953340 Eh
Zero point energy                ...      0.43517088 Eh     273.07 kcal/mol
Thermal vibrational correction   ...      0.06897180 Eh      43.28 kcal/mol
Thermal rotational correction    ...      0.00141627 Eh       0.89 kcal/mol
Thermal translational correction ...      0.00141627 Eh       0.89 kcal/mol
-----------------------------------------------------------------------
Total thermal energy                  -4463.97255818 Eh


Summary of corrections to the electronic energy:
(perhaps to be used in another calculation)
Total thermal correction                  0.07180434 Eh      45.06 kcal/mol
Non-thermal (ZPE) correction              0.43517088 Eh     273.07 kcal/mol
-----------------------------------------------------------------------
Total correction                          0.50697523 Eh     318.13 kcal/mol


--------
ENTHALPY
--------

The enthalpy is H = U + kB*T
                kB is Boltzmann's constant
Total thermal energy              ...  -4463.97255818 Eh 
Thermal Enthalpy correction       ...      0.00094421 Eh       0.59 kcal/mol
-----------------------------------------------------------------------
Total Enthalpy                    ...  -4463.97161397 Eh


Note: Only C1 symmetry has been detected, increase convergence thresholds 
      if your molecule has a higher symmetry. Symmetry factor of 1.0 is   
      used for the rotational entropy correction. 
 

Note: Rotational entropy computed according to Herzberg 
Infrared and Raman Spectra, Chapter V,1, Van Nostrand Reinhold, 1945 
Point Group:  C1, Symmetry Number:   1  
Rotational constants in cm-1:     0.001695     0.000804     0.000798 

Vibrational entropy computed according to the QRRHO of S. Grimme
Chem.Eur.J. 2012 18 9955 using a reference frequency of 100.0 cm-1


-------
ENTROPY
-------

The entropy contributions are T*S = T*(S(el)+S(vib)+S(rot)+S(trans))
     S(el)   - electronic entropy
     S(vib)  - vibrational entropy
     S(rot)  - rotational entropy
     S(trans)- translational entropy
The entropies will be listed as multiplied by the temperature to get
units of energy

Electronic entropy                ...      0.00000000 Eh      0.00 kcal/mol
Vibrational entropy               ...      0.12386476 Eh     77.73 kcal/mol
Rotational entropy                ...      0.01925460 Eh     12.08 kcal/mol
Translational entropy             ...      0.02257151 Eh     14.16 kcal/mol
-----------------------------------------------------------------------
Final entropy term                ...      0.16569087 Eh    103.97 kcal/mol

In case the symmetry of your molecule has not been determined correctly
or in case you have a reason to use a different symmetry number we print 
out the resulting rotational entropy values for sn=1,12:

 non-linear molecules -----------------------------------
|  sn= 1 | S(rot)=       0.01925460 Eh     12.08 kcal/mol|
|  sn= 2 | S(rot)=       0.01860014 Eh     11.67 kcal/mol|
|  sn= 3 | S(rot)=       0.01821731 Eh     11.43 kcal/mol|
|  sn= 4 | S(rot)=       0.01794568 Eh     11.26 kcal/mol|
|  sn= 5 | S(rot)=       0.01773500 Eh     11.13 kcal/mol|
|  sn= 6 | S(rot)=       0.01756285 Eh     11.02 kcal/mol|
|  sn= 7 | S(rot)=       0.01741731 Eh     10.93 kcal/mol|
|  sn= 8 | S(rot)=       0.01729123 Eh     10.85 kcal/mol|
|  sn= 9 | S(rot)=       0.01718002 Eh     10.78 kcal/mol|
|  sn=10 | S(rot)=       0.01708054 Eh     10.72 kcal/mol|
|  sn=11 | S(rot)=       0.01699055 Eh     10.66 kcal/mol|
|  sn=12 | S(rot)=       0.01690840 Eh     10.61 kcal/mol|
 linear molecules ---------------------------------------
|  Dinfh | S(rot)=       0.01206076 Eh      7.57 kcal/mol|
|  Cinfv | S(rot)=       0.01271521 Eh      7.98 kcal/mol|
 --------------------------------------------------------


-------------------
GIBBS FREE ENERGY
-------------------

The Gibbs free energy is G = H - T*S

Total enthalpy                    ...  -4463.97161397 Eh 
Total entropy correction          ...     -0.16569087 Eh   -103.97 kcal/mol
-----------------------------------------------------------------------
Final Gibbs free energy         ...  -4464.13730483 Eh

For completeness - the Gibbs free energy minus the electronic energy
G-E(el)                           ...      0.34222857 Eh    214.75 kcal/mol


Maximum memory used throughout the entire PROP-calculation: 161.8 MB

--------------------------------
SUGGESTED CITATIONS FOR THIS RUN
--------------------------------

Below you find a list of papers that are relevant to this ORCA run
We neither can nor want to force you to cite these papers, but we appreciate if you do
You receive ORCA, which is the product of decades of hard work by many enthusiastic individuals, for free
The only thing we kindly ask in return is that you cite our papers,
We deeply appreciate it, if you show your appreciation for ORCA by not just citing the generic ORCA reference.

Please note that relegating all ORCA citations to the supporting information does *not* help us.
SI sections are not indexed - citations you put there will not count into any citation statistics
But we need these citations in order to attract the funding resources that allow us to do what we are doing

Therefore, if you are a happy ORCA user, please consider citing a few of the papers listed below in the main body of your paper

In addition to the list printed below, the program has created the file run.bibtex that contains the list in bibtex format
You can import this file easily into all common literature databanks and citation aid programs


List of essential papers. We consider these as the minimum necessary citations

  1. Neese, F.
     Software update: the ORCA program system, version 6.0
     WIRES Comput. Molec. Sci. 2025 15(1), e70019
     doi.org/10.1002/wcms.7019

List of papers to cite with high priority. The work reported in these papers was absolutely
necessary for this run to complete.
Our perspective: the developers of density functionals and basis sets usually get cited in chemistry papers
Good! But without the algorithms to do something with them, the functionals or basis sets would not do anything.
Hence, in our opinion, the algorithm design and method developments papers are equally worthy of getting cited

  1. Neese, F.
     An improvement of the resolution of the identity approximation for the formation of the Coulomb matrix
     J. Comp. Chem. 2003 24(14), 1740-1747
     doi.org/10.1002/jcc.10318
  2. Grimme, S.; Antony, J.; Ehrlich, S.; Krieg, H.
     A consistent and accurate ab initio parametrization of density functional dispersion correction (DFT-D) for the 94 elements H-Pu
     J. Chem. Phys. 2010 132 , 154104
     doi.org/10.1063/1.3382344
  3. Grimme, S.; Ehrlich, S.; Goerigk, L.
     Effect of the damping function in dispersion corrected density functional theory
     J. Comput. Chem. 2011 32(7), 1456-1465
     doi.org/10.1002/jcc.21759
  4. Bykov, D.; Petrenko, T.; Izsak, R.; Kossmann, S.; Becker, U.; Valeev, E.; Neese, F.
     Efficient implementation of the analytic second derivatives of Hartree-Fock and hybrid DFT energies: a detailed analysis of different approximations
     Molec. Phys. 2015 113 , 1961-1977
     doi.org/10.1080/00268976.2015.1025114
  5. Helmich-Paris, B.
     A trust-region augmented Hessian implementation for restricted and unrestricted Hartree–Fock and Kohn–Sham methods
     J. Chem. Phys. 2021 154 , 164104
     doi.org/10.1063/5.0040798
  6. Neese, F.
     The SHARK Integral Generation and Digestion System
     J. Comp. Chem. 2022 44(3), 381
     doi.org/10.1002/jcc.26942

List of suggested additional citations. These are papers that are important in the 'surrounding' of 
of this run, or papers that preceded the highly important papers. If you like your results we are grateful for a citation.

  1. Neese, F.
     The ORCA program system
     WIRES Comput. Molec. Sci. 2012 2(1), 73-78
     doi.org/10.1002/wcms.81
  2. Neese, F.
     Software update: the ORCA program system, version 4.0
     WIRES Comput. Molec. Sci. 2018 8(1), 1-6
     doi.org/10.1002/wcms.1327
  3. Neese, F.; Wennmohs, F.; Becker, U.; Riplinger, C.
     The ORCA quantum chemistry program package
     J. Chem. Phys. 2020 152(22), 224108
     doi.org/10.1063/5.0004608
  4. Neese, F.
     Software update: The ORCA program system—Version 5.0
     WIRES Comput. Molec. Sci. 2022 12(1), e1606
     doi.org/10.1002/wcms.1606

List of optional additional citations

  1. Neese, F.
     Approximate second-order SCF convergence for spin unrestricted wavefunctions
     Chem. Phys. Lett. 2000 325(1-3), 93-98
     doi.org/10.1016/s0009-2614(00)00662-x

Timings for individual modules:

Sum of individual times          ...     9971.370 sec (= 166.190 min)
Startup calculation              ...      361.437 sec (=   6.024 min)   3.6 %
SCF iterations                   ...     3066.940 sec (=  51.116 min)  30.8 %
Property integrals               ...     2001.252 sec (=  33.354 min)  20.1 %
SCF Response                     ...     1781.663 sec (=  29.694 min)  17.9 %
Property calculations            ...     1740.279 sec (=  29.005 min)  17.5 %
SCF Gradient evaluation          ...      981.736 sec (=  16.362 min)   9.8 %
Geometry relaxation              ...       38.063 sec (=   0.634 min)   0.4 %
                             ****ORCA TERMINATED NORMALLY****
TOTAL RUN TIME: 0 days 2 hours 46 minutes 34 seconds 553 msec
