
                                 *****************
                                 * O   R   C   A *
                                 *****************

                                            #,                                       
                                            ###                                      
                                            ####                                     
                                            #####                                    
                                            ######                                   
                                           ########,                                 
                                     ,,################,,,,,                         
                               ,,#################################,,                 
                          ,,##########################################,,             
                       ,#########################################, ''#####,          
                    ,#############################################,,   '####,        
                  ,##################################################,,,,####,       
                ,###########''''           ''''###############################       
              ,#####''   ,,,,##########,,,,          '''####'''          '####       
            ,##' ,,,,###########################,,,                        '##       
           ' ,,###''''                  '''############,,,                           
         ,,##''                                '''############,,,,        ,,,,,,###''
      ,#''                                            '''#######################'''  
     '                                                          ''''####''''         
             ,#######,   #######,   ,#######,      ##                                
            ,#'     '#,  ##    ##  ,#'     '#,    #''#        ,####,    ,#,          
            ##       ##  ##   ,#'  ##            #'  '#       #'       ,# #          
            ##       ##  #######   ##           ,######,      #####,      #          
            '#,     ,#'  ##    ##  '#,     ,#' ,#      #,     #,   #      #          
             '#######'   ##     ##  '#######'  #'      '#     '####' #    #          



                #########################################################
                #                        -***-                          #
                #          Department of theory and spectroscopy        #
                #                                                       #
                #                      Frank Neese                      #
                #                                                       #
                #     Directorship, Architecture, Infrastructure        #
                #                    SHARK, DRIVERS                     #
                #        Core code/Algorithms in most modules           #
                #                                                       #
                #        Max Planck Institute fuer Kohlenforschung      #
                #                Kaiser Wilhelm Platz 1                 #
                #                 D-45470 Muelheim/Ruhr                 #
                #                      Germany                          #
                #                                                       #
                #                  All rights reserved                  #
                #                        -***-                          #
                #########################################################


                         Program Version 6.1.0  -  RELEASE   -
                                (GIT: $679e74b$)
                          ($2025-06-10 18:02:51 +0200$)


 With contributions from (in alphabetic order):
[Max-Planck-Institut fuer Kohlenforschung]                               
  Daniel Aravena         : Magnetic Suceptibility                        
  Michael Atanasov       : Ab Initio Ligand Field Theory (pilot matlab implementation)
  Alexander A. Auer      : GIAO ZORA, VPT2 properties, NMR spectrum      
  Ute Becker             : All parallelization in ORCA, NUMFREQ, NUMCALC 
  Giovanni Bistoni       : ED, misc. LED, open-shell LED, HFLD           
  Dmytro Bykov           : pre 5.0 version of the SCF Hessian            
  Marcos Casanova-Páez   : Triplet and SCS-CIS(D). UHF-(DLPNO)-IP/EA/STEOM-CCSD. UHF-CVS-IP/STEOM-CCSD   
  Vijay G. Chilkuri      : MRCI spin determinant printing, contributions to CSF-ICE 
  Pauline Colinet        : FMM embedding                                 
  Dipayan Datta          : RHF DLPNO-CCSD density                        
  Achintya Kumar Dutta   : EOM-CC, STEOM-CC                              
  Nicolas Foglia         : Exact transition moments, OPA infrastructure, MCD improvements    
  Dmitry Ganyushin       : Spin-Orbit,Spin-Spin,Magnetic field MRCI      
  Miquel Garcia-Rates    : C-PCM and meta-GGA Hessian, CCSD/C-PCM, Gaussian charge scheme 
  Tiago L. C. Gouveia    : GS-ROHF, GS-ROCIS                             
  Yang Guo               : DLPNO-NEVPT2, F12-NEVPT2, CIM, IAO-localization        
  Andreas Hansen         : Spin unrestricted coupled pair/coupled cluster methods 
  Ingolf Harden          : AUTO-CI MPn and infrastructure                
  Benjamin Helmich-Paris : MC-RPA, TRAH-(SCF,CASSCF), AVAS, COSX integrals, SCF dyn. polar., MC-PDFT, srDFT 
  Lee Huntington         : MR-EOM, pCC                                   
  Robert Izsak           : Overlap fitted RIJCOSX, COSX-SCS-MP3, EOM     
  Riya Kayal             : Wick's Theorem for AUTO-CI, AUTO-CI UHF-CCSDT 
  Emily Kempfer          : AUTO-CI RHF CISDT and CCSDT, approximate NEVPT4
  Christian Kollmar      : KDIIS, OOCD, Brueckner-CCSD(T), CCSD density, CASPT2, CASPT2-K, improved NEVPT2 
  Axel Koslowski         : Symmetry handling                             
  Simone Kossmann        : meta-GGA functionals, TD-DFT gradient, OOMP2, (MP2 Hessian; deprecated post 5.0) 
  Lucas Lang             : DCDCAS, Hyperfine gauge corrections, ICE-SOC+SSC
  Marvin Lechner         : AUTO-CI (C++ implementation), FIC-MRCC        
  Spencer Leger          : CASSCF response                               
  Dagmar Lenk            : GEPOL surface, SMD, ORCA-2-JSON               
  Dimitrios Liakos       : Extrapolation schemes; Compound Job, Property file
  Dimitrios Manganas     : Further ROCIS development; embedding schemes. LFT, Crystal Embedding 
  Dimitrios Pantazis     : SARC Basis sets                               
  Anastasios Papadopoulos: AUTO-CI, single reference methods and gradients 
  Taras Petrenko         : pre 6.0 DFT Hessian and TD-DFT gradient,  ECA, NRVS 
  Petra Pikulova         : Analytic Raman intensities                    
  Peter Pinski           : DLPNO-MP2, DLPNO-MP2 Gradient                 
  Shashank Vittal Rao    : ES-AILFT, MagRelax                            
  Christoph Reimann      : Effective Core Potentials                     
  Marius Retegan         : Local ZFS, SOC                                
  Christoph Riplinger    : Optimizer, TS searches, QM/MM, DLPNO-CCSD(T), (RO)-DLPNO pert. Triples 
  Michael Roemelt        : Original ROCIS implementation, recursive CI coupling coefficients
  Masaaki Saitow         : Open-shell DLPNO-CCSD energy and density      
  Barbara Sandhoefer     : DKH picture change effects                    
  Yorick L. A. Schmerwitz: GMF and freeze-and-release deltaSCF, NEB S-IDPP initial path                    
  Kantharuban Sivalingam : CASSCF convergence/infrastructure, NEVPT2, NEVPT3, NEVPT4(SD), FIC-MRCI and CEPA variants
  Bernardo de Souza      : ESD, SOC TD-DFT                               
  Georgi L. Stoychev     : AutoAux, RI-MP2 NMR, DLPNO-MP2 response, X2C  
  Van Anh Tran           : RI-MP2 g-tensors                              
  Willem Van den Heuvel  : Paramagnetic NMR                              
  Zikuan Wang            : NOTCH, Electric field optimization            
  Frank Wennmohs         : Technical directorship and infrastructure     
  Hang Xu                : AUTO-CI-Response properties                   
                                                                         
[FACCTs GmbH]                                                            
  Markus Bursch, Nicolas Foglia, Miquel Garcia-Rates, Ingolf Harden, Hagen Neugebauer, Anastasios Papadopoulos, 
  Christoph Riplinger, Bernardo de Souza, Georgi L. Stoychev                                                    
                                                                 
  APM, various basis sets, CI-OPT, improved COSX, DLPNO-Multilevel,           
  DOCKER, DRACO, updates on ESD, Fragmentator, GOAT, IRC, LR-CPCM, L-BFGS, MBIS, meta-GGA TD-DFT gradient, ML-optimized integration grids, 
  MM, NACMEs, nearIR, NEB, NEB-TS, NL-DFT gradient (VV10), 2- and 3-layer-ONIOM, interface openCOSMO-RS, QMMM,   
  Crystal-QMMM, RESP, rigid body optimization, SF, symmetry and pop. for TD-DFT, various functionals, SOLVATOR                                   
                                                                         
[Other institutions]                                                     
  V. Asgeirsson          : NEB                                           
  Christoph Bannwarth    : sTDA-DFT, sTD-DFT, PBEh-3c, B97-3c, D3        
  Giovanni Bistoni       : ETS/NOCV, ADLD/ADEX, COVALED                  
  Martin Brehm           : Molecular dynamics                            
  Ronald Cardenas        : ETS/NOCV                                      
  Martina Colucci        : COVALED                                       
  Sebastian Ehlert       : rSCAN, r2SCAN, r2SCAN-3c, D4, dhf basis sets  
  Marvin Friede          : D4 for Fr, Ra, Ac-Lr                          
  Lars Goerigk           : TD-DFT with DH, B97 family of functionals     
  Stefan Grimme          : VdW corrections, initial TS optimization, DFT functionals, gCP, sTDA/sTD-DF 
  Waldemar Hujo          : DFT-NL                                        
  H. Jonsson             : NEB                                           
  Holger Kruse           : gCP                                           
  Marcel Mueller         : wB97X-3c, vDZP basis set                      
  Hagen Neugebauer       : wr2SCAN, Native XTB                           
  Gianluca Regni         : ADLD/ADEX                                     
  Tobias Risthaus        : pre 6.0 range-separated hybrid DFT and stability analysis
  Lukas Wittmann         : regularized MP2, r2SCAN double-hybrids, wr2SCAN        
                                                                         
We gratefully acknowledge several colleagues who have allowed us to      
interface, adapt or use parts of their codes:                            
  Ed Valeev, F. Pavosevic, A. Kumar             : LibInt (2-el integral package), F12 methods 
  Garnet Chan, S. Sharma, J. Yang, R. Olivares  : DMRG                   
  Ulf Ekstrom                                   : XCFun DFT Library      
  Mihaly Kallay                                 : mrcc  (arbitrary order and MRCC methods)
  Frank Weinhold                                : gennbo (NPA and NBO analysis)           
  Simon Mueller                                 : openCOSMO-RS                            
  Christopher J. Cramer and Donald G. Truhlar   : smd solvation model                     
  S Lehtola, MJT Oliveira, MAL Marques          : LibXC Library                           
  Liviu Ungur et al                             : ANISO software                          


 Your calculation uses the libint2 library for the computation of 2-el integrals
 For citations please refer to: http://libint.valeyev.net

 Your ORCA version has been built with support for libXC version: 7.0.0
 For citations please refer to: https://libxc.gitlab.io

 This ORCA versions uses:
   CBLAS   interface :  Fast vector & matrix operations
   LAPACKE interface :  Fast linear algebra routines
   SCALAPACK package :  Parallel linear algebra routines
   Shared memory     :  Shared parallel matrices
   BLAS/LAPACK       :  OpenBLAS 0.3.29  USE64BITINT DYNAMIC_ARCH NO_AFFINITY Prescott SINGLE_THREADED
        Core in use  :  Prescott
   Copyright (c) 2011-2014, The OpenBLAS Project


  ***********************************
  * Starting time: Sun Aug 17 23:01:19 2025
  * Host name:     cuda1
  * Process ID:    282738
  * Working dir.:  /local/scratch/mehlhorn/62114
  ***********************************



***************************************
The coordinates will be read from file: start.xyz
***************************************


Your calculation utilizes the geometrical counterpoise correction gCP
Please cite in your paper:
H.Kruse, S. Grimme J.Chem.Phys., 136, (2012), 154101 
   

Your calculation utilizes the atom-pairwise dispersion correction
with the Becke-Johnson damping scheme (D3BJ)


Your calculation employs the composite approach PBEh-3c.
Please cite in your paper:
Grimme, S.; Brandenburg, J. G.; Bannwarth, C.; Hansen A. J. Chem. Phys. 2015, 143, 054107 
   

================================================================================

----- Orbital basis set information -----
Your calculation utilizes the basis: def2-mSVP

----- AuxJ basis set information -----
Your calculation utilizes the auxiliary basis: def2-mSVP/J
================================================================================
                                        WARNINGS
                       Please study these warnings very carefully!
================================================================================


WARNING: Geometry Optimization
  ===> : Switching off AutoStart
         For restart on a previous wavefunction, please use MOREAD

================================================================================
                                       INPUT FILE
================================================================================
NAME = run.inp
|  1> # Geometry optimization for (AlH3)n cluster
|  2> 
|  3> %pal nprocs 24  end
|  4> 
|  5> %geom MaxIter 500 end
|  6> 
|  7> %cpcm
|  8> 	epsilon 1.95778548766667
|  9> end
| 10> 
| 11> %elprop Polar 1 end # invoke raman
| 12> 
| 13> ! PBEh-3c
| 14> ! RKS	# closed shell for AlH3
| 15> ! Freq 	# Frequency analysis to check the stabiltity of the structures
| 16> 
| 17> 
| 18> ! NoPop # population analysis not necessary	
| 19> 
| 20> ! DEFGRID3
| 21> ! ExtremeSCF
| 22> ! VeryTightOpt
| 23> 
| 24> 
| 25> ! SmallPrint
| 26> 
| 27> 
| 28> * xyzFile 0 1 start.xyz # only maingroup elements H and Al so there should be no net spin
| 29> 
| 30>                          ****END OF INPUT****
================================================================================

                       *****************************
                       * Geometry Optimization Run *
                       *****************************

Geometry optimization settings:
Update method            Update   .... BFGS
Choice of coordinates    CoordSys .... (2022) Redundant Internals
Initial Hessian          InHess   .... Almloef's Model
Max. no of cycles        MaxIter  .... 500

Convergence Tolerances:
Energy Change            TolE     ....  2.0000e-07 Eh
Max. Gradient            TolMAXG  ....  3.0000e-05 Eh/bohr
RMS Gradient             TolRMSG  ....  8.0000e-06 Eh/bohr
Max. Displacement        TolMAXD  ....  2.0000e-04 bohr
RMS Displacement         TolRMSD  ....  1.0000e-04 bohr
Strict Convergence                .... False

------------------------------------------------------------------------------
                        ORCA OPTIMIZATION COORDINATE SETUP
------------------------------------------------------------------------------

The optimization will be done in redundant internal coordinates (2022)
Making redundant internal coordinates   ...  (2022 redundants) done
Evaluating the initial hessian          ...  (Almloef) done
Evaluating the coordinates              ...  done
Calculating the B-matrix                .... done
Calculating the G-matrix                .... done
The number of degrees of freedom        ....  156

    -----------------------------------------------------------------
                    Redundant Internal Coordinates


    -----------------------------------------------------------------
         Definition                    Initial Value    Approx d2E/dq
    -----------------------------------------------------------------
      1. B(Al  1,Al  0)                  3.0930         0.058865   
      2. B(H   2,Al  1)                  1.7189         0.250389   
      3. B(H   3,Al  1)                  1.5892         0.403253   
      4. B(H   4,Al  1)                  1.7080         0.260611   
      5. B(H   4,Al  0)                  1.7156         0.253417   
      6. B(H   5,Al  0)                  1.5891         0.403416   
      7. B(H   6,Al  0)                  1.7011         0.267358   
      8. B(H   7,Al  1)                  1.5865         0.407299   
      9. B(Al  8,H   2)                  1.7177         0.251510   
     10. B(Al  8,Al  1)                  3.1244         0.052455   
     11. B(H   9,Al  8)                  1.7099         0.258834   
     12. B(H  10,Al  8)                  1.5862         0.407761   
     13. B(H  11,Al  0)                  1.5858         0.408289   
     14. B(Al 12,H   6)                  1.6991         0.269250   
     15. B(Al 12,Al  0)                  3.3570         0.022322   
     16. B(Al 12,H   9)                  1.7177         0.251547   
     17. B(Al 12,Al  8)                  3.0616         0.066072   
     18. B(H  13,Al 12)                  1.5873         0.406081   
     19. B(H  14,Al 12)                  1.5877         0.405424   
     20. B(H  15,Al  8)                  1.5895         0.402736   
     21. A(H   5,Al  0,H  11)          128.2284         0.386215   
     22. A(Al  1,Al  0,Al 12)           79.5573         0.237173   
     23. A(Al  1,Al  0,H  11)          128.2646         0.323514   
     24. A(H   4,Al  0,Al 12)           93.3969         0.258033   
     25. A(H  11,Al  0,Al 12)          103.4521         0.277301   
     26. A(H   4,Al  0,H  11)          104.5187         0.356528   
     27. A(Al  1,Al  0,H   4)           25.3279         0.299517   
     28. A(Al  1,Al  0,H   5)           93.8595         0.322878   
     29. A(H   4,Al  0,H   5)          107.5836         0.355802   
     30. A(H   4,Al  0,H   6)           98.7965         0.332081   
     31. A(H   5,Al  0,H   6)          105.0287         0.359056   
     32. A(H   6,Al  0,H  11)          108.9093         0.359791   
     33. A(H   5,Al  0,Al 12)          113.8527         0.276790   
     34. A(H   6,Al  0,Al 12)            9.1420         0.260094   
     35. A(Al  1,Al  0,H   6)           82.0739         0.302084   
     36. A(Al  0,Al  1,H   7)          124.4411         0.323385   
     37. A(H   3,Al  1,H   4)          109.0754         0.357473   
     38. A(H   2,Al  1,H   3)          107.9570         0.355053   
     39. A(H   2,Al  1,H   7)          105.2715         0.355655   
     40. A(H   3,Al  1,Al  8)           97.6060         0.316833   
     41. A(Al  0,Al  1,H   2)          103.9430         0.298945   
     42. A(H   7,Al  1,Al  8)          126.4201         0.317348   
     43. A(H   2,Al  1,H   4)           94.7425         0.330023   
     44. A(Al  0,Al  1,H   4)           25.4490         0.300855   
     45. A(Al  0,Al  1,H   3)           83.6406         0.322856   
     46. A(H   4,Al  1,Al  8)           77.0252         0.295398   
     47. A(H   2,Al  1,Al  8)           24.6025         0.293537   
     48. A(Al  0,Al  1,Al  8)           80.7125         0.268785   
     49. A(H   4,Al  1,H   7)          106.1041         0.358081   
     50. A(H   3,Al  1,H   7)          128.4883         0.386025   
     51. A(Al  1,H   2,Al  8)          130.7765         0.328091   
     52. A(Al  0,H   4,Al  1)          129.2231         0.330679   
     53. A(Al  0,H   6,Al 12)          161.7056         0.335439   
     54. A(H   9,Al  8,H  15)          108.7071         0.356980   
     55. A(H   2,Al  8,H  15)          108.1624         0.355245   
     56. A(Al  1,Al  8,H  15)           94.0643         0.316766   
     57. A(H   2,Al  8,H  10)          105.4267         0.355993   
     58. A(Al  1,Al  8,H  10)          128.5986         0.317407   
     59. A(H   2,Al  8,H   9)           94.2117         0.329893   
     60. A(Al  1,Al  8,H   9)           79.6855         0.295079   
     61. A(Al  1,Al  8,H   2)           24.6210         0.293744   
     62. A(H   9,Al  8,H  10)          106.4128         0.357733   
     63. A(H  10,Al  8,Al 12)          124.2253         0.329655   
     64. A(H   9,Al  8,Al 12)           26.7838         0.306130   
     65. A(H   2,Al  8,Al 12)          105.5142         0.304723   
     66. A(Al  1,Al  8,Al 12)           83.8092         0.273547   
     67. A(H  10,Al  8,H  15)          128.5412         0.386015   
     68. A(Al 12,Al  8,H  15)           82.0545         0.328980   
     69. A(Al  8,H   9,Al 12)          126.5631         0.329901   
     70. A(H   9,Al 12,H  14)          108.5449         0.355655   
     71. A(Al  8,Al 12,H  14)           90.6701         0.329342   
     72. A(H   6,Al 12,H  14)          108.7094         0.359791   
     73. A(Al  0,Al 12,H  14)          103.9006         0.277001   
     74. A(H   9,Al 12,H  13)          103.6759         0.355752   
     75. A(Al  8,Al 12,H  13)          129.9427         0.329430   
     76. A(H   6,Al 12,H  13)          105.7461         0.359891   
     77. A(Al  0,Al 12,H  13)          114.3149         0.277070   
     78. A(H  13,Al 12,H  14)          128.0692         0.386184   
     79. A(Al  8,Al 12,H   9)           26.6530         0.304731   
     80. A(H   6,Al 12,H   9)           98.0111         0.332062   
     81. A(Al  0,Al 12,H   9)           92.4840         0.257750   
     82. A(H   6,Al 12,Al  8)           85.4751         0.308077   
     83. A(Al  0,Al 12,Al  8)           77.5452         0.241098   
     84. A(Al  0,Al 12,H   6)            9.1524         0.260368   
     85. D(H   2,Al  1,Al  0,Al 12)    -50.8943         0.010000   
     86. D(H   2,Al  1,Al  0,H   6)    -59.7982         0.010000   
     87. D(H   3,Al  1,Al  0,Al 12)     56.0810         0.010000   
     88. D(H   3,Al  1,Al  0,H   5)    -57.4784         0.010000   
     89. D(H   2,Al  1,Al  0,H   4)     71.1278         0.010000   
     90. D(H   3,Al  1,Al  0,H   4)    178.1031         0.010000   
     91. D(H   3,Al  1,Al  0,H   6)     47.1771         0.010000   
     92. D(H   2,Al  1,Al  0,H   5)   -164.4536         0.010000   
     93. D(H   2,Al  1,Al  0,H  11)     48.0751         0.010000   
     94. D(H   3,Al  1,Al  0,H  11)    155.0504         0.010000   
     95. D(Al  8,H   2,Al  1,H   7)    151.8821         0.010000   
     96. D(Al  8,H   2,Al  1,H   3)    -68.0632         0.010000   
     97. D(Al  8,H   2,Al  1,Al  0)     19.6725         0.010000   
     98. D(Al  8,H   2,Al  1,H   4)     43.7520         0.010000   
     99. D(Al  0,H   4,Al  1,Al  8)    -95.6669         0.010000   
    100. D(Al  1,H   4,Al  0,H   5)    -59.7005         0.010000   
    101. D(Al  0,H   4,Al  1,H   3)     -1.9948         0.010000   
    102. D(Al  0,H   4,Al  1,H   2)   -112.8510         0.010000   
    103. D(Al  1,H   4,Al  0,Al 12)     56.6438         0.010000   
    104. D(Al  1,H   4,Al  0,H  11)    161.4826         0.010000   
    105. D(Al  1,H   4,Al  0,H   6)     49.2220         0.010000   
    106. D(Al  0,H   4,Al  1,H   7)    139.7487         0.010000   
    107. D(Al 12,H   6,Al  0,H  11)    -54.4821         0.010000   
    108. D(Al 12,H   6,Al  0,H   5)    165.2326         0.010000   
    109. D(Al 12,H   6,Al  0,H   4)     54.2511         0.010000   
    110. D(Al 12,H   6,Al  0,Al  1)     73.3423         0.010000   
    111. D(H   2,Al  8,Al  1,H   3)    117.0961         0.010000   
    112. D(H   2,Al  8,Al  1,Al  0)   -160.6666         0.010000   
    113. D(H   2,Al  8,Al  1,H   7)    -34.4022         0.010000   
    114. D(H   2,Al  8,Al  1,H   4)   -134.9902         0.010000   
    115. D(H   9,Al  8,Al  1,Al  0)     74.1428         0.010000   
    116. D(H  15,Al  8,H   2,Al  1)    -57.5340         0.010000   
    117. D(H  10,Al  8,H   2,Al  1)    162.0416         0.010000   
    118. D(H   9,Al  8,H   2,Al  1)     53.7273         0.010000   
    119. D(H  10,Al  8,Al  1,Al  0)    176.9812         0.010000   
    120. D(H   9,Al  8,Al  1,H   7)   -159.5927         0.010000   
    121. D(H   9,Al  8,Al  1,H   4)     99.8192         0.010000   
    122. D(Al 12,Al  8,H   2,Al  1)     29.0311         0.010000   
    123. D(H   9,Al  8,Al  1,H   3)     -8.0945         0.010000   
    124. D(H   9,Al  8,Al  1,H   2)   -125.1906         0.010000   
    125. D(Al 12,H   9,Al  8,H  15)     -5.9092         0.010000   
    126. D(Al 12,H   9,Al  8,H  10)    135.8595         0.010000   
    127. D(Al 12,H   9,Al  8,H   2)   -116.6981         0.010000   
    128. D(Al 12,H   9,Al  8,Al  1)    -96.7361         0.010000   
    129. D(Al  0,Al 12,Al  8,H  10)   -176.5111         0.010000   
    130. D(Al  0,Al 12,Al  8,H   9)   -122.6147         0.010000   
    131. D(Al  0,Al 12,Al  8,H   2)    -54.9968         0.010000   
    132. D(H  14,Al 12,H   6,Al  0)     59.5078         0.010000   
    133. D(H  13,Al 12,H   6,Al  0)   -159.9688         0.010000   
    134. D(H   9,Al 12,H   6,Al  0)    -53.2455         0.010000   
    135. D(Al  8,Al 12,H   6,Al  0)    -29.6662         0.010000   
    136. D(H   9,Al 12,Al  0,Al  1)     22.1931         0.010000   
    137. D(Al  8,Al 12,Al  0,H  11)    -82.6983         0.010000   
    138. D(Al  8,Al 12,Al  0,H   6)    149.6491         0.010000   
    139. D(Al  8,Al 12,Al  0,H   5)    134.0344         0.010000   
    140. D(Al  8,Al 12,Al  0,H   4)     23.1100         0.010000   
    141. D(Al  8,Al 12,Al  0,Al  1)     44.4157         0.010000   
    142. D(Al  0,Al 12,Al  8,Al  1)    -43.2632         0.010000   
    143. D(H   6,Al 12,Al  0,H  11)    127.6526         0.010000   
    144. D(H   6,Al 12,Al  0,H   5)    -15.6147         0.010000   
    145. D(H   6,Al 12,Al  0,H   4)   -126.5391         0.010000   
    146. D(Al  0,Al 12,Al  8,H  15)     51.7349         0.010000   
    147. D(H   6,Al 12,Al  0,Al  1)   -105.2333         0.010000   
    148. D(H  14,Al 12,H   9,Al  8)    -50.1434         0.010000   
    149. D(H   6,Al 12,H   9,Al  8)     62.7416         0.010000   
    150. D(Al  0,Al 12,H   9,Al  8)     55.4130         0.010000   
    151. D(H   6,Al 12,Al  8,H  15)     56.3593         0.010000   
    152. D(H   6,Al 12,Al  8,H  10)   -171.8867         0.010000   
    153. D(H   6,Al 12,Al  8,H   9)   -117.9903         0.010000   
    154. D(H  13,Al 12,H   9,Al  8)    171.1804         0.010000   
    155. D(H   6,Al 12,Al  8,H   2)    -50.3724         0.010000   
    156. D(H   6,Al 12,Al  8,Al  1)    -38.6387         0.010000   
    -----------------------------------------------------------------

Number of atoms                         .... 16
Number of degrees of freedom            .... 156


         *************************************************************
         *                GEOMETRY OPTIMIZATION CYCLE   1            *
         *************************************************************
---------------------------------
CARTESIAN COORDINATES (ANGSTROEM)
---------------------------------
  Al     0.687672    1.162117    2.542515
  Al    -0.254538   -0.472028    0.091286
  H      0.489523   -2.006643    0.305731
  H     -1.645295   -0.490123    0.860046
  H      0.892582    0.373858    1.032522
  H     -0.415177    2.289809    2.349606
  H     -0.102094   -0.087950    3.383477
  H      0.034742   -0.074499   -1.417086
  Al     1.142238   -2.750560    1.709666
  H     -0.282778   -2.548602    2.632835
  H      1.236672   -4.295565    1.363319
  H      2.159075    1.316001    3.113559
  Al    -0.453025   -1.606926    4.059232
  H     -2.017805   -1.608759    4.325590
  H      0.711691   -1.998377    5.064759
  H      2.269777   -1.796553    2.297173

----------------------------
CARTESIAN COORDINATES (A.U.)
----------------------------
  NO LB      ZA    FRAG     MASS         X           Y           Z
   0 Al   13.0000    0    26.982    1.299511    2.196083    4.804658
   1 Al   13.0000    0    26.982   -0.481007   -0.892003    0.172505
   2 H     1.0000    0     1.008    0.925065   -3.792006    0.577748
   3 H     1.0000    0     1.008   -3.109157   -0.926197    1.625251
   4 H     1.0000    0     1.008    1.686736    0.706489    1.951183
   5 H     1.0000    0     1.008   -0.784571    4.327111    4.440111
   6 H     1.0000    0     1.008   -0.192930   -0.166201    6.393844
   7 H     1.0000    0     1.008    0.065653   -0.140783   -2.677904
   8 Al   13.0000    0    26.982    2.158516   -5.197804    3.230801
   9 H     1.0000    0     1.008   -0.534373   -4.816159    4.975338
  10 H     1.0000    0     1.008    2.336972   -8.117442    2.576300
  11 H     1.0000    0     1.008    4.080061    2.486881    5.883774
  12 Al   13.0000    0    26.982   -0.856094   -3.036650    7.670836
  13 H     1.0000    0     1.008   -3.813098   -3.040114    8.174180
  14 H     1.0000    0     1.008    1.344901   -3.776386    9.571008
  15 H     1.0000    0     1.008    4.289256   -3.394993    4.341028

--------------------------------
INTERNAL COORDINATES (ANGSTROEM)
--------------------------------
 Al     0   0   0     0.000000000000     0.00000000     0.00000000
 Al     1   0   0     3.093010413808     0.00000000     0.00000000
 H      2   1   0     1.718911963769   103.94295310     0.00000000
 H      2   1   3     1.589190247376    83.64057422   106.97526901
 H      2   1   3     1.708019916016    25.44898429   288.87218544
 H      1   2   3     1.589080693397    93.85949895   195.54636589
 H      1   2   3     1.701062208121    82.07389718   300.20183857
 H      2   1   3     1.586472959089   124.44109868   240.04437263
 Al     3   2   1     1.717696613175   130.77647556    19.67250329
 H      9   3   2     1.709882360763    94.21168151    53.72726862
 H      9   3   2     1.586164301959   105.42670299   162.04164187
 H      1   2   3     1.585812166584   128.26463677    48.07513876
 Al     7   1   2     1.699142610645   161.70562640    73.34234966
 H     13   7   1     1.587288234662   105.74612038   200.03117437
 H     13   7   1     1.587729319236   108.70936256    59.50778291
 H      9   3   2     1.589539893486   108.16240515   302.46602109

---------------------------
INTERNAL COORDINATES (A.U.)
---------------------------
 Al     0   0   0     0.000000000000     0.00000000     0.00000000
 Al     1   0   0     5.844942611464     0.00000000     0.00000000
 H      2   1   0     3.248272859845   103.94295310     0.00000000
 H      2   1   3     3.003134342239    83.64057422   106.97526901
 H      2   1   3     3.227689872553    25.44898429   288.87218544
 H      1   2   3     3.002927315222    93.85949895   195.54636589
 H      1   2   3     3.214541710111    82.07389718   300.20183857
 H      2   1   3     2.997999411550   124.44109868   240.04437263
 Al     3   2   1     3.245976180064   130.77647556    19.67250329
 H      9   3   2     3.231209383065    94.21168151    53.72726862
 H      9   3   2     2.997416134105   105.42670299   162.04164187
 H      1   2   3     2.996750694684   128.26463677    48.07513876
 Al     7   1   2     3.210914196595   161.70562640    73.34234966
 H     13   7   1     2.999540059107   105.74612038   200.03117437
 H     13   7   1     3.000373588153   108.70936256    59.50778291
 H      9   3   2     3.003795077631   108.16240515   302.46602109

---------------------
BASIS SET INFORMATION
---------------------
There are 2 groups of distinct atoms

 Group   1 Type Al  : 10s7p1d contracted to 4s3p1d pattern {5311/511/1}
 Group   2 Type H   : 4s contracted to 2s pattern {31}

Atom   0Al   basis set group =>   1
Atom   1Al   basis set group =>   1
Atom   2H    basis set group =>   2
Atom   3H    basis set group =>   2
Atom   4H    basis set group =>   2
Atom   5H    basis set group =>   2
Atom   6H    basis set group =>   2
Atom   7H    basis set group =>   2
Atom   8Al   basis set group =>   1
Atom   9H    basis set group =>   2
Atom  10H    basis set group =>   2
Atom  11H    basis set group =>   2
Atom  12Al   basis set group =>   1
Atom  13H    basis set group =>   2
Atom  14H    basis set group =>   2
Atom  15H    basis set group =>   2
---------------------------------
AUXILIARY/J BASIS SET INFORMATION
---------------------------------
There are 2 groups of distinct atoms

 Group   1 Type Al  : 14s5p5d2f1g contracted to 8s4p3d1f1g pattern {71111111/2111/311/2/1}
 Group   2 Type H   : 5s2p1d contracted to 3s1p1d pattern {311/2/1}

Atom   0Al   basis set group =>   1
Atom   1Al   basis set group =>   1
Atom   2H    basis set group =>   2
Atom   3H    basis set group =>   2
Atom   4H    basis set group =>   2
Atom   5H    basis set group =>   2
Atom   6H    basis set group =>   2
Atom   7H    basis set group =>   2
Atom   8Al   basis set group =>   1
Atom   9H    basis set group =>   2
Atom  10H    basis set group =>   2
Atom  11H    basis set group =>   2
Atom  12Al   basis set group =>   1
Atom  13H    basis set group =>   2
Atom  14H    basis set group =>   2
Atom  15H    basis set group =>   2


           ************************************************************
           *        Program running with 24 parallel MPI-processes    *
           *              working on a common directory               *
           ************************************************************
------------------------------------------------------------------------------
                             ORCA STARTUP CALCULATIONS
                           -- RI-GTO INTEGRALS CHOSEN --
------------------------------------------------------------------------------
------------------------------------------------------------------------------
                   ___                                                        
                  /   \      - P O W E R E D   B Y -                         
                 /     \                                                     
                 |  |  |   _    _      __       _____    __    __             
                 |  |  |  | |  | |    /  \     |  _  \  |  |  /  |          
                  \  \/   | |  | |   /    \    | | | |  |  | /  /          
                 / \  \   | |__| |  /  /\  \   | |_| |  |  |/  /          
                |  |  |   |  __  | /  /__\  \  |    /   |      \           
                |  |  |   | |  | | |   __   |  |    \   |  |\   \          
                \     /   | |  | | |  |  |  |  | |\  \  |  | \   \       
                 \___/    |_|  |_| |__|  |__|  |_| \__\ |__|  \__/        
                                                                              
                      - O R C A' S   B I G   F R I E N D -                    
                                      &                                       
                       - I N T E G R A L  F E E D E R -                       
                                                                              
 v1 FN, 2020, v2 2021, v3 2022-2024                                           
------------------------------------------------------------------------------


----------------------
SHARK INTEGRAL PACKAGE
----------------------

Number of atoms                             ...     16
Number of basis functions                   ...     96
Number of shells                            ...     56
Maximum angular momentum                    ...      2
Integral batch strategy                     ... SHARK/LIBINT Hybrid
RI-J (if used) integral strategy            ... SPLIT-RIJ (Revised 2003 algorithm where possible)
Printlevel                                  ...      1
Contraction scheme used                     ... SEGMENTED contraction
Prescreening option                         ... SCHWARTZ
   Thresh                                   ... 3.000e-16
   Tcut                                     ... 3.000e-16
   Tpresel                                  ... 3.000e-16 
Coulomb Range Separation                    ... NOT USED
Exchange Range Separation                   ... NOT USED
Multipole approximations                    ... NOT USED
Finite Nucleus Model                        ... NOT USED
CABS basis                                  ... NOT available
Auxiliary Coulomb fitting basis             ... AVAILABLE
   # of basis functions in Aux-J            ...    336
   # of shells in Aux-J                     ...    128
   Maximum angular momentum in Aux-J        ...      4
Auxiliary J/K fitting basis                 ... NOT available
Auxiliary Correlation fitting basis         ... NOT available
Auxiliary 'external' fitting basis          ... NOT available

Checking pre-screening integrals            ... done (  0.0 sec) Dimension = 56
   => SHARK Basis and OBASIS are compatible. Storing Pre-screening
Shell pair information
Shell pair cut-off parameter TPreSel        ...   3.0e-16
Total number of shell pairs                 ...      1596
Shell pairs after pre-screening             ...      1538
Total number of primitive shell pairs       ...      7388
Primitive shell pairs kept                  ...      4982
          la=0 lb=0:    778 shell pairs
          la=1 lb=0:    464 shell pairs
          la=1 lb=1:     78 shell pairs
          la=2 lb=0:    160 shell pairs
          la=2 lb=1:     48 shell pairs
          la=2 lb=2:     10 shell pairs

Checking whether 4 symmetric matrices of dimension 96 fit in memory
:Max Core in MB      =   4096.00
 MB in use           =      5.38
 MB left             =   4090.62
 MB needed           =      0.14
 Data fit in memory  = YES
Calculating RI/J V-Matrix + Cholesky decomp.... done (  0.9 sec)
Calculating Nuclear repulsion               ... done (  0.0 sec) ENN=    289.617051632507 Eh

Diagonalization of the overlap matrix:
Smallest eigenvalue                        ... 6.399e-03
Time for diagonalization                   ...    0.382 sec
Threshold for overlap eigenvalues          ... 1.000e-07
Number of eigenvalues below threshold      ... 0
Time for construction of square roots      ...    0.001 sec
Total time needed                          ...    0.385 sec

-------------------
DFT GRID GENERATION
-------------------

General Integration Accuracy     IntAcc      ... 4.959
Radial Grid Type                 RadialGrid  ... OptM3 with GC (2021)
Angular Grid (max. ang.)         AngularGrid ... 6 (Lebedev-590)
Angular grid pruning method      GridPruning ... 4 (adaptive)
Weight generation scheme         WeightScheme... mBecke (2022)
Basis function cutoff            BFCut       ... 3.0000e-16
Integration weight cutoff        WCut        ... 1.0000e-14
Partially contracted basis set               ... off
Rotationally invariant grid construction     ... off
Angular grids for H and He will be reduced by one unit

Total number of grid points                  ...   169531
Total number of batches                      ...     2655
Average number of points per batch           ...       63
Average number of grid points per atom       ...    10596

--------------------
COSX GRID GENERATION
--------------------

GRIDX 1
-------
General Integration Accuracy     IntAcc      ... 4.020
Radial Grid Type                 RadialGrid  ... OptM3 with GC (2021)
Angular Grid (max. ang.)         AngularGrid ... 2 (Lebedev-110)
Angular grid pruning method      GridPruning ... 4 (adaptive)
Weight generation scheme         WeightScheme... mBecke (2022)
Basis function cutoff            BFCut       ... 3.0000e-16
Integration weight cutoff        WCut        ... 1.0000e-14
Partially contracted basis set               ... on
Rotationally invariant grid construction     ... off
Angular grids for H and He will be reduced by one unit

Total number of grid points                  ...    17005
Total number of batches                      ...      142
Average number of points per batch           ...      119
Average number of grid points per atom       ...     1063
UseSFitting                                  ... on

GRIDX 2
-------
General Integration Accuracy     IntAcc      ... 4.338
Radial Grid Type                 RadialGrid  ... OptM3 with GC (2021)
Angular Grid (max. ang.)         AngularGrid ... 3 (Lebedev-194)
Angular grid pruning method      GridPruning ... 4 (adaptive)
Weight generation scheme         WeightScheme... mBecke (2022)
Basis function cutoff            BFCut       ... 3.0000e-16
Integration weight cutoff        WCut        ... 1.0000e-14
Partially contracted basis set               ... on
Rotationally invariant grid construction     ... off
Angular grids for H and He will be reduced by one unit

Total number of grid points                  ...    39121
Total number of batches                      ...      316
Average number of points per batch           ...      123
Average number of grid points per atom       ...     2445
UseSFitting                                  ... on

GRIDX 3
-------
General Integration Accuracy     IntAcc      ... 4.871
Radial Grid Type                 RadialGrid  ... OptM3 with GC (2021)
Angular Grid (max. ang.)         AngularGrid ... 4 (Lebedev-302)
Angular grid pruning method      GridPruning ... 4 (adaptive)
Weight generation scheme         WeightScheme... mBecke (2022)
Basis function cutoff            BFCut       ... 3.0000e-16
Integration weight cutoff        WCut        ... 1.0000e-14
Partially contracted basis set               ... on
Rotationally invariant grid construction     ... off
Angular grids for H and He will be reduced by one unit

Total number of grid points                  ...    78283
Total number of batches                      ...      621
Average number of points per batch           ...      126
Average number of grid points per atom       ...     4893
UseSFitting                                  ... on
Grids setup in   5.1 sec
Initializing property integral containers    ... done (  0.0 sec)

SHARK setup successfully completed in   8.8 seconds

Maximum memory used throughout the entire STARTUP-calculation: 33.0 MB


           ************************************************************
           *        Program running with 24 parallel MPI-processes    *
           *              working on a common directory               *
           ************************************************************
-------------------------------------------------------------------------------
                                 ORCA GUESS
                   Start orbitals & Density for SCF / CASSCF
-------------------------------------------------------------------------------

------------
SCF SETTINGS
------------
Hamiltonian:
 Density Functional     Method          .... DFT(GTOs)
 Exchange Functional    Exchange        .... PBE
   PBE kappa parameter   XKappa         ....  1.024500
   PBE mue parameter    XMuePBE         ....  0.123457
 Correlation Functional Correlation     .... PBE
   PBE beta parameter  CBetaPBE         ....  0.030000
 LDA part of GGA corr.  LDAOpt          .... PW91-LDA
 Gradients option       PostSCFGGA      .... off
 Hybrid DFT is turned on
   Fraction HF Exchange ScalHFX         ....  0.420000
   Scaling of DF-GGA-X  ScalDFX         ....  0.580000
   Scaling of DF-GGA-C  ScalDFC         ....  1.000000
   Scaling of DF-LDA-C  ScalLDAC        ....  1.000000
   Perturbative correction              ....  0.000000
 RI-approximation to the Coulomb term is turned on
   Number of AuxJ basis functions       .... 336
   RIJ-COSX (HFX calculated with COS-X)).... on


General Settings:
 Integral files         IntName         .... run
 Hartree-Fock type      HFTyp           .... RHF
 Total Charge           Charge          ....    0
 Multiplicity           Mult            ....    1
 Number of Electrons    NEL             ....   64
 Basis Dimension        Dim             ....   96
 Nuclear Repulsion      ENuc            ....    289.6170516325 Eh

Convergence Acceleration:
 AO-DIIS                CNVDIIS         .... on
   Start iteration      DIISMaxIt       ....    12
   Startup error        DIISStart       ....  0.200000
   # of expansion vecs  DIISMaxEq       ....     5
   Bias factor          DIISBfac        ....   1.050
   Max. coefficient     DIISMaxC        ....  10.000
 MO-DIIS                CNVKDIIS        .... off
 Trust-Rad. Augm. Hess. CNVTRAH         .... auto
   Auto Start mean grad. ratio tolernc. ....  1.125000
   Auto Start start iteration           ....    50
   Auto Start num. interpolation iter.  ....    10
   Max. Number of Micro iterations      ....    24
   Max. Number of Macro iterations      .... Maxiter - #DIIS iter
   Number of Davidson start vectors     ....     2
   Converg. threshold    (grad. norm)   ....   1.000e-09
   Grad. Scal. Fac. for Micro threshold ....   0.100
   Minimum threshold for Micro iter.    ....   1.000e-02
   NR start threshold (gradient norm)   ....   1.000e-04
   Initial trust radius                 ....   0.400
   Minimum AH scaling param. (alpha)    ....   1.000
   Maximum AH scaling param. (alpha)    .... 1000.000
   Quad. conv. algorithm                .... NR
   White noise on init. David. guess    .... on
   Maximum white noise                  ....   0.010
   Pseudo random numbers                .... off
   Inactive MOs                         .... canonical
   Orbital update algorithm             .... Taylor
   Preconditioner                       .... Diag
   Full preconditioner red. dimension   ....   250
 SOSCF                 CNVSOSCF           .... on
   Start iteration     SOSCFMaxIt         ....   150
   Startup grad/error  SOSCFStart         ....  0.003300
   Hessian update      SOSCFHessUp        .... L-BFGS
   Autom. constraints  SOSCFAutoConstrain .... off
 Level Shifting         CNVShift        .... on
   Level shift para.    LevelShift      ....    0.2500
   Turn off err/grad.   ShiftErr        ....    0.0010
 Zerner damping         CNVZerner       .... off
 Static damping         CNVDamp         .... on
   Fraction old density DampFac         ....    0.7000
   Max. Damping (<1)    DampMax         ....    0.9800
   Min. Damping (>=0)   DampMin         ....    0.0000
   Turn off err/grad.   DampErr         ....    0.1000

SCF Procedure:
 Maximum # iterations   MaxIter         ....   125
 SCF integral mode      SCFMode         .... Direct
   Integral package                     .... SHARK and LIBINT hybrid scheme
 Reset frequency        DirectResetFreq ....    20
 Integral Threshold     Thresh          ....  3.000e-16 Eh
 Primitive CutOff       TCut            ....  3.000e-16 Eh

Convergence Tolerance:
 Convergence Check Mode ConvCheckMode   .... All-Criteria
 Convergence forced     ConvForced      .... 0
 Energy Change          TolE            ....  1.000e-14 Eh
 Max Density Change     TolMaxP         ....  1.000e-14
 RMS Density Change     TolRMSP         ....  1.000e-14
 Orbital Gradient       TolG            ....  1.000e-09
 Orbital Rotation angle TolX            ....  1.000e-09
 DIIS Error             TolErr          ....  1.000e-14

--------------------------------
INITIAL GUESS: MINIMAL BASIS EHT
--------------------------------
The minimal basis has 48 functions
EHT matrix was diagonalized
Basis set overlap was calculated now projecting the orbitals
Using GuessMode=FMatrix for the initial guess
C*T matrix was formed
Effective Fockian was calculated
Effective Fockian was diagonalized
Initial density was built
                      ------------------
                      INITIAL GUESS DONE
                      ------------------
             **** ENERGY FILE WAS UPDATED (run.en.tmp) ****
Finished Guess after   0.8 sec
Maximum memory used throughout the entire GUESS-calculation: 7.6 MB


           ************************************************************
           *        Program running with 24 parallel MPI-processes    *
           *              working on a common directory               *
           ************************************************************

-------------------------------------------------------------------------------------------
                                      ORCA LEAN-SCF
                              memory conserving SCF solver
-------------------------------------------------------------------------------------------

--------------------
CPCM SOLVATION MODEL
--------------------
CPCM parameters:
  Epsilon                                         ...       1.9578
  Refrac                                          ...       1.0000
  Rsolv                                           ...       1.3000
  Surface type                                    ... GAUSSIAN VDW
  Discretization scheme                           ... Constant charge density
    Threshold for H atoms                         ...       5.0000 (charges/Ang^2)
    Threshold for non-H atoms                     ...       5.0000 (charges/Ang^2)
  Epsilon function type                           ...         CPCM
Solvent:                                          ... CUSTOM
Radii:
  Scheme                                          ... Element-dependent radii
  Radius for Al used is    4.1725 Bohr (=   2.2080 Ang.)
  Radius for H  used is    2.4944 Bohr (=   1.3200 Ang.)
Calculating surface                               ...        done! (  0.0s)
Cavity surface points                             ...         1475
Cavity Volume                                     ...    1227.2916
Cavity Surface-area                               ...     708.2117
Calculating surface distance matrix               ...        done! (  0.0s)
Performing Cholesky decomposition & store         ...        done! (  0.2s)
Overall time for CPCM initialization              ...                 0.3s

----------------------------------------D-I-I-S--------------------------------------------
Iteration    Energy (Eh)           Delta-E    RMSDP     MaxDP     DIISErr   Damp  Time(sec)
-------------------------------------------------------------------------------------------
               ***  Starting incremental Fock matrix formation  ***
    1    -974.2171751139401294     0.00e+00  4.26e-02  9.39e-02  3.44e-01  0.700   1.5
    2    -974.6447238367547925    -4.28e-01  3.56e-02  7.45e-02  2.45e-01  0.700   0.6
                               ***Turning on AO-DIIS***
    3    -974.9438754694158433    -2.99e-01  2.54e-02  4.90e-02  1.69e-01  0.700   0.6
    4    -975.1479895839197525    -2.04e-01  1.81e-02  3.37e-02  1.18e-01  0.700   0.6
    5    -975.2887077675259206    -1.41e-01  1.29e-02  2.35e-02  8.27e-02  0.700   0.6
    6    -975.3863230970682707    -9.76e-02  3.06e-02  5.51e-02  5.78e-02  0.000   0.6
                              *** Initializing SOSCF ***
---------------------------------------S-O-S-C-F--------------------------------------
Iteration    Energy (Eh)           Delta-E    RMSDP     MaxDP     MaxGrad    Time(sec)
--------------------------------------------------------------------------------------
    7    -975.6115621770054531    -2.25e-01  6.40e-04  1.47e-03  7.46e-04     0.6
               *** Restarting incremental Fock matrix formation ***
    8    -975.6115965806011445    -3.44e-05  4.43e-04  1.37e-03  2.72e-04     0.9
    9    -975.6116006582067257    -4.08e-06  1.16e-04  3.62e-04  4.65e-05     0.8
   10    -975.6116008420317485    -1.84e-07  5.30e-06  1.12e-05  3.17e-06     0.8
   11    -975.6116008427104589    -6.79e-10  1.39e-06  3.17e-06  7.84e-07     0.7
   12    -975.6116008427907218    -8.03e-11  2.67e-07  1.14e-06  1.21e-07     0.7
   13    -975.6116008427950419    -4.32e-12  3.46e-08  1.41e-07  2.19e-08     0.7
   14    -975.6116008427964061    -1.36e-12  3.97e-09  7.26e-09  2.70e-09     0.7
   15    -975.6116008427954966     9.09e-13  0.00e+00  0.00e+00  9.90e-10     0.6
                           ***RMSP convergence achieved***
                           ***MAXP convergence achieved***
                       ***Gradient convergence achieved***
                    ***Orbital Rotation convergence achieved***
   16    -975.6116008427954966     0.00e+00  0.00e+00  0.00e+00  9.90e-10     0.3
                          ***Energy convergence achieved***

               *****************************************************
               *                     SUCCESS                       *
               *           SCF CONVERGED AFTER  16 CYCLES          *
               *****************************************************

Recomputing exchange energy using gridx3       ... done (    0.871 sec)
Old exchange energy                            :    -32.224106545 Eh
New exchange energy                            :    -32.224115788 Eh
Exchange energy change after final integration :     -0.000009243 Eh
Total energy after final integration           :   -975.611610086 Eh
             **** ENERGY FILE WAS UPDATED (run.en.tmp) ****

----------------
TOTAL SCF ENERGY
----------------

Total Energy       :       -975.61161008558952 Eh          -26547.74157 eV

Components:
Nuclear Repulsion  :        289.61705163250696 Eh            7880.88063 eV
Electronic Energy  :      -1265.22272006582125 Eh          -34428.46052 eV
One Electron Energy:      -1931.26153627005033 Eh          -52552.29811 eV
Two Electron Energy:        666.03881620422919 Eh           18123.83759 eV
CPCM Dielectric    :         -0.00593240948126 Eh              -0.16143 eV

Virial components:
Potential Energy   :      -1948.89794779203157 Eh          -53032.20926 eV
Kinetic Energy     :        973.28633770644217 Eh           26484.46769 eV
Virial Ratio       :          2.00238909382477

DFT components:
N(Alpha)           :       31.999996981807 electrons
N(Beta)            :       31.999996981807 electrons
N(Total)           :       63.999993963615 electrons
E(X)               :      -42.858442239245 Eh       
E(C)               :       -2.959055351237 Eh       
E(XC)              :      -45.817497590482 Eh       

CPCM Solvation Model Properties:
Surface-charge          :         -0.06031612414510
Corrected charge        :          0.00000000000000
Outlying charge corr.   :          0.00012531599231 Eh               0.00341 eV
Free-energy (cav+disp)  :  This term is not implemented in the current solvation scheme

---------------
SCF CONVERGENCE
---------------

  Last Energy change         ...    0.0000e+00  Tolerance :   1.0000e-14
  Last MAX-Density change    ...    0.0000e+00  Tolerance :   1.0000e-14
  Last RMS-Density change    ...    0.0000e+00  Tolerance :   1.0000e-14
  Last DIIS Error            ...    7.4624e-04  Tolerance :   1.0000e-14
  Last Orbital Gradient      ...    9.8955e-10  Tolerance :   1.0000e-09
  Last Orbital Rotation      ...    0.0000e+00  Tolerance :   1.0000e-09


----------------
ORBITAL ENERGIES
----------------

  NO   OCC          E(Eh)            E(eV) 
   0   2.0000     -56.623844     -1540.8131 
   1   2.0000     -56.623718     -1540.8097 
   2   2.0000     -56.623639     -1540.8075 
   3   2.0000     -56.623586     -1540.8061 
   4   2.0000      -4.364015      -118.7509 
   5   2.0000      -4.363695      -118.7422 
   6   2.0000      -4.362678      -118.7145 
   7   2.0000      -4.362582      -118.7119 
   8   2.0000      -2.854934       -77.6867 
   9   2.0000      -2.854626       -77.6783 
  10   2.0000      -2.853587       -77.6500 
  11   2.0000      -2.853456       -77.6465 
  12   2.0000      -2.853177       -77.6389 
  13   2.0000      -2.852869       -77.6305 
  14   2.0000      -2.852037       -77.6079 
  15   2.0000      -2.851954       -77.6056 
  16   2.0000      -2.848913       -77.5229 
  17   2.0000      -2.848557       -77.5132 
  18   2.0000      -2.847476       -77.4838 
  19   2.0000      -2.847366       -77.4808 
  20   2.0000      -0.591776       -16.1030 
  21   2.0000      -0.524935       -14.2842 
  22   2.0000      -0.518671       -14.1138 
  23   2.0000      -0.442887       -12.0516 
  24   2.0000      -0.417644       -11.3647 
  25   2.0000      -0.391735       -10.6596 
  26   2.0000      -0.381455       -10.3799 
  27   2.0000      -0.377183       -10.2637 
  28   2.0000      -0.369390       -10.0516 
  29   2.0000      -0.360467        -9.8088 
  30   2.0000      -0.354282        -9.6405 
  31   2.0000      -0.350565        -9.5394 
  32   0.0000      -0.009452        -0.2572 
  33   0.0000      -0.000918        -0.0250 
  34   0.0000       0.002429         0.0661 
  35   0.0000       0.005925         0.1612 
  36   0.0000       0.022701         0.6177 
  37   0.0000       0.034407         0.9363 
  38   0.0000       0.062328         1.6960 
  39   0.0000       0.073563         2.0017 
  40   0.0000       0.076518         2.0822 
  41   0.0000       0.083468         2.2713 
  42   0.0000       0.096023         2.6129 
*Only the first 10 virtual orbitals were printed.
-------
TIMINGS
-------

Total SCF time: 0 days 0 hours 0 min 13 sec 

Total time                  ....      13.410 sec
Sum of individual times     ....      12.999 sec  ( 96.9%)

SCF preparation             ....       0.975 sec  (  7.3%)
Fock matrix formation       ....      11.555 sec  ( 86.2%)
  Startup                   ....       0.007 sec  (  0.1% of F)
  Split-RI-J                ....       0.762 sec  (  6.6% of F)
  Chain of spheres X        ....       6.653 sec  ( 57.6% of F)
  XC integration            ....       2.479 sec  ( 21.5% of F)
    XC Preparation          ....       0.000 sec  (  0.0% of XC)
    Basis function eval.    ....       0.690 sec  ( 27.8% of XC)
    Density eval.           ....       0.430 sec  ( 17.4% of XC)
    XC-Functional eval.     ....       0.179 sec  (  7.2% of XC)
    XC-Potential eval.      ....       0.305 sec  ( 12.3% of XC)
  CPCM terms                ....       1.709 sec  ( 14.8% of F)
Diagonalization             ....       0.000 sec  (  0.0%)
Density matrix formation    ....       0.055 sec  (  0.4%)
Total Energy calculation    ....       0.043 sec  (  0.3%)
Population analysis         ....       0.000 sec  (  0.0%)
Orbital Transformation      ....       0.020 sec  (  0.2%)
Orbital Orthonormalization  ....       0.000 sec  (  0.0%)
DIIS solution               ....       0.201 sec  (  1.5%)
SOSCF solution              ....       0.150 sec  (  1.1%)
Finished LeanSCF after  13.5 sec

Maximum memory used throughout the entire LEANSCF-calculation: 10.2 MB


           ************************************************************
           *        Program running with 24 parallel MPI-processes    *
           *              working on a common directory               *
           ************************************************************

------------------------------------------------------------------------------
                         ORCA PROPERTY INTEGRAL CALCULATIONS
------------------------------------------------------------------------------

GBWName                                   ... run.gbw
Number of atoms                           ...     16
Number of basis functions                 ...     96
Max core memory                           ...   4096 MB

Dipole integrals                          ... YES
Quadrupole integrals                      ...  NO
Linear momentum integrals                 ...  NO
Angular momentum integrals                ...  NO
Higher moments length integrals           ...  NO
Higher moments velocity integrals         ...  NO
Kinetic energy integrals                  ...  NO
GIAO right hand sides                     ...  NO
GIAO dipole derivative integrals          ...  NO
SOC integrals                             ...  NO
EPR diamagnetic integrals (GIAO)          ...  NO
EPR gauge integrals                       ...  NO
Field gradient integrals                  ...  NO (   0 nuclei)
Spin-dipole/Fermi contact integrals       ...  NO (   0 nuclei)
Contact density integrals                 ...  NO (   0 nuclei)
Nucleus-orbit integrals                   ...  NO (   0 nuclei)
Geometric perturbations                   ...  NO (  16 nuclei)

Choice of electric origin   ... Center of mass
Position of electric origin ... (  0.5297, -1.7314,  3.9713) 
Choice of magnetic origin   ... GIAO
Position of magnetic origin ... (  0.0000,  0.0000,  0.0000) 

Calculating integrals                     ... Electric Dipole (Length)     done (  0.1 sec)

Property integrals calculated in   0.1 sec

Maximum memory used throughout the entire PROPINT-calculation: 7.8 MB


-------------------------------------------------------------------------------
                          DFT DISPERSION CORRECTION                            
                                                                               
                              DFTD3 V3.1  Rev 1                                
                          USING Becke-Johnson damping                          
-------------------------------------------------------------------------------
The PBEh-3c composite method is recognized
Using three-body term ABC
Active option DFTDOPT                   ...         4   

molecular C6(AA) [au] = 4941.447982 


            DFT-D V3
 parameters
 s6 scaling factor         :     1.0000 
 a1 scaling factor         :     0.4860 
 s8 scaling factor         :     0.0000 
 a2 scaling factor         :     4.5000 
 Damping factor alpha9(ATM):    16.0000 
 ad hoc parameters k1-k3   :    16.0000     1.3333    -4.0000 

 Edisp/kcal,au: -4.325645986208  -0.006893354927 
 E6   /kcal   :  -4.350324341 
 E8   /kcal   :  -0.000000000 
 E6(ABC)      :   0.024678355 
 % E8         :   0.000000000 
 % E6(ABC)    :  -0.570512586 

-------------------------   ----------------
Dispersion correction           -0.006893355
-------------------------   ----------------

------------------   -----------------
gCP correction             0.026985571
------------------   -----------------

-------------------------   --------------------
FINAL SINGLE POINT ENERGY      -975.591517869616
-------------------------   --------------------



           ************************************************************
           *        Program running with 24 parallel MPI-processes    *
           *              working on a common directory               *
           ************************************************************
------------------------------------------------------------------------------
                         ORCA SCF GRADIENT CALCULATION
------------------------------------------------------------------------------

Nuc. rep. gradient        (SHARK) ... done (  0.0 sec)
HCore & Overlap gradient  (SHARK) ... done (  0.1 sec)
Split-RIJ-J gradient      (SHARK) ... done (  0.6 sec)
done (  4.0 sec)
XC gradient                       ... done (  1.3 sec)
CPCM gradient                     ... done (  0.3 sec)
Dispersion correction             ... done (  0.2 sec)

-------------------
DISPERSION GRADIENT
-------------------

   1   Al  :    0.000042473    0.000203823    0.000041213
   2   Al  :   -0.000056872    0.000034664   -0.000186164
   3   H   :    0.000009529   -0.000050500   -0.000082204
   4   H   :   -0.000096633    0.000017797   -0.000078905
   5   H   :    0.000030355    0.000069759   -0.000054842
   6   H   :   -0.000014910    0.000093724    0.000016266
   7   H   :   -0.000023073    0.000049601    0.000077241
   8   H   :   -0.000009998    0.000017312   -0.000082542
   9   Al  :    0.000087690   -0.000169406   -0.000040668
  10   H   :   -0.000027979   -0.000086308    0.000031069
  11   H   :    0.000027687   -0.000078604   -0.000019449
  12   H   :    0.000065640    0.000080130    0.000031014
  13   Al  :   -0.000074447   -0.000069757    0.000189916
  14   H   :   -0.000070835   -0.000020369    0.000063837
  15   H   :    0.000005449   -0.000030342    0.000096154
  16   H   :    0.000105923   -0.000061526   -0.000001936

Difference to translation invariance:
           :    0.0000000000    0.0000000000    0.0000000000

Difference to rotation invariance:
           :    0.0000000000   -0.0000000000    0.0000000000

Norm of the Dispersion gradient    ...    0.0005395357
RMS gradient                       ...    0.0000778753
MAX gradient                       ...    0.0002038226
gCP correction                   ... done

------------------
CARTESIAN GRADIENT
------------------

   1   Al  :   -0.000029409   -0.000895538   -0.000238369
   2   Al  :   -0.001744122    0.000714948    0.002204809
   3   H   :    0.000242187   -0.002359749   -0.003635475
   4   H   :   -0.003648345   -0.000213909    0.001591815
   5   H   :    0.004100471    0.000545990   -0.001892507
   6   H   :   -0.002990024    0.002876940   -0.000517605
   7   H   :   -0.001925913    0.001408668    0.001344596
   8   H   :    0.001064327    0.000935204   -0.003848668
   9   Al  :    0.001423187    0.002011382    0.002100894
  10   H   :   -0.003858066   -0.002474294   -0.001224499
  11   H   :   -0.000103128   -0.003971503   -0.001039615
  12   H   :    0.003794546    0.000409684    0.001332501
  13   Al  :    0.001788051   -0.000081470   -0.000478581
  14   H   :   -0.004092705    0.000042571    0.000442208
  15   H   :    0.002915361   -0.001101492    0.002726818
  16   H   :    0.003063581    0.002152568    0.001131678

Difference to translation invariance:
           :    0.0000000000   -0.0000000000    0.0000000000

Difference to rotation invariance:
           :   -0.0000805842   -0.0002048249    0.0000003869

Norm of the Cartesian gradient     ...    0.0150177553
RMS gradient                       ...    0.0021676263
MAX gradient                       ...    0.0041004713

-------
TIMINGS
-------

Total SCF gradient time     ....        6.545 sec

Densities                   ....       0.001 sec  (  0.0%)
One electron gradient       ....       0.095 sec  (  1.5%)
RI-J Coulomb gradient       ....       0.572 sec  (  8.7%)
COSX gradient               ....       4.008 sec  ( 61.2%)
XC gradient                 ....       1.306 sec  ( 20.0%)
CPCM gradient               ....       0.315 sec  (  4.8%)
   A-Matrix (El+Nuc)        ....       0.009 sec  (  0.1%)
   Potential                ....       0.307 sec  (  4.7%)

Maximum memory used throughout the entire SCFGRAD-calculation: 27.5 MB
------------------------------------------------------------------------------
                         ORCA GEOMETRY RELAXATION STEP
------------------------------------------------------------------------------

Reading the OPT-File                    .... done
Getting information on internals        .... done
Copying old internal coords+grads       .... done
Making the new internal coordinates     .... (2022 redundants) done
Validating the new internal coordinates .... (2022 redundants) done
Calculating the B-matrix                .... done
Calculating the G,G- and P matrices     .... done
Transforming gradient to internals      .... done
Projecting the internal gradient        .... done
Number of atoms                         ....  16
Number of internal coordinates          .... 156
Current Energy                          ....  -975.591517870 Eh
Current gradient norm                   ....     0.015017755 Eh/bohr
Maximum allowed component of the step   ....  0.300
Current trust radius                    ....  0.300
Evaluating the initial hessian          ....  (Almloef) done
Projecting the Hessian                  .... done
Forming the augmented Hessian           .... done
Diagonalizing the augmented Hessian     .... done
Last element of RFO vector              ....  0.998584562
Lowest eigenvalues of augmented Hessian:
 -0.000626084  0.011543755  0.016561454  0.018845455  0.029630133
Length of the computed step             ....  0.053262539
The final length of the internal step   ....  0.053262539
Converting the step to Cartesian space:
 Initial RMS(Int)=    0.0042644160
Transforming coordinates:
 Iter   0:  RMS(Cart)=    0.0079417870 RMS(Int)=    0.0042662693
done
Storing new coordinates                 .... done

                                .--------------------.
          ----------------------|Geometry convergence|-------------------------
          Item                value                   Tolerance       Converged
          ---------------------------------------------------------------------
          RMS gradient        0.0011012878            0.0000080000      NO
          MAX gradient        0.0041787728            0.0000300000      NO
          RMS step            0.0042644160            0.0001000000      NO
          MAX step            0.0167206855            0.0002000000      NO
          -------------------------------------------------------------------------
          ........................................................
          Max(Bonds)      0.0088      Max(Angles)    0.33
          Max(Dihed)        0.50      Max(Improp)    0.00
          ---------------------------------------------------------------------

The optimization has not yet converged - more geometry cycles are needed


    ---------------------------------------------------------------------------
                         Redundant Internal Coordinates
                            (Angstroem and degrees)

        Definition                    Value    dE/dq     Step     New-Value
    ----------------------------------------------------------------------------
     1. B(Al  1,Al  0)                3.0930  0.001288 -0.0046    3.0884   
     2. B(H   2,Al  1)                1.7189  0.001982 -0.0053    1.7136   
     3. B(H   3,Al  1)                1.5892  0.003969 -0.0052    1.5840   
     4. B(H   4,Al  1)                1.7080  0.001878 -0.0050    1.7030   
     5. B(H   4,Al  0)                1.7156  0.001645 -0.0048    1.7108   
     6. B(H   5,Al  0)                1.5891  0.004179 -0.0055    1.5836   
     7. B(H   6,Al  0)                1.7011  0.001113 -0.0051    1.6959   
     8. B(H   7,Al  1)                1.5865  0.004086 -0.0053    1.5812   
     9. B(Al  8,H   2)                1.7177  0.002037 -0.0055    1.7122   
    10. B(Al  8,Al  1)                3.1244  0.001573 -0.0060    3.1184   
    11. B(H   9,Al  8)                1.7099  0.002015 -0.0052    1.7047   
    12. B(H  10,Al  8)                1.5862  0.004090 -0.0053    1.5809   
    13. B(H  11,Al  0)                1.5858  0.004041 -0.0052    1.5806   
    14. B(Al 12,H   6)                1.6991  0.000983 -0.0049    1.6943   
    15. B(Al 12,Al  0)                3.3570  0.001554 -0.0088    3.3481   
    16. B(Al 12,H   9)                1.7177  0.001458 -0.0047    1.7130   
    17. B(Al 12,Al  8)                3.0616  0.001236 -0.0044    3.0572   
    18. B(H  13,Al 12)                1.5873  0.004106 -0.0053    1.5819   
    19. B(H  14,Al 12)                1.5877  0.004140 -0.0054    1.5823   
    20. B(H  15,Al  8)                1.5895  0.003882 -0.0051    1.5844   
    21. A(H   5,Al  0,H  11)          128.23  0.000057   -0.00    128.22   
    22. A(Al  1,Al  0,Al 12)           79.56  0.000077    0.06     79.62   
    23. A(Al  1,Al  0,H  11)          128.26  0.000066   -0.05    128.22   
    24. A(H   4,Al  0,Al 12)           93.40  0.000464   -0.07     93.33   
    25. A(H  11,Al  0,Al 12)          103.45 -0.000013    0.00    103.45   
    26. A(H   4,Al  0,H  11)          104.52 -0.000599    0.09    104.61   
    27. A(Al  1,Al  0,H   4)           25.33  0.000699   -0.17     25.16   
    28. A(Al  1,Al  0,H   5)           93.86 -0.000145    0.03     93.89   
    29. A(H   4,Al  0,H   5)          107.58  0.000212   -0.00    107.58   
    30. A(H   4,Al  0,H   6)           98.80  0.000821   -0.15     98.65   
    31. A(H   5,Al  0,H   6)          105.03 -0.000513    0.08    105.11   
    32. A(H   6,Al  0,H  11)          108.91  0.000275   -0.05    108.86   
    33. A(H   5,Al  0,Al 12)          113.85 -0.000031   -0.02    113.83   
    34. A(H   6,Al  0,Al 12)            9.14  0.000501   -0.11      9.03   
    35. A(Al  1,Al  0,H   6)           82.07  0.000212    0.03     82.10   
    36. A(Al  0,Al  1,H   7)          124.44 -0.000130   -0.01    124.43   
    37. A(H   3,Al  1,H   4)          109.08  0.000854   -0.19    108.88   
    38. A(H   2,Al  1,H   3)          107.96  0.000225   -0.05    107.90   
    39. A(H   2,Al  1,H   7)          105.27 -0.000624    0.13    105.40   
    40. A(H   3,Al  1,Al  8)           97.61  0.000013    0.01     97.62   
    41. A(Al  0,Al  1,H   2)          103.94  0.000665   -0.09    103.85   
    42. A(H   7,Al  1,Al  8)          126.42  0.000012   -0.01    126.41   
    43. A(H   2,Al  1,H   4)           94.74  0.000271    0.00     94.74   
    44. A(Al  0,Al  1,H   4)           25.45  0.000667   -0.16     25.29   
    45. A(Al  0,Al  1,H   3)           83.64  0.000186   -0.03     83.61   
    46. A(H   4,Al  1,Al  8)           77.03 -0.000098    0.05     77.08   
    47. A(H   2,Al  1,Al  8)           24.60  0.000773   -0.15     24.45   
    48. A(Al  0,Al  1,Al  8)           80.71 -0.000066    0.05     80.76   
    49. A(H   4,Al  1,H   7)          106.10 -0.000670    0.13    106.24   
    50. A(H   3,Al  1,H   7)          128.49 -0.000003   -0.00    128.48   
    51. A(Al  1,H   2,Al  8)          130.78 -0.001539    0.31    131.08   
    52. A(Al  0,H   4,Al  1)          129.22 -0.001366    0.33    129.55   
    53. A(Al  0,H   6,Al 12)          161.71 -0.001010    0.22    161.93   
    54. A(H   9,Al  8,H  15)          108.71  0.000820   -0.21    108.50   
    55. A(H   2,Al  8,H  15)          108.16  0.000206   -0.07    108.09   
    56. A(Al  1,Al  8,H  15)           94.06 -0.000129    0.04     94.10   
    57. A(H   2,Al  8,H  10)          105.43 -0.000677    0.15    105.58   
    58. A(Al  1,Al  8,H  10)          128.60  0.000046   -0.01    128.59   
    59. A(H   2,Al  8,H   9)           94.21  0.000304    0.04     94.25   
    60. A(Al  1,Al  8,H   9)           79.69  0.000062    0.03     79.72   
    61. A(Al  1,Al  8,H   2)           24.62  0.000766   -0.15     24.47   
    62. A(H   9,Al  8,H  10)          106.41 -0.000555    0.13    106.54   
    63. A(H  10,Al  8,Al 12)          124.23 -0.000106    0.00    124.23   
    64. A(H   9,Al  8,Al 12)           26.78  0.000599   -0.16     26.62   
    65. A(H   2,Al  8,Al 12)          105.51  0.000737   -0.09    105.43   
    66. A(Al  1,Al  8,Al 12)           83.81  0.000071    0.02     83.83   
    67. A(H  10,Al  8,H  15)          128.54 -0.000024   -0.01    128.53   
    68. A(Al 12,Al  8,H  15)           82.05  0.000225   -0.05     82.00   
    69. A(Al  8,H   9,Al 12)          126.56 -0.001282    0.33    126.89   
    70. A(H   9,Al 12,H  14)          108.54  0.000323   -0.05    108.49   
    71. A(Al  8,Al 12,H  14)           90.67 -0.000071    0.01     90.68   
    72. A(H   6,Al 12,H  14)          108.71  0.000275   -0.06    108.65   
    73. A(Al  0,Al 12,H  14)          103.90 -0.000001   -0.02    103.88   
    74. A(H   9,Al 12,H  13)          103.68 -0.000669    0.13    103.80   
    75. A(Al  8,Al 12,H  13)          129.94 -0.000003   -0.03    129.91   
    76. A(H   6,Al 12,H  13)          105.75 -0.000458    0.09    105.83   
    77. A(Al  0,Al 12,H  13)          114.31  0.000021   -0.01    114.31   
    78. A(H  13,Al 12,H  14)          128.07  0.000055   -0.00    128.07   
    79. A(Al  8,Al 12,H   9)           26.65  0.000683   -0.17     26.49   
    80. A(H   6,Al 12,H   9)           98.01  0.000622   -0.13     97.88   
    81. A(Al  0,Al 12,H   9)           92.48  0.000394   -0.06     92.43   
    82. A(H   6,Al 12,Al  8)           85.48  0.000396   -0.02     85.45   
    83. A(Al  0,Al 12,Al  8)           77.55 -0.000042    0.08     77.63   
    84. A(Al  0,Al 12,H   6)            9.15  0.000508   -0.11      9.04   
    85. D(H   2,Al  1,Al  0,Al 12)    -50.89 -0.000216    0.16    -50.74   
    86. D(H   2,Al  1,Al  0,H   6)    -59.80 -0.000702    0.26    -59.54   
    87. D(H   3,Al  1,Al  0,Al 12)     56.08  0.000030    0.10     56.18   
    88. D(H   3,Al  1,Al  0,H   5)    -57.48  0.000037    0.13    -57.35   
    89. D(H   2,Al  1,Al  0,H   4)     71.13 -0.000194    0.05     71.18   
    90. D(H   3,Al  1,Al  0,H   4)    178.10  0.000053   -0.01    178.09   
    91. D(H   3,Al  1,Al  0,H   6)     47.18 -0.000455    0.20     47.38   
    92. D(H   2,Al  1,Al  0,H   5)   -164.45 -0.000209    0.19   -164.27   
    93. D(H   2,Al  1,Al  0,H  11)     48.08 -0.000178    0.21     48.29   
    94. D(H   3,Al  1,Al  0,H  11)    155.05  0.000069    0.15    155.20   
    95. D(Al  8,H   2,Al  1,H   7)    151.88 -0.000086   -0.04    151.84   
    96. D(Al  8,H   2,Al  1,H   3)    -68.06 -0.000426    0.02    -68.05   
    97. D(Al  8,H   2,Al  1,Al  0)     19.67  0.000037   -0.05     19.62   
    98. D(Al  8,H   2,Al  1,H   4)     43.75  0.000644   -0.20     43.55   
    99. D(Al  0,H   4,Al  1,Al  8)    -95.67  0.000241   -0.08    -95.75   
   100. D(Al  1,H   4,Al  0,H   5)    -59.70 -0.000150    0.17    -59.53   
   101. D(Al  0,H   4,Al  1,H   3)     -1.99  0.000044   -0.01     -2.00   
   102. D(Al  0,H   4,Al  1,H   2)   -112.85 -0.000496    0.09   -112.76   
   103. D(Al  1,H   4,Al  0,Al 12)     56.64  0.000042    0.11     56.76   
   104. D(Al  1,H   4,Al  0,H  11)    161.48  0.000082    0.11    161.59   
   105. D(Al  1,H   4,Al  0,H   6)     49.22 -0.000329    0.19     49.41   
   106. D(Al  0,H   4,Al  1,H   7)    139.75  0.000193   -0.07    139.68   
   107. D(Al 12,H   6,Al  0,H  11)    -54.48 -0.000168    0.10    -54.38   
   108. D(Al 12,H   6,Al  0,H   5)    165.23 -0.000033    0.08    165.32   
   109. D(Al 12,H   6,Al  0,H   4)     54.25 -0.000407    0.12     54.37   
   110. D(Al 12,H   6,Al  0,Al  1)     73.34 -0.000004    0.05     73.39   
   111. D(H   2,Al  8,Al  1,H   3)    117.10 -0.000196   -0.02    117.07   
   112. D(H   2,Al  8,Al  1,Al  0)   -160.67 -0.000018   -0.05   -160.72   
   113. D(H   2,Al  8,Al  1,H   7)    -34.40 -0.000233   -0.02    -34.42   
   114. D(H   2,Al  8,Al  1,H   4)   -134.99  0.000673   -0.22   -135.21   
   115. D(H   9,Al  8,Al  1,Al  0)     74.14  0.000599   -0.33     73.81   
   116. D(H  15,Al  8,H   2,Al  1)    -57.53 -0.000400   -0.03    -57.57   
   117. D(H  10,Al  8,H   2,Al  1)    162.04  0.000037   -0.09    161.96   
   118. D(H   9,Al  8,H   2,Al  1)     53.73  0.000639   -0.26     53.47   
   119. D(H  10,Al  8,Al  1,Al  0)    176.98 -0.000064   -0.14    176.84   
   120. D(H   9,Al  8,Al  1,H   7)   -159.59  0.000384   -0.30   -159.89   
   121. D(H   9,Al  8,Al  1,H   4)     99.82  0.001289   -0.50     99.32   
   122. D(Al 12,Al  8,H   2,Al  1)     29.03  0.000128   -0.13     28.90   
   123. D(H   9,Al  8,Al  1,H   3)     -8.09  0.000420   -0.30     -8.40   
   124. D(H   9,Al  8,Al  1,H   2)   -125.19  0.000617   -0.28   -125.47   
   125. D(Al 12,H   9,Al  8,H  15)     -5.91 -0.000047    0.03     -5.87   
   126. D(Al 12,H   9,Al  8,H  10)    135.86  0.000151   -0.05    135.81   
   127. D(Al 12,H   9,Al  8,H   2)   -116.70 -0.000557    0.14   -116.56   
   128. D(Al 12,H   9,Al  8,Al  1)    -96.74  0.000216   -0.05    -96.79   
   129. D(Al  0,Al 12,Al  8,H  10)   -176.51 -0.000035    0.08   -176.43   
   130. D(Al  0,Al 12,Al  8,H   9)   -122.61 -0.000123    0.10   -122.51   
   131. D(Al  0,Al 12,Al  8,H   2)    -55.00 -0.000361    0.21    -54.79   
   132. D(H  14,Al 12,H   6,Al  0)     59.51  0.000015   -0.16     59.35   
   133. D(H  13,Al 12,H   6,Al  0)   -159.97 -0.000076   -0.14   -160.11   
   134. D(H   9,Al 12,H   6,Al  0)    -53.25 -0.000686   -0.03    -53.27   
   135. D(Al  8,Al 12,H   6,Al  0)    -29.67 -0.000022   -0.16    -29.83   
[...]
     47       0.039710   0.051212  -0.057468  -0.006494   0.065380  -0.005857


-----------
IR SPECTRUM
-----------

 Mode   freq       eps      Int      T**2         TX        TY        TZ
       cm**-1   L/(mol*cm) km/mol    a.u.
----------------------------------------------------------------------------
  6:     45.60   0.000271    1.37  0.001857  (-0.034646 -0.021068  0.014586)
  7:     51.37   0.000088    0.44  0.000533  ( 0.015532  0.016577  0.004152)
  8:    118.25   0.000095    0.48  0.000251  (-0.000399 -0.004555 -0.015154)
  9:    129.26   0.000214    1.08  0.000517  (-0.003688  0.010416 -0.019866)
 10:    130.95   0.000509    2.57  0.001212  ( 0.005126 -0.023982 -0.024711)
 11:    147.59   0.000266    1.35  0.000563  ( 0.002769  0.019091 -0.013808)
 12:    239.55   0.000310    1.57  0.000404  (-0.016122  0.007566 -0.009305)
 13:    269.97   0.000097    0.49  0.000112  ( 0.004114 -0.006233 -0.007503)
 14:    299.65   0.002458   12.42  0.002560  (-0.006752  0.025307  0.043290)
 15:    373.71   0.004113   20.79  0.003435  (-0.038621 -0.032597  0.029678)
 16:    377.95   0.003382   17.09  0.002793  ( 0.005226  0.036808  0.037555)
 17:    399.24   0.000994    5.02  0.000777  ( 0.019725  0.018270 -0.007370)
 18:    407.43   0.000255    1.29  0.000195  (-0.003244  0.004525  0.012807)
 19:    434.68   0.000019    0.10  0.000014  ( 0.001542 -0.001610 -0.002994)
 20:    483.06   0.001416    7.16  0.000915  (-0.003382  0.016065  0.025403)
 21:    506.72   0.001122    5.67  0.000691  ( 0.003373 -0.022381  0.013371)
 22:    547.72   0.026640  134.63  0.015178  (-0.006434 -0.106641  0.061354)
 23:    608.00   0.093217  471.08  0.047845  ( 0.024633 -0.109119 -0.187965)
 24:    681.00   0.219676  1110.15  0.100664  (-0.102855 -0.262619  0.145316)
 25:    691.92   0.162700  822.22  0.073379  ( 0.011196 -0.122299 -0.241447)
 26:    694.89   0.182181  920.67  0.081814  ( 0.212753 -0.165985  0.094865)
 27:    733.25   0.000488    2.47  0.000208  (-0.006622  0.008813  0.009291)
 28:    747.94   0.050750  256.47  0.021175  (-0.075986 -0.108930  0.059455)
 29:    749.62   0.034146  172.56  0.014215  ( 0.011297 -0.065156 -0.099207)
 30:    768.33   0.042892  216.76  0.017421  (-0.036826  0.105028 -0.070949)
 31:    782.01   0.041583  210.14  0.016594  ( 0.115983 -0.047888  0.029127)
 32:    799.95   0.047861  241.87  0.018671  (-0.004046  0.064206  0.120548)
 33:    977.06   0.038154  192.82  0.012186  (-0.011094  0.057927  0.093314)
 34:   1053.12   0.059642  301.40  0.017673  ( 0.119319  0.041917 -0.040975)
 35:   1064.84   0.026149  132.15  0.007663  (-0.054592 -0.057824 -0.036598)
 36:   1863.54   0.034622  174.96  0.005798  ( 0.040088  0.049093 -0.042196)
 37:   1907.32   0.336648  1701.28  0.055080  (-0.029014  0.124992  0.196508)
 38:   1942.44   0.203714  1029.49  0.032728  ( 0.122811 -0.101088  0.086176)
 39:   1985.86   0.096614  488.25  0.015182  ( 0.022206  0.104759 -0.060947)
 40:   1998.47   0.054204  273.93  0.008464  (-0.010786  0.050105  0.076402)
 41:   2006.21   0.076472  386.46  0.011895  ( 0.009545  0.093582 -0.055194)
 42:   2010.29   0.003499   17.68  0.000543  ( 0.014255  0.000739 -0.018422)
 43:   2016.36   0.022927  115.86  0.003548  (-0.009376 -0.029473 -0.050909)
 44:   2018.20   0.106185  536.61  0.016419  ( 0.127398 -0.006865  0.011897)
 45:   2019.50   0.002724   13.77  0.000421  (-0.015865 -0.003909 -0.012410)
 46:   2030.69   0.026064  131.72  0.004005  ( 0.049733 -0.028636  0.026684)
 47:   2110.65   0.218633  1104.88  0.032325  ( 0.065310  0.147816 -0.078805)

* The epsilon (eps) is given for a Dirac delta lineshape.
** The dipole moment derivative (T) already includes vibrational overlap.

--------------
RAMAN SPECTRUM  
--------------

 Mode    freq (cm**-1)   Activity   Depolarization
-------------------------------------------------------------------
   6:        45.60      0.412150      0.716344
   7:        51.37      0.393195      0.634514
   8:       118.25      1.742558      0.721989
   9:       129.26      0.154305      0.719319
  10:       130.95      0.482679      0.510433
  11:       147.59      0.667244      0.748503
  12:       239.55      3.958619      0.749852
  13:       269.97     14.022734      0.339022
  14:       299.65     13.087627      0.738683
  15:       373.71     19.058388      0.719669
  16:       377.95     16.828395      0.391021
  17:       399.24      0.237611      0.735106
  18:       407.43     13.206525      0.748319
  19:       434.68     19.051042      0.749937
  20:       483.06      4.739982      0.735168
  21:       506.72      1.230051      0.749926
  22:       547.72      1.277859      0.749902
  23:       608.00      9.297898      0.307962
  24:       681.00     10.208570      0.749991
  25:       691.92     36.118592      0.720047
  26:       694.89      6.200834      0.749356
  27:       733.25      1.814129      0.723845
  28:       747.94      4.615365      0.740705
  29:       749.62      7.854356      0.749318
  30:       768.33      5.968179      0.727369
  31:       782.01      7.277641      0.748941
  32:       799.95      5.652155      0.676347
  33:       977.06     43.114877      0.092931
  34:      1053.12     23.831401      0.084298
  35:      1064.84     81.498493      0.056292
  36:      1863.54      3.855341      0.749843
  37:      1907.32     16.407003      0.724204
  38:      1942.44     73.144221      0.749887
  39:      1985.86     18.946754      0.720165
  40:      1998.47    500.912127      0.028284
  41:      2006.21     10.651720      0.581517
  42:      2010.29    226.189865      0.093170
  43:      2016.36    362.793773      0.008094
  44:      2018.20     65.112059      0.684359
  45:      2019.50     98.433901      0.579688
  46:      2030.69     62.001100      0.749120
  47:      2110.65      2.129564      0.749990

The first frequency considered to be a vibration is 6
The total number of vibrations considered is 42


--------------------------
THERMOCHEMISTRY AT 298.15K
--------------------------

Temperature         ...   298.15 K
Pressure            ...     1.00 atm
Total Mass          ...   120.02 AMU
Quasi RRHO          ...     True
Cut-Off Frequency   ...     1.00 cm^-1

Throughout the following assumptions are being made:
  (1) The electronic state is orbitally nondegenerate
  (2) There are no thermally accessible electronically excited states
  (3) Hindered rotations indicated by low frequency modes are not
      treated as such but are treated as vibrations and this may
      cause some error
  (4) All equations used are the standard statistical mechanics
      equations for an ideal gas
  (5) All vibrations are strictly harmonic

freq.      45.60  E(vib)   ...       0.53 
freq.      51.37  E(vib)   ...       0.52 
freq.     118.25  E(vib)   ...       0.44 
freq.     129.26  E(vib)   ...       0.43 
freq.     130.95  E(vib)   ...       0.42 
freq.     147.59  E(vib)   ...       0.41 
freq.     239.55  E(vib)   ...       0.31 
freq.     269.97  E(vib)   ...       0.29 
freq.     299.65  E(vib)   ...       0.26 
freq.     373.71  E(vib)   ...       0.21 
freq.     377.95  E(vib)   ...       0.21 
freq.     399.24  E(vib)   ...       0.19 
freq.     407.43  E(vib)   ...       0.19 
freq.     434.68  E(vib)   ...       0.17 
freq.     483.06  E(vib)   ...       0.15 
freq.     506.72  E(vib)   ...       0.14 
freq.     547.72  E(vib)   ...       0.12 
freq.     608.00  E(vib)   ...       0.10 
freq.     681.00  E(vib)   ...       0.08 
freq.     691.92  E(vib)   ...       0.07 
freq.     694.89  E(vib)   ...       0.07 
freq.     733.25  E(vib)   ...       0.06 
freq.     747.94  E(vib)   ...       0.06 
freq.     749.62  E(vib)   ...       0.06 
freq.     768.33  E(vib)   ...       0.06 
freq.     782.01  E(vib)   ...       0.05 
freq.     799.95  E(vib)   ...       0.05 
freq.     977.06  E(vib)   ...       0.03 
freq.    1053.12  E(vib)   ...       0.02 
freq.    1064.84  E(vib)   ...       0.02 
freq.    1863.54  E(vib)   ...       0.00 
freq.    1907.32  E(vib)   ...       0.00 
freq.    1942.44  E(vib)   ...       0.00 
freq.    1985.86  E(vib)   ...       0.00 
freq.    1998.47  E(vib)   ...       0.00 
freq.    2006.21  E(vib)   ...       0.00 
freq.    2010.29  E(vib)   ...       0.00 
freq.    2016.36  E(vib)   ...       0.00 
freq.    2018.20  E(vib)   ...       0.00 
freq.    2019.50  E(vib)   ...       0.00 
freq.    2030.69  E(vib)   ...       0.00 
freq.    2110.65  E(vib)   ...       0.00 

------------
INNER ENERGY
------------

The inner energy is: U= E(el) + E(ZPE) + E(vib) + E(rot) + E(trans)
    E(el)   - is the total energy from the electronic structure calculation
              = E(kin-el) + E(nuc-el) + E(el-el) + E(nuc-nuc)
    E(ZPE)  - the the zero temperature vibrational energy from the frequency calculation
    E(vib)  - the the finite temperature correction to E(ZPE) due to population
              of excited vibrational states
    E(rot)  - is the rotational thermal energy
    E(trans)- is the translational thermal energy

Summary of contributions to the inner energy U:
Electronic energy                ...   -975.59329060 Eh
Zero point energy                ...      0.08935922 Eh      56.07 kcal/mol
Thermal vibrational correction   ...      0.00911891 Eh       5.72 kcal/mol
Thermal rotational correction    ...      0.00141627 Eh       0.89 kcal/mol
Thermal translational correction ...      0.00141627 Eh       0.89 kcal/mol
-----------------------------------------------------------------------
Total thermal energy                   -975.49197993 Eh


Summary of corrections to the electronic energy:
(perhaps to be used in another calculation)
Total thermal correction                  0.01195146 Eh       7.50 kcal/mol
Non-thermal (ZPE) correction              0.08935922 Eh      56.07 kcal/mol
-----------------------------------------------------------------------
Total correction                          0.10131068 Eh      63.57 kcal/mol


--------
ENTHALPY
--------

The enthalpy is H = U + kB*T
                kB is Boltzmann's constant
Total thermal energy              ...   -975.49197993 Eh 
Thermal Enthalpy correction       ...      0.00094421 Eh       0.59 kcal/mol
-----------------------------------------------------------------------
Total Enthalpy                    ...   -975.49103572 Eh


Note: Only C1 symmetry has been detected, increase convergence thresholds 
      if your molecule has a higher symmetry. Symmetry factor of 1.0 is   
      used for the rotational entropy correction. 
 

Note: Rotational entropy computed according to Herzberg 
Infrared and Raman Spectra, Chapter V,1, Van Nostrand Reinhold, 1945 
Point Group:  C1, Symmetry Number:   1  
Rotational constants in cm-1:     0.053698     0.048923     0.031768 

Vibrational entropy computed according to the QRRHO of S. Grimme
Chem.Eur.J. 2012 18 9955 using a reference frequency of 100.0 cm-1


-------
ENTROPY
-------

The entropy contributions are T*S = T*(S(el)+S(vib)+S(rot)+S(trans))
     S(el)   - electronic entropy
     S(vib)  - vibrational entropy
     S(rot)  - rotational entropy
     S(trans)- translational entropy
The entropies will be listed as multiplied by the temperature to get
units of energy

Electronic entropy                ...      0.00000000 Eh      0.00 kcal/mol
Vibrational entropy               ...      0.01584084 Eh      9.94 kcal/mol
Rotational entropy                ...      0.01394429 Eh      8.75 kcal/mol
Translational entropy             ...      0.01912974 Eh     12.00 kcal/mol
-----------------------------------------------------------------------
Final entropy term                ...      0.04891487 Eh     30.69 kcal/mol

In case the symmetry of your molecule has not been determined correctly
or in case you have a reason to use a different symmetry number we print 
out the resulting rotational entropy values for sn=1,12:

 non-linear molecules -----------------------------------
|  sn= 1 | S(rot)=       0.01394429 Eh      8.75 kcal/mol|
|  sn= 2 | S(rot)=       0.01328984 Eh      8.34 kcal/mol|
|  sn= 3 | S(rot)=       0.01290701 Eh      8.10 kcal/mol|
|  sn= 4 | S(rot)=       0.01263538 Eh      7.93 kcal/mol|
|  sn= 5 | S(rot)=       0.01242469 Eh      7.80 kcal/mol|
|  sn= 6 | S(rot)=       0.01225255 Eh      7.69 kcal/mol|
|  sn= 7 | S(rot)=       0.01210700 Eh      7.60 kcal/mol|
|  sn= 8 | S(rot)=       0.01198093 Eh      7.52 kcal/mol|
|  sn= 9 | S(rot)=       0.01186972 Eh      7.45 kcal/mol|
|  sn=10 | S(rot)=       0.01177024 Eh      7.39 kcal/mol|
|  sn=11 | S(rot)=       0.01168025 Eh      7.33 kcal/mol|
|  sn=12 | S(rot)=       0.01159809 Eh      7.28 kcal/mol|
 linear molecules ---------------------------------------
|  Dinfh | S(rot)=       0.00858257 Eh      5.39 kcal/mol|
|  Cinfv | S(rot)=       0.00923702 Eh      5.80 kcal/mol|
 --------------------------------------------------------


-------------------
GIBBS FREE ENERGY
-------------------

The Gibbs free energy is G = H - T*S

Total enthalpy                    ...   -975.49103572 Eh 
Total entropy correction          ...     -0.04891487 Eh    -30.69 kcal/mol
-----------------------------------------------------------------------
Final Gibbs free energy         ...   -975.53995059 Eh

For completeness - the Gibbs free energy minus the electronic energy
G-E(el)                           ...      0.05334001 Eh     33.47 kcal/mol


Maximum memory used throughout the entire PROP-calculation: 30.2 MB

--------------------------------
SUGGESTED CITATIONS FOR THIS RUN
--------------------------------

Below you find a list of papers that are relevant to this ORCA run
We neither can nor want to force you to cite these papers, but we appreciate if you do
You receive ORCA, which is the product of decades of hard work by many enthusiastic individuals, for free
The only thing we kindly ask in return is that you cite our papers,
We deeply appreciate it, if you show your appreciation for ORCA by not just citing the generic ORCA reference.

Please note that relegating all ORCA citations to the supporting information does *not* help us.
SI sections are not indexed - citations you put there will not count into any citation statistics
But we need these citations in order to attract the funding resources that allow us to do what we are doing

Therefore, if you are a happy ORCA user, please consider citing a few of the papers listed below in the main body of your paper

In addition to the list printed below, the program has created the file run.bibtex that contains the list in bibtex format
You can import this file easily into all common literature databanks and citation aid programs


List of essential papers. We consider these as the minimum necessary citations

  1. Neese, F.
     Software update: the ORCA program system, version 6.0
     WIRES Comput. Molec. Sci. 2025 15(1), e70019
     doi.org/10.1002/wcms.7019

List of papers to cite with high priority. The work reported in these papers was absolutely
necessary for this run to complete.
Our perspective: the developers of density functionals and basis sets usually get cited in chemistry papers
Good! But without the algorithms to do something with them, the functionals or basis sets would not do anything.
Hence, in our opinion, the algorithm design and method developments papers are equally worthy of getting cited

  1. Neese, F.
     An improvement of the resolution of the identity approximation for the formation of the Coulomb matrix
     J. Comp. Chem. 2003 24(14), 1740-1747
     doi.org/10.1002/jcc.10318
  2. Neese, F.; Wennmohs, F.; Hansen, A.; Becker, U.
     Efficient, approximate and parallel Hartree-Fock and hybrid DFT calculations. A 'chain-of-spheres' algorithm for the Hartree-Fock exchange
     Chem. Phys. 2009 356(1-3), 98-109
     doi.org/10.1016/j.chemphys.2008.10.036
  3. Grimme, S.; Antony, J.; Ehrlich, S.; Krieg, H.
     A consistent and accurate ab initio parametrization of density functional dispersion correction (DFT-D) for the 94 elements H-Pu
     J. Chem. Phys. 2010 132 , 154104
     doi.org/10.1063/1.3382344
  4. Grimme, S.; Ehrlich, S.; Goerigk, L.
     Effect of the damping function in dispersion corrected density functional theory
     J. Comput. Chem. 2011 32(7), 1456-1465
     doi.org/10.1002/jcc.21759
  5. Bykov, D.; Petrenko, T.; Izsak, R.; Kossmann, S.; Becker, U.; Valeev, E.; Neese, F.
     Efficient implementation of the analytic second derivatives of Hartree-Fock and hybrid DFT energies: a detailed analysis of different approximations
     Molec. Phys. 2015 113 , 1961-1977
     doi.org/10.1080/00268976.2015.1025114
  6. Garcia-Rates, M.; Neese, F.
     Efficient implementation of the analytical second derivatives of hartree-fock and hybrid DFT energies within the framework of the conductor-like polarizable continuum model
     J. Comput. Chem. 2019 40 , 1816-1828
     doi.org/10.1002/jcc.25833
  7. Garcia-Rates, M.; Neese, F.
     Effect of the Solute Cavity on the Solvation Energy and its Derivatives within the Framework of the Gaussian Charge Scheme
     J. Comput. Chem. 2020 41 , 922-939
     doi.org/10.1002/jcc.26139
  8. Helmich-Paris, B.; de Souza, B.; Neese, F.; Izsák, R.
     An improved chain of spheres for exchange algorithm
     J. Chem. Phys. 2021 155(10), 104109
     doi.org/10.1063/5.0058766
  9. Neese, F.
     The SHARK Integral Generation and Digestion System
     J. Comp. Chem. 2022 44(3), 381
     doi.org/10.1002/jcc.26942
 10. Petra, P.; Frank, N.
     Efficient calculation of analytic Raman intensities
     to be submitted 2025  , 

List of suggested additional citations. These are papers that are important in the 'surrounding' of 
of this run, or papers that preceded the highly important papers. If you like your results we are grateful for a citation.

  1. Izsak, R.; Neese, F.
     An overlap fitted chain of spheres exchange method
     J. Chem. Phys. 2011 135 , 144105
     doi.org/10.1063/1.3646921
  2. Izsak, R.; Hansen, A.; Neese, F.
     The resolution of identity and chain of spheres approximations for the LPNO-CCSD singles Fock term
     Molec. Phys. 2012 110 , 2413-2417
     doi.org/10.1080/00268976.2012.687466
  3. Neese, F.
     The ORCA program system
     WIRES Comput. Molec. Sci. 2012 2(1), 73-78
     doi.org/10.1002/wcms.81
  4. Izsak, R.; Neese, F.; Klopper, W.
     Robust fitting techniques in the chain of spheres approximation to the Fock exchange: The role of the complementary space
     J. Chem. Phys. 2013 139 , 
     doi.org/10.1063/1.4819264
  5. Neese, F.
     Software update: the ORCA program system, version 4.0
     WIRES Comput. Molec. Sci. 2018 8(1), 1-6
     doi.org/10.1002/wcms.1327
  6. Neese, F.; Wennmohs, F.; Becker, U.; Riplinger, C.
     The ORCA quantum chemistry program package
     J. Chem. Phys. 2020 152(22), 224108
     doi.org/10.1063/5.0004608
  7. Neese, F.
     Software update: The ORCA program system—Version 5.0
     WIRES Comput. Molec. Sci. 2022 12(1), e1606
     doi.org/10.1002/wcms.1606

List of optional additional citations

  1. Neese, F.
     Approximate second-order SCF convergence for spin unrestricted wavefunctions
     Chem. Phys. Lett. 2000 325(1-3), 93-98
     doi.org/10.1016/s0009-2614(00)00662-x

Timings for individual modules:

Sum of individual times          ...     1284.658 sec (=  21.411 min)
Startup calculation              ...      264.698 sec (=   4.412 min)  20.6 %
SCF iterations                   ...      509.769 sec (=   8.496 min)  39.7 %
Property integrals               ...       65.042 sec (=   1.084 min)   5.1 %
SCF Response                     ...       19.205 sec (=   0.320 min)   1.5 %
Property calculations            ...       93.477 sec (=   1.558 min)   7.3 %
SCF Gradient evaluation          ...      330.756 sec (=   5.513 min)  25.7 %
Geometry relaxation              ...        1.711 sec (=   0.029 min)   0.1 %
                             ****ORCA TERMINATED NORMALLY****
TOTAL RUN TIME: 0 days 0 hours 22 minutes 13 seconds 956 msec
