
     Program PWSCF v.7.3.1 starts on  4Jun2025 at 15:23:57 

     This program is part of the open-source Quantum ESPRESSO suite
     for quantum simulation of materials; please cite
         "P. Giannozzi et al., J. Phys.:Condens. Matter 21 395502 (2009);
         "P. Giannozzi et al., J. Phys.:Condens. Matter 29 465901 (2017);
         "P. Giannozzi et al., J. Chem. Phys. 152 154105 (2020);
          URL http://www.quantum-espresso.org", 
     in publications or presentations arising from this work. More details at
     http://www.quantum-espresso.org/quote

     Parallel version (MPI), running on   256 processors

     MPI processes distributed on     1 nodes
     1529433 MiB available memory on the printing compute node when the environment starts

     Waiting for input...
     Reading input from standard input

     Current dimensions of program PWSCF are:
     Max number of different atomic species (ntypx) = 10
     Max number of k-points (npk) =  40000
     Max angular momentum in pseudopotentials (lmaxx) =  4
     file H.pbe-kjpaw_psl.1.0.0.UPF: wavefunction(s)  1S renormalized
     file Zr.pbe-spn-kjpaw_psl.1.0.0.UPF: wavefunction(s)  4S 4P renormalized
     file C.pbe-n-kjpaw_psl.1.0.0.UPF: wavefunction(s)  2S 2P renormalized
     file O.pbe-n-kjpaw_psl.1.0.0.UPF: wavefunction(s)  2S 2P renormalized

     IMPORTANT: XC functional enforced from input :
     Exchange-correlation= PBE
                           (   1   4   3   4   0   0   0)
     Any further DFT definition will be discarded
     Please, verify this is what you really want


     gamma-point specific algorithms are used
     Message from routine setup:
     using ibrav=0 with symmetry is DISCOURAGED, use correct ibrav instead

     R & G space division:  proc/nbgrp/npool/nimage =     256
     WARNING: too many processors for an effective parallelization!
     wavefunctions fft division:  task group distribution
                                  #TG    x Z-proc =       8     32
     Subspace diagonalization in iterative solution of the eigenvalue problem:
     one sub-group per band group will be used
     custom distributed-memory algorithm (size of sub-group:  2*  2 procs)


     Parallelization info
     --------------------
     sticks:   dense  smooth     PW     G-vecs:    dense   smooth      PW
     Min         232     116     27                37836    13368    1662
     Max         234     118     30                37848    13388    1684
     Sum       59473   29737   7433              9687985  3425225  428153

     Using Pencil Decomposition


     Title: 
     UiO-66-dehydrox ecut convergence                                           


     bravais-lattice index     =            0
     lattice parameter (alat)  =      27.5901  a.u.
     unit-cell volume          =   15305.9057 (a.u.)^3
     number of atoms/cell      =          108
     number of atomic types    =            4
     number of electrons       =       468.00
     number of Kohn-Sham states=          234
     kinetic-energy cutoff     =     140.0000  Ry
     charge density cutoff     =    1120.0000  Ry
     scf convergence threshold =      1.0E-08
     mixing beta               =       0.7000
     number of iterations used =            8  plain     mixing
     Exchange-correlation= PBE
                           (   1   4   3   4   0   0   0)

     celldm(1)=  27.590096  celldm(2)=   0.000000  celldm(3)=   0.000000
     celldm(4)=   0.000000  celldm(5)=   0.000000  celldm(6)=   0.000000

     crystal axes: (cart. coord. in units of alat)
               a(1) = (   0.997811   0.000095   0.000068 )  
               a(2) = (   0.473418   0.878352   0.000068 )  
               a(3) = (   0.473418   0.282670   0.831625 )  

     reciprocal axes: (cart. coord. in units 2 pi/alat)
               b(1) = (  1.002272 -0.540179 -0.386954 )  
               b(2) = ( -0.000082  1.138570 -0.386954 )  
               b(3) = ( -0.000082 -0.000049  1.202527 )  


     PseudoPot. # 1 for H  read from file:
     /home/mehlhorn/pseudos/UiO-66_pbe-spn-kjpaw/H.pbe-kjpaw_psl.1.0.0.UPF
     MD5 check sum: d81a744832360e4a8af0b0b5b123bc2a
     Pseudo is Projector augmented-wave, Zval =  1.0
     Generated using &quot;atomic&quot; code by A. Dal Corso  v.6.3MaX
     Shape of augmentation charge: PSQ
     Using radial grid of  929 points,  2 beta functions with: 
                l(1) =   0
                l(2) =   0
     Q(r) pseudized with 0 coefficients 


     PseudoPot. # 2 for Zr read from file:
     /home/mehlhorn/pseudos/UiO-66_pbe-spn-kjpaw/Zr.pbe-spn-kjpaw_psl.1.0.0.UPF
     MD5 check sum: 02112c41713a0468aff2bb39ef194e36
     Pseudo is Projector augmented-wave + core cor, Zval = 12.0
     Generated using &quot;atomic&quot; code by A. Dal Corso  v.6.2.2
     Shape of augmentation charge: PSQ
     Using radial grid of 1225 points,  6 beta functions with: 
                l(1) =   0
                l(2) =   0
                l(3) =   1
                l(4) =   1
                l(5) =   2
                l(6) =   2
     Q(r) pseudized with 0 coefficients 


     PseudoPot. # 3 for C  read from file:
     /home/mehlhorn/pseudos/UiO-66_pbe-spn-kjpaw/C.pbe-n-kjpaw_psl.1.0.0.UPF
     MD5 check sum: 5f16ad9a65e90284d1d834d4ab3b0f7d
     Pseudo is Projector augmented-wave + core cor, Zval =  4.0
     Generated using &quot;atomic&quot; code by A. Dal Corso  v.6.3
     Shape of augmentation charge: PSQ
     Using radial grid of 1073 points,  4 beta functions with: 
                l(1) =   0
                l(2) =   0
                l(3) =   1
                l(4) =   1
     Q(r) pseudized with 0 coefficients 


     PseudoPot. # 4 for O  read from file:
     /home/mehlhorn/pseudos/UiO-66_pbe-spn-kjpaw/O.pbe-n-kjpaw_psl.1.0.0.UPF
     MD5 check sum: e99d9cef9b487d1ca56f5b95ecd0fd7a
     Pseudo is Projector augmented-wave + core cor, Zval =  6.0
     Generated using &quot;atomic&quot; code by A. Dal Corso  v.6.3
     Shape of augmentation charge: PSQ
     Using radial grid of 1095 points,  4 beta functions with: 
                l(1) =   0
                l(2) =   0
                l(3) =   1
                l(4) =   1
     Q(r) pseudized with 0 coefficients 


     atomic species   valence    mass     pseudopotential
     H                 1.00     1.00750     H ( 1.00)
     Zr               12.00    91.22400     Zr( 1.00)
     C                 4.00    12.01060     C ( 1.00)
     O                 6.00    15.99900     O ( 1.00)

      2 Sym. Ops., with inversion, found



   Cartesian axes

     site n.     atom                  positions (alat units)
         1        Zr     tau(   1) = (   0.9852659   0.1391165   0.1016774  )
         2        Zr     tau(   2) = (   0.9593800   1.0219995   0.7300832  )
         3        Zr     tau(   3) = (   0.5915364   0.8004519   0.0990038  )
         4        Zr     tau(   4) = (   1.3531095   0.3606647   0.7327560  )
         5        Zr     tau(   5) = (   0.5898506   0.3541049   0.7260346  )
         6        Zr     tau(   6) = (   1.3547948   0.8070120   0.1057261  )
         7        O      tau(   7) = (   1.0815009   0.2537230   0.0705430  )
         8        O      tau(   8) = (   0.8631454   0.9073939   0.7612177  )
         9        O      tau(   9) = (   0.6436974   0.8816624   0.2175348  )
        10        O      tau(  10) = (   1.3009490   0.2794545   0.6142259  )
        11        O      tau(  11) = (   0.7363929   0.3343915   0.7647879  )
        12        O      tau(  12) = (   1.2082534   0.8267253   0.0669728  )
        13        O      tau(  13) = (   1.2131515   0.3069746   0.7632956  )
        14        O      tau(  14) = (   0.7314949   0.8541423   0.0684650  )
        15        O      tau(  15) = (   1.2986500   0.6782809   0.0450667  )
        16        O      tau(  16) = (   0.6459963   0.4828360   0.7866940  )
        17        O      tau(  17) = (   0.8457252   1.0194663   0.6277144  )
        18        O      tau(  18) = (   1.0989212   0.1416505   0.2040462  )
        19        O      tau(  19) = (   1.0498340   1.0175668   0.6103351  )
        20        O      tau(  20) = (   0.8948124   0.1435500   0.2214255  )
        21        O      tau(  21) = (   1.2949517   0.4947549   0.7670887  )
        22        O      tau(  22) = (   0.6496947   0.6663620   0.0646719  )
        23        O      tau(  23) = (   1.3938012   0.7199281   0.2216396  )
        24        O      tau(  24) = (   0.5508451   0.4411887   0.6101210  )
        25        O      tau(  25) = (   0.5501420   0.7117654   0.2154865  )
        26        O      tau(  26) = (   1.3945044   0.4493515   0.6162741  )
        27        O      tau(  27) = (   0.6421838   0.2788829   0.6045867  )
        28        O      tau(  28) = (   1.3024626   0.8822340   0.2271739  )
        29        O      tau(  29) = (   0.8875580   0.2512166   0.0695320  )
        30        O      tau(  30) = (   1.0570884   0.9099003   0.7622287  )
        31        O      tau(  31) = (   0.8780916   0.0527540   0.0396841  )
        32        O      tau(  32) = (   1.0665548   1.1083629   0.7920765  )
        33        O      tau(  33) = (   0.4645615   0.7471295   0.0371800  )
        34        O      tau(  34) = (   1.4800849   0.4139874   0.7945806  )
        35        O      tau(  35) = (   0.4629831   0.2782326   0.6954400  )
        36        O      tau(  36) = (   1.4816633   0.8828843   0.1363206  )
        37        C      tau(  37) = (   1.3138849   0.9632768   0.2572416  )
        38        C      tau(  38) = (   0.6307615   0.1978401   0.5745190  )
        39        C      tau(  39) = (   1.1105248   0.8940821   0.8292899  )
        40        C      tau(  40) = (   0.8341216   0.2670348   0.0024707  )
        41        C      tau(  41) = (   1.4712652   0.4686861   0.5797204  )
        42        C      tau(  42) = (   0.4733812   0.6924307   0.2520402  )
        43        C      tau(  43) = (   0.8011685   0.8979312   0.8218554  )
        44        C      tau(  44) = (   1.1434779   0.2631857   0.0099052  )
        45        C      tau(  45) = (   1.3194096   0.1991063   0.5857568  )
        46        C      tau(  46) = (   0.6252368   0.9620105   0.2460038  )
        47        C      tau(  47) = (   1.1705234   0.8680279   0.0000530  )
        48        C      tau(  48) = (   0.7741230   0.2930890   0.8317076  )
        49        C      tau(  49) = (   1.1901821   0.3542709   0.0042607  )
        50        C      tau(  50) = (   0.7544643   0.8068459   0.8274999  )
        51        C      tau(  51) = (   0.6684850   0.9917614   0.3340617  )
        52        C      tau(  52) = (   1.2761614   0.1693554   0.4976989  )
        53        C      tau(  53) = (   0.8764628   0.2870708   0.8315422  )
        54        C      tau(  54) = (   1.0681836   0.8740461   0.0002184  )
        55        C      tau(  55) = (   0.6846073   0.1688107   0.4923400  )
        56        C      tau(  56) = (   1.2600391   0.9923062   0.3394206  )
        57        C      tau(  57) = (   0.7829458   0.3557781   0.0014271  )
        58        C      tau(  58) = (   1.1617006   0.8053387   0.8303335  )
        59        C      tau(  59) = (   0.4733672   0.6343036   0.3364008  )
        60        C      tau(  60) = (   1.4712792   0.5268133   0.4953598  )
        61        C      tau(  61) = (   1.1610459   0.4268417   0.0601353  )
        62        C      tau(  62) = (   0.7836004   0.7342752   0.7716254  )
        63        C      tau(  63) = (   0.7217909   0.9299379   0.3847974  )
        64        C      tau(  64) = (   1.2228555   0.2311790   0.4469632  )
        65        C      tau(  65) = (   0.9265277   0.3206439   0.7566835  )
        66        C      tau(  66) = (   1.0181187   0.8404729   0.0750771  )
        67        C      tau(  67) = (   1.0216686   0.3162613   0.7567330  )
        68        C      tau(  68) = (   0.9229778   0.8448555   0.0750276  )
        69        C      tau(  69) = (   1.2049773   0.5112435   0.0559705  )
        70        C      tau(  70) = (   0.7396691   0.6498734   0.7757901  )
        71        C      tau(  71) = (   0.7630648   0.9576024   0.4660509  )
        72        C      tau(  72) = (   1.1815816   0.2035145   0.3657098  )
        73        C      tau(  73) = (   1.1498015   0.9576520   0.4584006  )
        74        C      tau(  74) = (   0.7948448   0.2034648   0.3733600  )
        75        C      tau(  75) = (   1.1987640   0.6601439   0.7592413  )
        76        C      tau(  76) = (   0.7458824   0.5009730   0.0725193  )
        77        C      tau(  77) = (   1.3884793   0.6135326   0.3807585  )
        78        C      tau(  78) = (   0.5561670   0.5475843   0.4510022  )
        79        C      tau(  79) = (   0.5561177   0.6009989   0.3721274  )
        80        C      tau(  80) = (   1.3885286   0.5601179   0.4596332  )
        81        C      tau(  81) = (   0.7442066   0.2306938   0.4493120  )
        82        C      tau(  82) = (   1.2004398   0.9304231   0.3824486  )
        83        C      tau(  83) = (   0.7928802   0.4181253   0.0738626  )
        84        C      tau(  84) = (   1.1517662   0.7429915   0.7578980  )
        85        H      tau(  85) = (   1.1917190   0.6112056   0.7033811  )
        86        H      tau(  86) = (   0.7529274   0.5499113   0.1283795  )
        87        H      tau(  87) = (   1.3247146   0.6398896   0.3523946  )
        88        H      tau(  88) = (   0.6199318   0.5212273   0.4793660  )
        89        H      tau(  89) = (   1.1033775   0.9102352   0.4924813  )
        90        H      tau(  90) = (   0.8412689   0.2508817   0.3392794  )
        91        H      tau(  91) = (   0.8378344   0.4004697   0.1307265  )
        92        H      tau(  92) = (   1.1068119   0.7606472   0.7010341  )
        93        H      tau(  93) = (   0.6198378   0.6177277   0.3371157  )
        94        H      tau(  94) = (   1.3248086   0.5433891   0.4946449  )
        95        H      tau(  95) = (   0.7499889   0.2999606   0.4764166  )
        96        H      tau(  96) = (   1.1946575   0.8611562   0.3553440  )
        97        H      tau(  97) = (   0.7300397   0.8602724   0.3594175  )
        98        H      tau(  98) = (   1.2146067   0.3008445   0.4723432  )
        99        H      tau(  99) = (   0.8895540   0.3499378   0.6988872  )
       100        H      tau( 100) = (   1.0550924   0.8111791   0.1328734  )
       101        H      tau( 101) = (   1.1036306   0.4157803   0.1064682  )
       102        H      tau( 102) = (   0.8410158   0.7453366   0.7252924  )
       103        H      tau( 103) = (   0.8041453   0.9101018   0.5063332  )
       104        H      tau( 104) = (   1.1405011   0.2510151   0.3254275  )
       105        H      tau( 105) = (   1.0612777   0.3415818   0.6987982  )
       106        H      tau( 106) = (   0.8833687   0.8195351   0.1329624  )
       107        H      tau( 107) = (   1.1826499   0.5682683   0.0985857  )
       108        H      tau( 108) = (   0.7619965   0.5928485   0.7331750  )

     number of k points=     1
                       cart. coord. in units 2pi/alat
        k(    1) = (   0.0000000   0.0000000   0.0000000), wk =   2.0000000

     Dense  grid:  4843993 G-vectors     FFT dimensions: ( 300, 300, 300)

     Smooth grid:  1712613 G-vectors     FFT dimensions: ( 216, 216, 216)

     Estimated max dynamical RAM per process >     113.09 MB

     Estimated total dynamical RAM >      28.27 GB

     Initial potential from superposition of free atoms

     starting charge     467.9848, renormalised to     468.0000

     negative rho (up, down):  1.111E-05 0.000E+00
     Starting wfcs are  414 randomized atomic wfcs
     Checking if some PAW data can be deallocated... 

     total cpu time spent up to now is       12.5 secs

     Self-consistent Calculation

     iteration #  1     ecut=   140.00 Ry     beta= 0.70
     Davidson diagonalization with overlap
     ethr =  1.00E-02,  avg # of iterations =  2.0

     total cpu time spent up to now is       25.7 secs

     total energy              =   -4001.31146599 Ry
     estimated scf accuracy    <      17.04320880 Ry

     iteration #  2     ecut=   140.00 Ry     beta= 0.70
     Davidson diagonalization with overlap
     ethr =  3.64E-03,  avg # of iterations = 12.0

     total cpu time spent up to now is       45.3 secs

     total energy              =   -4004.32180642 Ry
     estimated scf accuracy    <      19.35291689 Ry

     iteration #  3     ecut=   140.00 Ry     beta= 0.70
     Davidson diagonalization with overlap
     ethr =  3.64E-03,  avg # of iterations =  9.0

     total cpu time spent up to now is       59.6 secs

     total energy              =   -4008.24515736 Ry
     estimated scf accuracy    <       3.89530399 Ry

     iteration #  4     ecut=   140.00 Ry     beta= 0.70
     Davidson diagonalization with overlap
     ethr =  8.32E-04,  avg # of iterations =  5.0

     negative rho (up, down):  7.654E-07 0.000E+00

     total cpu time spent up to now is       70.9 secs

     total energy              =   -4008.10830890 Ry
     estimated scf accuracy    <       0.91215664 Ry

     iteration #  5     ecut=   140.00 Ry     beta= 0.70
     Davidson diagonalization with overlap
     ethr =  1.95E-04,  avg # of iterations = 14.0

     negative rho (up, down):  1.457E-06 0.000E+00

     total cpu time spent up to now is       94.4 secs

     total energy              =   -4009.23778897 Ry
     estimated scf accuracy    <       3.46353858 Ry

     iteration #  6     ecut=   140.00 Ry     beta= 0.70
     Davidson diagonalization with overlap
     ethr =  1.95E-04,  avg # of iterations =  8.0

     negative rho (up, down):  4.052E-06 0.000E+00

     total cpu time spent up to now is      105.2 secs

     total energy              =   -4008.52998454 Ry
     estimated scf accuracy    <       2.01324389 Ry

     iteration #  7     ecut=   140.00 Ry     beta= 0.70
     Davidson diagonalization with overlap
     ethr =  1.95E-04,  avg # of iterations = 10.0

     negative rho (up, down):  5.643E-06 0.000E+00

     total cpu time spent up to now is      121.7 secs

     total energy              =   -4009.14370448 Ry
     estimated scf accuracy    <       0.09115739 Ry

     iteration #  8     ecut=   140.00 Ry     beta= 0.70
     Davidson diagonalization with overlap
     ethr =  1.95E-05,  avg # of iterations =  7.0

     negative rho (up, down):  9.737E-06 0.000E+00

     total cpu time spent up to now is      140.2 secs

     total energy              =   -4009.21200606 Ry
     estimated scf accuracy    <       0.16247380 Ry

     iteration #  9     ecut=   140.00 Ry     beta= 0.70
     Davidson diagonalization with overlap
     ethr =  1.95E-05,  avg # of iterations =  1.0

     negative rho (up, down):  1.585E-05 0.000E+00

     total cpu time spent up to now is      149.8 secs

     total energy              =   -4009.15503350 Ry
     estimated scf accuracy    <       0.14488561 Ry

     iteration # 10     ecut=   140.00 Ry     beta= 0.70
     Davidson diagonalization with overlap
     ethr =  1.95E-05,  avg # of iterations =  8.0

     negative rho (up, down):  1.802E-05 0.000E+00

     total cpu time spent up to now is      161.6 secs

     total energy              =   -4009.16345092 Ry
     estimated scf accuracy    <       0.02110376 Ry

     iteration # 11     ecut=   140.00 Ry     beta= 0.70
     Davidson diagonalization with overlap
     ethr =  4.51E-06,  avg # of iterations = 10.0

     negative rho (up, down):  1.932E-05 0.000E+00

     total cpu time spent up to now is      182.2 secs

     total energy              =   -4009.18434169 Ry
     estimated scf accuracy    <       0.00924391 Ry

     iteration # 12     ecut=   140.00 Ry     beta= 0.70
     Davidson diagonalization with overlap
     ethr =  1.98E-06,  avg # of iterations =  2.0

     negative rho (up, down):  1.900E-05 0.000E+00

     total cpu time spent up to now is      192.7 secs

     total energy              =   -4009.18232283 Ry
     estimated scf accuracy    <       0.01080051 Ry

     iteration # 13     ecut=   140.00 Ry     beta= 0.70
     Davidson diagonalization with overlap
     ethr =  1.98E-06,  avg # of iterations =  2.0

     negative rho (up, down):  1.818E-05 0.000E+00

     total cpu time spent up to now is      203.0 secs

     total energy              =   -4009.18054908 Ry
     estimated scf accuracy    <       0.00731470 Ry

     iteration # 14     ecut=   140.00 Ry     beta= 0.70
     Davidson diagonalization with overlap
     ethr =  1.56E-06,  avg # of iterations =  2.0

     negative rho (up, down):  1.812E-05 0.000E+00

     total cpu time spent up to now is      214.1 secs

     total energy              =   -4009.18085817 Ry
     estimated scf accuracy    <       0.00300039 Ry

     iteration # 15     ecut=   140.00 Ry     beta= 0.70
     Davidson diagonalization with overlap
     ethr =  6.41E-07,  avg # of iterations =  9.0

     negative rho (up, down):  1.807E-05 0.000E+00

     total cpu time spent up to now is      225.3 secs

     total energy              =   -4009.18107658 Ry
     estimated scf accuracy    <       0.00186832 Ry

     iteration # 16     ecut=   140.00 Ry     beta= 0.70
     Davidson diagonalization with overlap
     ethr =  3.99E-07,  avg # of iterations =  7.0

     negative rho (up, down):  1.806E-05 0.000E+00

     total cpu time spent up to now is      236.9 secs

     total energy              =   -4009.18132077 Ry
     estimated scf accuracy    <       0.00126599 Ry

     iteration # 17     ecut=   140.00 Ry     beta= 0.70
     Davidson diagonalization with overlap
     ethr =  2.71E-07,  avg # of iterations =  5.0

     negative rho (up, down):  1.813E-05 0.000E+00

     total cpu time spent up to now is      247.6 secs

     total energy              =   -4009.18136250 Ry
     estimated scf accuracy    <       0.00114404 Ry

     iteration # 18     ecut=   140.00 Ry     beta= 0.70
     Davidson diagonalization with overlap
     ethr =  2.44E-07,  avg # of iterations =  2.0

     negative rho (up, down):  1.829E-05 0.000E+00

     total cpu time spent up to now is      257.9 secs

     total energy              =   -4009.18170234 Ry
     estimated scf accuracy    <       0.00101879 Ry

     iteration # 19     ecut=   140.00 Ry     beta= 0.70
     Davidson diagonalization with overlap
     ethr =  2.18E-07,  avg # of iterations =  2.0

     negative rho (up, down):  1.804E-05 0.000E+00

     total cpu time spent up to now is      268.2 secs

     total energy              =   -4009.18095391 Ry
     estimated scf accuracy    <       0.00159138 Ry

     iteration # 20     ecut=   140.00 Ry     beta= 0.70
     Davidson diagonalization with overlap
     ethr =  2.18E-07,  avg # of iterations = 13.0

     negative rho (up, down):  1.815E-05 0.000E+00

     total cpu time spent up to now is      283.7 secs

     total energy              =   -4009.18118333 Ry
     estimated scf accuracy    <       0.00068350 Ry

     iteration # 21     ecut=   140.00 Ry     beta= 0.70
     Davidson diagonalization with overlap
     ethr =  1.46E-07,  avg # of iterations =  8.0

     negative rho (up, down):  1.823E-05 0.000E+00

     total cpu time spent up to now is      302.0 secs

     total energy              =   -4009.18144798 Ry
     estimated scf accuracy    <       0.00094397 Ry

     iteration # 22     ecut=   140.00 Ry     beta= 0.70
     Davidson diagonalization with overlap
     ethr =  1.46E-07,  avg # of iterations =  2.0

     negative rho (up, down):  1.827E-05 0.000E+00

     total cpu time spent up to now is      312.3 secs

     total energy              =   -4009.18133283 Ry
     estimated scf accuracy    <       0.00070171 Ry

     iteration # 23     ecut=   140.00 Ry     beta= 0.70
     Davidson diagonalization with overlap
     ethr =  1.46E-07,  avg # of iterations =  2.0

     negative rho (up, down):  1.825E-05 0.000E+00

     total cpu time spent up to now is      322.8 secs

     total energy              =   -4009.18134411 Ry
     estimated scf accuracy    <       0.00039691 Ry

     iteration # 24     ecut=   140.00 Ry     beta= 0.70
     Davidson diagonalization with overlap
     ethr =  8.48E-08,  avg # of iterations =  2.0

     negative rho (up, down):  1.826E-05 0.000E+00

     total cpu time spent up to now is      332.9 secs

     total energy              =   -4009.18134032 Ry
     estimated scf accuracy    <       0.00032585 Ry

     iteration # 25     ecut=   140.00 Ry     beta= 0.70
     Davidson diagonalization with overlap
     ethr =  6.96E-08,  avg # of iterations =  2.0

     negative rho (up, down):  1.822E-05 0.000E+00

     total cpu time spent up to now is      343.2 secs

     total energy              =   -4009.18127510 Ry
     estimated scf accuracy    <       0.00027740 Ry

     iteration # 26     ecut=   140.00 Ry     beta= 0.70
     Davidson diagonalization with overlap
     ethr =  5.93E-08,  avg # of iterations =  2.0

     negative rho (up, down):  1.826E-05 0.000E+00

     total cpu time spent up to now is      353.7 secs

     total energy              =   -4009.18126171 Ry
     estimated scf accuracy    <       0.00012293 Ry

     iteration # 27     ecut=   140.00 Ry     beta= 0.70
     Davidson diagonalization with overlap
     ethr =  2.63E-08,  avg # of iterations = 11.0

     negative rho (up, down):  1.830E-05 0.000E+00

     total cpu time spent up to now is      369.7 secs

     total energy              =   -4009.18131199 Ry
     estimated scf accuracy    <       0.00002119 Ry

     iteration # 28     ecut=   140.00 Ry     beta= 0.70
     Davidson diagonalization with overlap
     ethr =  4.53E-09,  avg # of iterations =  7.0

     negative rho (up, down):  1.831E-05 0.000E+00

     total cpu time spent up to now is      388.6 secs

     total energy              =   -4009.18132246 Ry
     estimated scf accuracy    <       0.00003339 Ry

     iteration # 29     ecut=   140.00 Ry     beta= 0.70
     Davidson diagonalization with overlap
     ethr =  4.53E-09,  avg # of iterations =  2.0

     negative rho (up, down):  1.831E-05 0.000E+00

     total cpu time spent up to now is      398.7 secs

     total energy              =   -4009.18131270 Ry
     estimated scf accuracy    <       0.00001997 Ry

     iteration # 30     ecut=   140.00 Ry     beta= 0.70
     Davidson diagonalization with overlap
     ethr =  4.27E-09,  avg # of iterations =  5.0

     negative rho (up, down):  1.831E-05 0.000E+00

     total cpu time spent up to now is      413.5 secs

     total energy              =   -4009.18132064 Ry
     estimated scf accuracy    <       0.00000160 Ry

     iteration # 31     ecut=   140.00 Ry     beta= 0.70
     Davidson diagonalization with overlap
     ethr =  3.43E-10,  avg # of iterations = 10.0

     negative rho (up, down):  1.831E-05 0.000E+00

     total cpu time spent up to now is      432.7 secs

     total energy              =   -4009.18132028 Ry
     estimated scf accuracy    <       0.00000257 Ry

     iteration # 32     ecut=   140.00 Ry     beta= 0.70
     Davidson diagonalization with overlap
     ethr =  3.43E-10,  avg # of iterations =  7.0

     negative rho (up, down):  1.832E-05 0.000E+00

     total cpu time spent up to now is      451.3 secs

     total energy              =   -4009.18132114 Ry
     estimated scf accuracy    <       0.00000046 Ry

     iteration # 33     ecut=   140.00 Ry     beta= 0.70
     Davidson diagonalization with overlap
     ethr =  9.73E-11,  avg # of iterations =  2.0

     negative rho (up, down):  1.832E-05 0.000E+00

     total cpu time spent up to now is      462.9 secs

     total energy              =   -4009.18132114 Ry
     estimated scf accuracy    <       0.00000008 Ry

     iteration # 34     ecut=   140.00 Ry     beta= 0.70
     Davidson diagonalization with overlap
     ethr =  1.69E-11,  avg # of iterations = 11.0

     negative rho (up, down):  1.832E-05 0.000E+00

     total cpu time spent up to now is      488.0 secs

     total energy              =   -4009.18132123 Ry
     estimated scf accuracy    <       0.00000011 Ry

     iteration # 35     ecut=   140.00 Ry     beta= 0.70
     Davidson diagonalization with overlap
     ethr =  1.69E-11,  avg # of iterations =  2.0

     negative rho (up, down):  1.832E-05 0.000E+00

     total cpu time spent up to now is      498.0 secs

     total energy              =   -4009.18132120 Ry
     estimated scf accuracy    <       0.00000007 Ry

     iteration # 36     ecut=   140.00 Ry     beta= 0.70
     Davidson diagonalization with overlap
     ethr =  1.42E-11,  avg # of iterations =  5.0

     negative rho (up, down):  1.832E-05 0.000E+00

     total cpu time spent up to now is      513.4 secs

     End of self-consistent calculation

          k = 0.0000 0.0000 0.0000 (214077 PWs)   bands (ev):

   -49.6210 -49.6047 -49.6045 -49.5925 -49.5905 -49.5903 -28.1093 -28.0062
   -28.0062 -27.9127 -27.9127 -27.9050 -27.7775 -27.7328 -27.7327 -27.7263
   -27.7262 -27.6995 -27.6271 -27.6271 -27.5915 -27.5780 -27.5779 -27.5773
   -22.8406 -22.7938 -22.7937 -22.7880 -22.7879 -22.7625 -22.5854 -22.5788
   -22.5214 -22.5213 -22.5191 -22.5190 -20.5538 -20.5376 -20.5375 -20.5081
   -20.5080 -20.4724 -20.3480 -20.3480 -20.3247 -20.3247 -20.2413 -20.2372
   -17.9985 -17.7662 -17.7661 -17.5720 -17.5719 -17.5295 -17.3934 -17.3923
   -17.3923 -17.2150 -17.2150 -17.2128 -15.0514 -15.0514 -15.0419 -14.8631
   -14.8424 -14.8424 -14.4898 -14.4876 -14.4875 -14.3154 -14.3153 -14.3132
   -12.2924 -12.2561 -12.2561 -12.0960 -12.0373 -12.0373 -10.9649 -10.9649
   -10.9534 -10.7877 -10.7876 -10.7709 -10.2332 -10.2332 -10.1517 -10.0301
    -9.8562  -9.8561  -9.6170  -9.5579  -9.5579  -9.4481  -9.3785  -9.3784
    -8.7854  -8.6131  -8.5384  -8.5384  -8.3961  -8.3961  -8.3558  -8.1983
    -8.1983  -8.1508  -8.1507  -7.8705  -7.8685  -7.8685  -7.7643  -7.7643
    -7.6646  -7.6498  -7.6497  -7.6411  -7.5399  -7.3871  -7.3871  -7.2555
    -7.1564  -6.9187  -6.9186  -6.8603  -6.8333  -6.8333  -6.8332  -6.7379
    -6.7378  -6.7008  -6.6902  -6.6902  -6.6686  -6.6686  -6.6575  -6.5710
    -6.5358  -6.5357  -6.5136  -6.4542  -6.4265  -6.4264  -6.3488  -6.3488
    -6.2164  -6.1897  -6.1897  -6.0323  -6.0323  -6.0150  -5.7308  -5.6369
    -5.6369  -5.4605  -5.2510  -5.2510  -5.1349  -5.0026  -4.9596  -4.9596
    -4.8930  -4.8930  -4.8928  -4.8927  -4.8691  -4.7844  -4.7700  -4.7700
    -4.7351  -4.2533  -4.2532  -4.2006  -4.1520  -4.1519  -4.1519  -4.1465
    -4.1465  -3.9889  -3.9889  -3.9785  -3.9785  -3.9605  -3.8067  -3.6442
    -3.6442  -3.6131  -3.5232  -3.4054  -3.3739  -3.3739  -3.3008  -3.2438
    -3.2438  -3.2087  -3.1696  -3.1695  -3.0841  -3.0441  -3.0441  -2.9811
    -2.9811  -2.9250  -2.9250  -2.8196  -2.7492  -2.6859  -2.6859  -2.6854
    -2.6392  -2.6392  -2.5842  -2.5842  -2.5340  -2.5327  -2.5327  -2.4850
    -2.4287  -2.4287  -2.3941  -2.3813  -2.3799  -2.3754  -2.3754  -2.3466
    -2.3466  -2.2879  -2.2410  -2.2409  -2.1761  -2.1761  -2.1593  -1.6354
    -1.6353  -1.5000

     highest occupied level (ev):    -1.5000

!    total energy              =   -4009.18132122 Ry
     total all-electron energy =    -51389.598428 Ry
     estimated scf accuracy    <          8.0E-09 Ry

     The total energy is the sum of the following terms:
     one-electron contribution =   -6099.12869317 Ry
     hartree contribution      =    3181.00122344 Ry
     xc contribution           =    -570.37690244 Ry
     ewald contribution        =    1323.03872305 Ry
     one-center paw contrib.   =   -1843.71567211 Ry

     convergence has been achieved in  36 iterations

     Writing all to output data dir ./pwscf.save/ :
     XML data file, charge density, pseudopotentials, collected wavefunctions

     init_run     :      9.84s CPU     11.27s WALL (       1 calls)
     electrons    :    465.42s CPU    501.32s WALL (       1 calls)

     Called by init_run:
     wfcinit      :      5.49s CPU      5.63s WALL (       1 calls)
     potinit      :      0.35s CPU      0.47s WALL (       1 calls)
     hinit0       :      0.30s CPU      0.44s WALL (       1 calls)

     Called by electrons:
     c_bands      :    386.30s CPU    390.54s WALL (      36 calls)
     sum_band     :     51.49s CPU     66.79s WALL (      36 calls)
     v_of_rho     :      5.05s CPU      5.86s WALL (      37 calls)
     newd         :     18.66s CPU     33.91s WALL (      37 calls)
     PAW_pot      :      1.98s CPU      2.12s WALL (      37 calls)
     mix_rho      :      1.49s CPU      1.71s WALL (      36 calls)

     Called by c_bands:
     init_us_2    :      0.96s CPU      1.08s WALL (      73 calls)
     regterg      :    385.42s CPU    389.55s WALL (      36 calls)

     Called by *egterg:
     rdiaghg      :     20.09s CPU     20.31s WALL (     246 calls)
     h_psi        :    202.65s CPU    204.98s WALL (     247 calls)
     s_psi        :     81.78s CPU     82.00s WALL (     247 calls)
     g_psi        :      0.08s CPU      0.09s WALL (     210 calls)

     Called by h_psi:
     h_psi:calbec :     84.77s CPU     85.99s WALL (     247 calls)
     vloc_psi     :     35.11s CPU     36.07s WALL (     247 calls)
     vloc_psi:tg_ :      0.09s CPU      0.10s WALL (     247 calls)
     add_vuspsi   :     82.46s CPU     82.60s WALL (     247 calls)

     General routines
     calbec       :    112.83s CPU    114.43s WALL (     283 calls)
     fft          :      7.50s CPU      9.02s WALL (     405 calls)
     ffts         :      0.31s CPU      0.34s WALL (      73 calls)
     fftw         :     39.50s CPU     40.59s WALL (   29552 calls)
     interpolate  :      0.67s CPU      0.78s WALL (      37 calls)

     Parallel routines
     fft_scatt_xy :      2.16s CPU      2.18s WALL (   30030 calls)
     fft_scatt_yz :     35.95s CPU     38.47s WALL (   30030 calls)
     fft_scatt_tg :      0.14s CPU      0.14s WALL (   29552 calls)

     PWSCF        :   7m57.45s CPU   8m36.13s WALL


   This run was terminated on:  15:32:33   4Jun2025            

=------------------------------------------------------------------------------=
   JOB DONE.
=------------------------------------------------------------------------------=
