
                                 *****************
                                 * O   R   C   A *
                                 *****************

                                            #,                                       
                                            ###                                      
                                            ####                                     
                                            #####                                    
                                            ######                                   
                                           ########,                                 
                                     ,,################,,,,,                         
                               ,,#################################,,                 
                          ,,##########################################,,             
                       ,#########################################, ''#####,          
                    ,#############################################,,   '####,        
                  ,##################################################,,,,####,       
                ,###########''''           ''''###############################       
              ,#####''   ,,,,##########,,,,          '''####'''          '####       
            ,##' ,,,,###########################,,,                        '##       
           ' ,,###''''                  '''############,,,                           
         ,,##''                                '''############,,,,        ,,,,,,###''
      ,#''                                            '''#######################'''  
     '                                                          ''''####''''         
             ,#######,   #######,   ,#######,      ##                                
            ,#'     '#,  ##    ##  ,#'     '#,    #''#        ,####,    ,#,          
            ##       ##  ##   ,#'  ##            #'  '#       #'       ,# #          
            ##       ##  #######   ##           ,######,      #####,      #          
            '#,     ,#'  ##    ##  '#,     ,#' ,#      #,     #,   #      #          
             '#######'   ##     ##  '#######'  #'      '#     '####' #    #          



                #########################################################
                #                        -***-                          #
                #          Department of theory and spectroscopy        #
                #                                                       #
                #                      Frank Neese                      #
                #                                                       #
                #     Directorship, Architecture, Infrastructure        #
                #                    SHARK, DRIVERS                     #
                #        Core code/Algorithms in most modules           #
                #                                                       #
                #        Max Planck Institute fuer Kohlenforschung      #
                #                Kaiser Wilhelm Platz 1                 #
                #                 D-45470 Muelheim/Ruhr                 #
                #                      Germany                          #
                #                                                       #
                #                  All rights reserved                  #
                #                        -***-                          #
                #########################################################


                         Program Version 6.1.0  -  RELEASE   -
                                (GIT: $679e74b$)
                          ($2025-06-10 18:02:51 +0200$)


 With contributions from (in alphabetic order):
[Max-Planck-Institut fuer Kohlenforschung]                               
  Daniel Aravena         : Magnetic Suceptibility                        
  Michael Atanasov       : Ab Initio Ligand Field Theory (pilot matlab implementation)
  Alexander A. Auer      : GIAO ZORA, VPT2 properties, NMR spectrum      
  Ute Becker             : All parallelization in ORCA, NUMFREQ, NUMCALC 
  Giovanni Bistoni       : ED, misc. LED, open-shell LED, HFLD           
  Dmytro Bykov           : pre 5.0 version of the SCF Hessian            
  Marcos Casanova-Páez   : Triplet and SCS-CIS(D). UHF-(DLPNO)-IP/EA/STEOM-CCSD. UHF-CVS-IP/STEOM-CCSD   
  Vijay G. Chilkuri      : MRCI spin determinant printing, contributions to CSF-ICE 
  Pauline Colinet        : FMM embedding                                 
  Dipayan Datta          : RHF DLPNO-CCSD density                        
  Achintya Kumar Dutta   : EOM-CC, STEOM-CC                              
  Nicolas Foglia         : Exact transition moments, OPA infrastructure, MCD improvements    
  Dmitry Ganyushin       : Spin-Orbit,Spin-Spin,Magnetic field MRCI      
  Miquel Garcia-Rates    : C-PCM and meta-GGA Hessian, CCSD/C-PCM, Gaussian charge scheme 
  Tiago L. C. Gouveia    : GS-ROHF, GS-ROCIS                             
  Yang Guo               : DLPNO-NEVPT2, F12-NEVPT2, CIM, IAO-localization        
  Andreas Hansen         : Spin unrestricted coupled pair/coupled cluster methods 
  Ingolf Harden          : AUTO-CI MPn and infrastructure                
  Benjamin Helmich-Paris : MC-RPA, TRAH-(SCF,CASSCF), AVAS, COSX integrals, SCF dyn. polar., MC-PDFT, srDFT 
  Lee Huntington         : MR-EOM, pCC                                   
  Robert Izsak           : Overlap fitted RIJCOSX, COSX-SCS-MP3, EOM     
  Riya Kayal             : Wick's Theorem for AUTO-CI, AUTO-CI UHF-CCSDT 
  Emily Kempfer          : AUTO-CI RHF CISDT and CCSDT, approximate NEVPT4
  Christian Kollmar      : KDIIS, OOCD, Brueckner-CCSD(T), CCSD density, CASPT2, CASPT2-K, improved NEVPT2 
  Axel Koslowski         : Symmetry handling                             
  Simone Kossmann        : meta-GGA functionals, TD-DFT gradient, OOMP2, (MP2 Hessian; deprecated post 5.0) 
  Lucas Lang             : DCDCAS, Hyperfine gauge corrections, ICE-SOC+SSC
  Marvin Lechner         : AUTO-CI (C++ implementation), FIC-MRCC        
  Spencer Leger          : CASSCF response                               
  Dagmar Lenk            : GEPOL surface, SMD, ORCA-2-JSON               
  Dimitrios Liakos       : Extrapolation schemes; Compound Job, Property file
  Dimitrios Manganas     : Further ROCIS development; embedding schemes. LFT, Crystal Embedding 
  Dimitrios Pantazis     : SARC Basis sets                               
  Anastasios Papadopoulos: AUTO-CI, single reference methods and gradients 
  Taras Petrenko         : pre 6.0 DFT Hessian and TD-DFT gradient,  ECA, NRVS 
  Petra Pikulova         : Analytic Raman intensities                    
  Peter Pinski           : DLPNO-MP2, DLPNO-MP2 Gradient                 
  Shashank Vittal Rao    : ES-AILFT, MagRelax                            
  Christoph Reimann      : Effective Core Potentials                     
  Marius Retegan         : Local ZFS, SOC                                
  Christoph Riplinger    : Optimizer, TS searches, QM/MM, DLPNO-CCSD(T), (RO)-DLPNO pert. Triples 
  Michael Roemelt        : Original ROCIS implementation, recursive CI coupling coefficients
  Masaaki Saitow         : Open-shell DLPNO-CCSD energy and density      
  Barbara Sandhoefer     : DKH picture change effects                    
  Yorick L. A. Schmerwitz: GMF and freeze-and-release deltaSCF, NEB S-IDPP initial path                    
  Kantharuban Sivalingam : CASSCF convergence/infrastructure, NEVPT2, NEVPT3, NEVPT4(SD), FIC-MRCI and CEPA variants
  Bernardo de Souza      : ESD, SOC TD-DFT                               
  Georgi L. Stoychev     : AutoAux, RI-MP2 NMR, DLPNO-MP2 response, X2C  
  Van Anh Tran           : RI-MP2 g-tensors                              
  Willem Van den Heuvel  : Paramagnetic NMR                              
  Zikuan Wang            : NOTCH, Electric field optimization            
  Frank Wennmohs         : Technical directorship and infrastructure     
  Hang Xu                : AUTO-CI-Response properties                   
                                                                         
[FACCTs GmbH]                                                            
  Markus Bursch, Nicolas Foglia, Miquel Garcia-Rates, Ingolf Harden, Hagen Neugebauer, Anastasios Papadopoulos, 
  Christoph Riplinger, Bernardo de Souza, Georgi L. Stoychev                                                    
                                                                 
  APM, various basis sets, CI-OPT, improved COSX, DLPNO-Multilevel,           
  DOCKER, DRACO, updates on ESD, Fragmentator, GOAT, IRC, LR-CPCM, L-BFGS, MBIS, meta-GGA TD-DFT gradient, ML-optimized integration grids, 
  MM, NACMEs, nearIR, NEB, NEB-TS, NL-DFT gradient (VV10), 2- and 3-layer-ONIOM, interface openCOSMO-RS, QMMM,   
  Crystal-QMMM, RESP, rigid body optimization, SF, symmetry and pop. for TD-DFT, various functionals, SOLVATOR                                   
                                                                         
[Other institutions]                                                     
  V. Asgeirsson          : NEB                                           
  Christoph Bannwarth    : sTDA-DFT, sTD-DFT, PBEh-3c, B97-3c, D3        
  Giovanni Bistoni       : ETS/NOCV, ADLD/ADEX, COVALED                  
  Martin Brehm           : Molecular dynamics                            
  Ronald Cardenas        : ETS/NOCV                                      
  Martina Colucci        : COVALED                                       
  Sebastian Ehlert       : rSCAN, r2SCAN, r2SCAN-3c, D4, dhf basis sets  
  Marvin Friede          : D4 for Fr, Ra, Ac-Lr                          
  Lars Goerigk           : TD-DFT with DH, B97 family of functionals     
  Stefan Grimme          : VdW corrections, initial TS optimization, DFT functionals, gCP, sTDA/sTD-DF 
  Waldemar Hujo          : DFT-NL                                        
  H. Jonsson             : NEB                                           
  Holger Kruse           : gCP                                           
  Marcel Mueller         : wB97X-3c, vDZP basis set                      
  Hagen Neugebauer       : wr2SCAN, Native XTB                           
  Gianluca Regni         : ADLD/ADEX                                     
  Tobias Risthaus        : pre 6.0 range-separated hybrid DFT and stability analysis
  Lukas Wittmann         : regularized MP2, r2SCAN double-hybrids, wr2SCAN        
                                                                         
We gratefully acknowledge several colleagues who have allowed us to      
interface, adapt or use parts of their codes:                            
  Ed Valeev, F. Pavosevic, A. Kumar             : LibInt (2-el integral package), F12 methods 
  Garnet Chan, S. Sharma, J. Yang, R. Olivares  : DMRG                   
  Ulf Ekstrom                                   : XCFun DFT Library      
  Mihaly Kallay                                 : mrcc  (arbitrary order and MRCC methods)
  Frank Weinhold                                : gennbo (NPA and NBO analysis)           
  Simon Mueller                                 : openCOSMO-RS                            
  Christopher J. Cramer and Donald G. Truhlar   : smd solvation model                     
  S Lehtola, MJT Oliveira, MAL Marques          : LibXC Library                           
  Liviu Ungur et al                             : ANISO software                          


 Your calculation uses the libint2 library for the computation of 2-el integrals
 For citations please refer to: http://libint.valeyev.net

 Your ORCA version has been built with support for libXC version: 7.0.0
 For citations please refer to: https://libxc.gitlab.io

 This ORCA versions uses:
   CBLAS   interface :  Fast vector & matrix operations
   LAPACKE interface :  Fast linear algebra routines
   SCALAPACK package :  Parallel linear algebra routines
   Shared memory     :  Shared parallel matrices
   BLAS/LAPACK       :  OpenBLAS 0.3.29  USE64BITINT DYNAMIC_ARCH NO_AFFINITY Bulldozer SINGLE_THREADED
        Core in use  :  Bulldozer
   Copyright (c) 2011-2014, The OpenBLAS Project


  ***********************************
  * Starting time: Wed Aug 13 10:27:20 2025
  * Host name:     chromium07
  * Process ID:    219352
  * Working dir.:  /local/scratch/mehlhorn/61889
  ***********************************



***************************************
The coordinates will be read from file: start.xyz
***************************************


Your calculation utilizes the geometrical counterpoise correction gCP
Please cite in your paper:
H.Kruse, S. Grimme J.Chem.Phys., 136, (2012), 154101 
   

Your calculation utilizes the atom-pairwise dispersion correction
with the Becke-Johnson damping scheme (D3BJ)


Warning: RI is on but no J-basis has been assigned. Assigning Def2/J (nothing to worry about!)
================================================================================

cite the ECPs for Zr [Def2-ECP] as follows:
Ce-Yb(ecp-28): M. Dolg, H. Stoll, H.Preuss, J. Chem. Phys., 1989, 90, 1730-1734.
Y-Cd(ecp-28), Hf-Hg(ecp-46): D. Andrae,U. Haeussermann, M. Dolg, H. Stoll, H. Preuss, Theor. Chim. Acta, 1990, 77, 123-141.
In-Sb(ecp-28), Tl-Bi(ecp-46): B. Metz, H. Stoll, M. Dolg, J. Chem. Phys., 2000, 113, 2563-2569.
Te-Xe(ecp-28), Po-Rn(ecp-46): K. A. Peterson, D. Figgen, E. Goll, H. Stoll, M. Dolg, J. Chem. Phys., 2003, 119, 11113-11123.
Rb(ecp-28), Cs(ecp-46): T. Leininger, A. Nicklass, W. Kuechle, H. Stoll, M. Dolg, A. Bergner, Chem. Phys. Lett., 1996, 255, 274-280.
Sr(ecp-28), Ba(ecp-46): M. Kaupp, P. V. Schleyer, H. Stoll and H. Preuss, J. Chem. Phys., 1991, 94, 1360-1366.
La(ecp-46): M. Dolg, H. Stoll, A. Savin, H. Preuss, Theor. Chim. Acta, 1989, 75, 173-194.
Lu(ecp-28): X. Cao, M. Dolg, J. Chem. Phys., 2001, 115, 7348-7355.

ECP parameters for Zr [Def2-ECP] have been obtained from:
TURBOMOLE (7.0.2)

----- Orbital basis set information -----
Your calculation utilizes the basis: def2-SV(P)
   F. Weigend and R. Ahlrichs, Phys. Chem. Chem. Phys. 7, 3297 (2005).

----- AuxJ basis set information -----
Your calculation utilizes the auxiliary basis: def2/J
   H-Rn: F. Weigend, Phys. Chem. Chem. Phys. 8, 1057 (2006).
   Fr-Lr: K. Eichkorn, F. Weigend, O. Treutler, R. Ahlrichs; Theor. Chem. Acc. 97, 119 (1997).

================================================================================
                                        WARNINGS
                       Please study these warnings very carefully!
================================================================================


WARNING: Gradients are needed
  ===> : At least TightSCF should be used for SCF convergence

WARNING: Geometry Optimization
  ===> : Switching off AutoStart
         For restart on a previous wavefunction, please use MOREAD

================================================================================
                                       INPUT FILE
================================================================================
NAME = run.inp
|  1> # Geometry optimization for (AlH3)n cluster
|  2> 
|  3> %pal nprocs 24  end
|  4> 
|  5> %geom MaxIter 500 end
|  6> 
|  7> 
|  8> ! PBE def2-SV(P)
|  9> ! RKS	# closed shell for AlH3
| 10> ! D3    #  dispersion correction
| 11> ! gCP(DFT/SV(P))
| 12> ! Freq 	# Frequency analysis to check the stabiltity of the structures
| 13> 
| 14> ! NoPop # population analysis not necessary	
| 15> 
| 16> ! DEFGRID2
| 17> ! NormalSCF
| 18> ! SloppyOpt
| 19> 
| 20> ! SmallPrint
| 21> 
| 22> 
| 23> * xyzFile 0 1 start.xyz # only maingroup elements H and Al so there should be no net spin
| 24> 
| 25>                          ****END OF INPUT****
================================================================================

                       *****************************
                       * Geometry Optimization Run *
                       *****************************

Geometry optimization settings:
Update method            Update   .... BFGS
Choice of coordinates    CoordSys .... (2022) Redundant Internals
Initial Hessian          InHess   .... Almloef's Model
Max. no of cycles        MaxIter  .... 500

Convergence Tolerances:
Energy Change            TolE     ....  8.0000e-05 Eh
Max. Gradient            TolMAXG  ....  5.0000e-03 Eh/bohr
RMS Gradient             TolRMSG  ....  1.0000e-03 Eh/bohr
Max. Displacement        TolMAXD  ....  3.0000e-02 bohr
RMS Displacement         TolRMSD  ....  2.0000e-02 bohr
Strict Convergence                .... False

------------------------------------------------------------------------------
                        ORCA OPTIMIZATION COORDINATE SETUP
------------------------------------------------------------------------------

The optimization will be done in redundant internal coordinates (2022)
Making redundant internal coordinates   ...  (2022 redundants) done
Evaluating the initial hessian          ...  (Almloef) done
Evaluating the coordinates              ...  done
Calculating the B-matrix                .... done
Calculating the G-matrix                .... done
The number of degrees of freedom        .... 1216

    -----------------------------------------------------------------
                    Redundant Internal Coordinates


    -----------------------------------------------------------------
         Definition                    Initial Value    Approx d2E/dq
    -----------------------------------------------------------------
      1. B(Zr  2,Zr  1)                  3.4361         0.034793   
      2. B(Zr  3,Zr  0)                  3.4199         0.036927   
      3. B(Zr  4,Zr  3)                  3.4318         0.035356   
      4. B(Zr  4,Zr  1)                  3.4157         0.037511   
      5. B(Zr  5,Zr  2)                  3.3552         0.046850   
      6. B(Zr  5,Zr  0)                  3.4141         0.037725   
      7. B(O   6,Zr  0)                  2.1056         0.408623   
      8. B(O   6,Zr  3)                  2.1175         0.391097   
      9. B(O   6,Zr  5)                  2.1463         0.351853   
     10. B(O   7,Zr  4)                  2.1715         0.320782   
     11. B(O   7,Zr  2)                  2.1782         0.312906   
     12. B(O   7,Zr  1)                  2.1231         0.383107   
     13. B(O   8,Zr  1)                  2.1234         0.382727   
     14. B(O   8,Zr  2)                  2.0936         0.426948   
     15. B(O   8,Zr  5)                  2.1672         0.325898   
     16. B(O   9,Zr  3)                  2.0999         0.417270   
     17. B(O   9,Zr  4)                  2.1398         0.360408   
     18. B(O   9,Zr  0)                  2.1189         0.389113   
     19. B(O  10,Zr  1)                  2.1225         0.383981   
     20. B(O  10,Zr  4)                  2.1041         0.410856   
     21. B(O  10,Zr  3)                  2.1533         0.342952   
     22. B(O  11,Zr  5)                  2.1353         0.366362   
     23. B(O  11,Zr  2)                  2.0709         0.464137   
     24. B(O  11,Zr  0)                  2.0936         0.426961   
     25. B(O  12,Zr  0)                  1.9905         0.623700   
     26. B(O  13,Zr  0)                  1.9864         0.633060   
     27. B(O  14,Zr  0)                  2.0566         0.489147   
     28. B(O  15,Zr  0)                  2.0252         0.548952   
     29. B(O  16,Zr  1)                  2.0387         0.522417   
     30. B(O  17,Zr  1)                  2.0835         0.443095   
     31. B(O  18,Zr  1)                  1.9839         0.638948   
     32. B(O  19,Zr  1)                  1.9692         0.674422   
     33. B(O  20,Zr  2)                  1.9844         0.637832   
     34. B(O  21,Zr  2)                  2.0727         0.461024   
     35. B(O  22,Zr  2)                  1.9725         0.666174   
     36. B(O  23,Zr  2)                  1.9935         0.616766   
     37. B(O  24,Zr  3)                  2.0731         0.460421   
     38. B(O  25,Zr  3)                  1.9940         0.615786   
     39. B(O  26,Zr  3)                  2.0242         0.550936   
     40. B(O  27,Zr  3)                  1.9797         0.648989   
     41. B(O  28,Zr  4)                  1.9784         0.651947   
     42. B(O  29,Zr  4)                  2.0724         0.461669   
     43. B(O  30,Zr  4)                  1.9792         0.650125   
     44. B(O  31,Zr  4)                  2.0309         0.537711   
     45. B(O  32,Zr  5)                  2.0504         0.500508   
     46. B(O  33,Zr  5)                  1.9868         0.632155   
     47. B(O  34,Zr  5)                  2.0703         0.465228   
     48. B(O  35,Zr  5)                  1.9717         0.668306   
     49. B(C  36,O  33)                  1.3022         0.772653   
     50. B(C  36,O  12)                  1.3012         0.775582   
     51. B(C  37,O  25)                  1.3019         0.773416   
     52. B(C  37,O  13)                  1.3020         0.773263   
     53. B(C  38,O  21)                  1.2968         0.788021   
     54. B(C  38,O  14)                  1.2970         0.787365   
     55. B(C  39,O  29)                  1.2987         0.782727   
     56. B(C  39,O  15)                  1.3005         0.777455   
     57. B(C  40,O  34)                  1.2992         0.781183   
     58. B(C  40,O  16)                  1.2967         0.788464   
     59. B(C  41,O  26)                  1.2971         0.787261   
     60. B(C  41,O  17)                  1.2982         0.784072   
     61. B(C  42,O  22)                  1.2988         0.782227   
     62. B(C  42,O  18)                  1.2992         0.781264   
     63. B(C  43,O  19)                  1.3002         0.778403   
     64. B(C  43,O  30)                  1.2998         0.779304   
     65. B(C  44,O  20)                  1.2989         0.782018   
     66. B(C  44,O  35)                  1.2989         0.781952   
     67. B(C  45,O  31)                  1.2950         0.793450   
     68. B(C  45,O  23)                  1.2953         0.792471   
     69. B(C  46,O  32)                  1.2987         0.782558   
     70. B(C  46,O  24)                  1.3011         0.775685   
     71. B(C  47,O  28)                  1.3005         0.777415   
     72. B(C  47,O  27)                  1.2995         0.780400   
     73. B(H  48,C  41)                  1.0861         0.365231   
     74. B(H  49,C  42)                  1.0902         0.359899   
     75. B(H  50,C  38)                  1.0849         0.366902   
     76. B(H  51,C  37)                  1.0918         0.357743   
     77. B(H  52,C  43)                  1.0908         0.359029   
     78. B(H  53,C  47)                  1.0909         0.358959   
     79. B(H  54,C  39)                  1.0876         0.363258   
     80. B(H  55,C  45)                  1.0860         0.365433   
     81. B(H  56,C  40)                  1.0867         0.364465   
     82. B(H  57,C  46)                  1.0874         0.363581   
     83. B(H  58,C  36)                  1.0920         0.357473   
     84. B(H  59,C  44)                  1.0901         0.359931   
     85. B(Al 61,Al 60)                  3.1583         0.046317   
     86. B(Al 62,Al 61)                  3.2311         0.035447   
     87. B(Al 62,Al 60)                  2.6975         0.251670   
     88. B(Al 63,Al 62)                  3.2335         0.035129   
     89. B(Al 63,Al 60)                  3.1559         0.046725   
     90. B(Al 63,H  53)                  2.9562         0.010000   
     91. B(Al 64,Al 62)                  3.2906         0.028486   
     92. B(Al 65,Al 64)                  3.2484         0.033257   
     93. B(Al 65,Al 61)                  3.2633         0.031487   
     94. B(Al 66,Al 64)                  3.2743         0.030244   
     95. B(Al 66,Al 63)                  3.2674         0.031017   
     96. B(Al 67,Al 66)                  3.2460         0.033552   
     97. B(Al 67,Al 65)                  3.2519         0.032841   
     98. B(Al 67,Al 64)                  3.1339         0.050647   
     99. B(H  68,Al 67)                  1.5952         0.394518   
    100. B(H  68,H  48)                  2.9446         0.010000   
    101. B(H  69,Al 67)                  1.6745         0.294811   
    102. B(H  69,Al 64)                  1.6737         0.295670   
    103. B(H  69,C  41)                  2.9052         0.010000   
    104. B(H  69,H  48)                  2.6818         0.010000   
    105. B(H  70,Al 67)                  1.6763         0.292829   
    106. B(H  70,Al 66)                  1.6805         0.288284   
    107. B(H  71,Al 67)                  1.6772         0.291839   
    108. B(H  71,Al 65)                  1.6815         0.287306   
    109. B(H  72,Al 65)                  1.6002         0.387247   
    110. B(H  73,Al 65)                  1.5997         0.387940   
    111. B(H  74,Al 65)                  1.6777         0.291341   
    112. B(H  74,Al 61)                  1.6717         0.297821   
    113. B(H  75,Al 61)                  1.5950         0.394789   
    114. B(H  76,Al 65)                  1.6701         0.299620   
    115. B(H  76,Al 64)                  1.6747         0.294496   
    116. B(H  77,Al 62)                  1.6971         0.271271   
    117. B(H  77,Al 61)                  1.6759         0.293238   
    118. B(H  77,H  52)                  2.7773         0.010000   
    119. B(H  78,Al 64)                  1.6665         0.303581   
    120. B(H  78,Al 62)                  1.6828         0.285895   
    121. B(H  78,H  52)                  2.9568         0.010000   
    122. B(H  78,C  43)                  2.9014         0.010000   
    123. B(H  78,O  30)                  2.8110         0.010000   
    124. B(H  78,O  28)                  2.5744         0.010000   
    125. B(H  79,Al 62)                  1.6130         0.369475   
    126. B(H  79,O  28)                  2.9753         0.010000   
    127. B(H  79,O  30)                  2.6874         0.010000   
    128. B(H  80,Al 63)                  1.6752         0.293996   
    129. B(H  80,Al 62)                  1.6955         0.272865   
    130. B(H  80,H  53)                  2.6998         0.010000   
    131. B(H  81,Al 66)                  1.6768         0.292312   
    132. B(H  81,Al 63)                  1.6711         0.298495   
    133. B(H  81,H  53)                  2.7151         0.010000   
    134. B(H  82,Al 63)                  1.5948         0.394975   
    135. B(H  83,Al 66)                  1.6002         0.387259   
    136. B(H  83,H  53)                  2.8604         0.010000   
    137. B(H  84,Al 64)                  1.5988         0.389318   
    138. B(H  84,C  47)                  2.9334         0.010000   
    139. B(H  84,O  30)                  2.8670         0.010000   
    140. B(H  84,C  43)                  2.6630         0.010000   
    141. B(H  84,O  17)                  2.5455         0.010000   
    142. B(H  84,O  26)                  2.4933         0.010000   
    143. B(H  84,O  19)                  2.4832         0.010000   
    144. B(H  84,C  41)                  2.4676         0.010000   
    145. B(H  84,O  28)                  2.4603         0.010000   
    146. B(H  84,O  10)                  2.3039         0.010000   
    147. B(H  85,Al 66)                  1.6698         0.299900   
    148. B(H  85,Al 64)                  1.6725         0.296949   
    149. B(H  85,H  53)                  2.8906         0.010000   
    150. B(H  86,Al 60)                  1.6128         0.369813   
    151. B(H  87,Al 60)                  1.6945         0.273843   
    152. B(H  87,Al 61)                  1.6766         0.292547   
    153. B(H  88,Al 63)                  1.6766         0.292477   
    154. B(H  88,Al 60)                  1.6950         0.273425   
    155. B(H  89,Al 62)                  1.6940         0.274337   
    156. B(H  89,Al 60)                  1.6886         0.279931   
    157. B(H  90,Al 66)                  1.6003         0.387137   
    158. B(H  91,Al 62)                  1.6945         0.273932   
    159. B(H  91,Al 60)                  1.6860         0.282520   
    160. A(O   9,Zr  0,O  12)          142.0473         0.498945   
    161. A(O  11,Zr  0,O  13)          155.9291         0.509063   
    162. A(Zr  5,Zr  0,O   6)           36.9950         0.334929   
    163. A(Zr  3,Zr  0,O  15)          107.1303         0.350654   
    164. A(O   6,Zr  0,O  14)          128.2877         0.481327   
    165. A(O  12,Zr  0,O  15)          137.5737         0.532153   
    166. A(Zr  3,Zr  0,Zr  5)           68.8576         0.248790   
    167. A(Zr  3,Zr  0,O   9)           35.6549         0.331046   
    168. A(O   6,Zr  0,O   9)           67.8210         0.461527   
    169. A(O   9,Zr  0,O  13)           79.2370         0.500329   
    170. A(Zr  5,Zr  0,O  12)           73.8338         0.359630   
    171. A(Zr  3,Zr  0,O  11)           84.2554         0.336185   
    172. A(O  11,Zr  0,O  12)          100.1652         0.507649   
    173. A(O  13,Zr  0,O  14)          132.3541         0.522191   
    174. A(Zr  3,Zr  0,O   6)           36.0395         0.333742   
    175. A(O   6,Zr  0,O  15)          141.0733         0.491704   
    176. A(Zr  3,Zr  0,O  14)          155.5753         0.343911   
    177. A(O  13,Zr  0,O  15)           83.8284         0.533649   
    178. A(Zr  5,Zr  0,O   9)           89.7669         0.332220   
    179. A(O  12,Zr  0,O  14)           80.2153         0.520733   
    180. A(O   6,Zr  0,O  11)           66.3025         0.469437   
    181. A(O  11,Zr  0,O  15)          107.9069         0.495725   
    182. A(Zr  5,Zr  0,O  14)           91.6123         0.345147   
    183. A(Zr  5,Zr  0,O  15)          143.2747         0.351923   
    184. A(O  14,Zr  0,O  15)           79.4350         0.508437   
    185. A(O   9,Zr  0,O  11)           84.0807         0.465247   
    186. A(Zr  5,Zr  0,O  11)           36.5795         0.337384   
    187. A(O   6,Zr  0,O  12)           79.3701         0.503510   
    188. A(O  12,Zr  0,O  13)           83.0383         0.546685   
    189. A(Zr  5,Zr  0,O  13)          125.5731         0.360544   
    190. A(O   9,Zr  0,O  14)          135.3546         0.477006   
    191. A(Zr  3,Zr  0,O  13)           72.0704         0.359234   
    192. A(Zr  3,Zr  0,O  12)          106.7554         0.358324   
    193. A(O   6,Zr  0,O  13)           91.2086         0.504909   
    194. A(O   9,Zr  0,O  15)           73.3289         0.487269   
    195. A(O  11,Zr  0,O  14)           71.4001         0.485244   
    196. A(O   7,Zr  1,O  17)          137.7780         0.467086   
    197. A(O  16,Zr  1,O  19)          127.3399         0.535035   
    198. A(Zr  4,Zr  1,O  16)          156.8309         0.348657   
    199. A(Zr  4,Zr  1,O  19)           73.0684         0.364108   
    200. A(Zr  4,Zr  1,O  17)          101.0812         0.339157   
    201. A(O  10,Zr  1,O  16)          125.3306         0.481647   
    202. A(Zr  2,Zr  1,O   8)           35.1436         0.326914   
    203. A(Zr  4,Zr  1,O  18)          113.3878         0.360764   
    204. A(O  10,Zr  1,O  18)          149.1323         0.499955   
    205. A(O  17,Zr  1,O  19)           83.4505         0.518716   
    206. A(O   8,Zr  1,O  17)          117.0368         0.467001   
    207. A(O  10,Zr  1,O  19)           87.6449         0.505012   
    208. A(O  18,Zr  1,O  19)           82.6180         0.555833   
    209. A(Zr  4,Zr  1,O  10)           35.9047         0.331179   
    210. A(O  17,Zr  1,O  18)          136.8253         0.513492   
    211. A(Zr  2,Zr  1,O  19)          122.1870         0.359464   
    212. A(O   7,Zr  1,O  19)           89.5736         0.504798   
    213. A(Zr  4,Zr  1,O   7)           37.8070         0.331054   
    214. A(O  16,Zr  1,O  18)           82.9079         0.529613   
    215. A(Zr  2,Zr  1,Zr  4)           71.4395         0.246449   
    216. A(O   8,Zr  1,O  16)           71.1559         0.481356   
    217. A(Zr  2,Zr  1,O  17)          147.1363         0.334933   
    218. A(Zr  2,Zr  1,O  10)           89.2333         0.327090   
    219. A(O   7,Zr  1,O  18)           82.7045         0.499744   
    220. A(O   8,Zr  1,O  18)           87.6198         0.499651   
    221. A(O  16,Zr  1,O  17)           73.7895         0.494581   
    222. A(O   7,Zr  1,O   8)           68.8247         0.454758   
    223. A(Zr  2,Zr  1,O   7)           37.5360         0.326968   
    224. A(O   8,Zr  1,O  10)           90.3909         0.454946   
    225. A(O  10,Zr  1,O  17)           70.1903         0.467281   
    226. A(Zr  4,Zr  1,O   8)           92.3693         0.331000   
    227. A(O   7,Zr  1,O  16)          137.8278         0.481444   
    228. A(Zr  2,Zr  1,O  18)           71.8115         0.356176   
    229. A(O   7,Zr  1,O  10)           67.9464         0.455029   
    230. A(O   8,Zr  1,O  19)          157.3059         0.504704   
    231. A(Zr  2,Zr  1,O  16)          100.2990         0.344273   
    232. A(Zr  5,Zr  2,O   8)           38.8334         0.349865   
    233. A(O   7,Zr  2,O  20)          140.1983         0.481195   
    234. A(O   8,Zr  2,O  21)          126.8154         0.479966   
    235. A(Zr  5,Zr  2,O   7)           92.4943         0.332147   
    236. A(O   8,Zr  2,O  20)           79.3805         0.509774   
    237. A(Zr  5,Zr  2,O  20)           74.9043         0.374676   
    238. A(O  20,Zr  2,O  23)          137.5378         0.546305   
    239. A(Zr  5,Zr  2,O  22)          132.0972         0.377501   
    240. A(Zr  1,Zr  2,O  22)           74.8121         0.358711   
    241. A(Zr  1,Zr  2,O  23)          110.5662         0.354048   
    242. A(O   7,Zr  2,O  22)           78.2091         0.485074   
    243. A(O  20,Zr  2,O  22)           82.8741         0.554351   
    244. A(Zr  5,Zr  2,O  23)          138.8373         0.372513   
    245. A(Zr  1,Zr  2,O  11)           85.0701         0.337529   
    246. A(O   8,Zr  2,O  23)          142.3155         0.506588   
    247. A(O  20,Zr  2,O  21)           80.5658         0.517151   
    248. A(O   8,Zr  2,O  11)           67.5745         0.480562   
    249. A(O  11,Zr  2,O  23)          101.2966         0.514557   
    250. A(O  21,Zr  2,O  23)           76.8668         0.513909   
    251. A(Zr  5,Zr  2,O  11)           37.7607         0.354843   
    252. A(O   8,Zr  2,O  22)           96.0526         0.513935   
    253. A(O   7,Zr  2,O  11)           84.4812         0.453967   
    254. A(Zr  1,Zr  2,Zr  5)           70.8282         0.254574   
    255. A(O   7,Zr  2,O   8)           68.3267         0.447133   
    256. A(O  22,Zr  2,O  23)           84.3181         0.550827   
    257. A(O  11,Zr  2,O  20)          104.5462         0.517804   
    258. A(Zr  1,Zr  2,O   7)           36.4306         0.316311   
    259. A(O  11,Zr  2,O  22)          159.7873         0.522044   
    260. A(O  11,Zr  2,O  21)           70.8020         0.487427   
    261. A(O  21,Zr  2,O  22)          129.3560         0.521385   
    262. A(Zr  1,Zr  2,O   8)           35.7190         0.332875   
    263. A(O   7,Zr  2,O  21)          137.6585         0.453412   
    264. A(O   7,Zr  2,O  23)           74.9634         0.478225   
    265. A(Zr  5,Zr  2,O  21)           88.3745         0.354439   
    266. A(Zr  1,Zr  2,O  21)          155.8165         0.337151   
    267. A(Zr  1,Zr  2,O  20)          104.7478         0.356070   
    268. A(O  26,Zr  3,O  27)           83.9259         0.536523   
    269. A(O   6,Zr  3,O  26)          133.5813         0.488054   
    270. A(O   9,Zr  3,O  10)           66.3739         0.452750   
    271. A(Zr  0,Zr  3,O  10)           88.7138         0.324226   
    272. A(O   6,Zr  3,O   9)           67.9498         0.463728   
    273. A(O  25,Zr  3,O  27)           81.7425         0.547938   
    274. A(O   9,Zr  3,O  27)           81.0771         0.509242   
    275. A(O   6,Zr  3,O  27)          141.9304         0.503126   
    276. A(O   6,Zr  3,O  25)           78.0233         0.498233   
    277. A(O  25,Zr  3,O  26)          128.5122         0.531235   
    278. A(O  24,Zr  3,O  26)           75.7164         0.503069   
    279. A(O   9,Zr  3,O  26)          133.6923         0.493948   
    280. A(Zr  0,Zr  3,O   6)           35.8049         0.331325   
    281. A(O   6,Zr  3,O  10)           91.9873         0.447456   
    282. A(Zr  0,Zr  3,O  24)          105.0665         0.340443   
    283. A(O  10,Zr  3,O  24)          112.2394         0.460943   
    284. A(O   9,Zr  3,O  24)          138.6541         0.477827   
    285. A(Zr  0,Zr  3,O  25)           72.0127         0.357547   
    286. A(Zr  4,Zr  3,O  24)          145.0612         0.337981   
    287. A(O   9,Zr  3,O  25)           92.1902         0.504277   
    288. A(Zr  4,Zr  3,O  25)          124.6752         0.354917   
    289. A(O  10,Zr  3,O  25)          158.5290         0.486244   
    290. A(Zr  4,Zr  3,O  27)           73.3752         0.358097   
    291. A(Zr  0,Zr  3,O  26)          158.7396         0.350867   
    292. A(O   6,Zr  3,O  24)           70.8586         0.472168   
    293. A(Zr  0,Zr  3,O  27)          107.0008         0.360758   
    294. A(O  10,Zr  3,O  26)           71.8391         0.476363   
    295. A(Zr  4,Zr  3,O   6)           92.2931         0.328952   
    296. A(Zr  0,Zr  3,O   9)           36.0280         0.334904   
    297. A(Zr  4,Zr  3,O   9)           36.3508         0.332496   
    298. A(O  10,Zr  3,O  27)           95.4343         0.490994   
    299. A(O  24,Zr  3,O  25)           82.6578         0.513630   
    300. A(O  24,Zr  3,O  27)          137.6774         0.518708   
    301. A(Zr  0,Zr  3,Zr  4)           69.5476         0.246462   
    302. A(Zr  4,Zr  3,O  26)           97.3485         0.348303   
    303. A(Zr  4,Zr  3,O  10)           35.8025         0.321923   
    304. A(O   7,Zr  4,O  28)          146.0687         0.485367   
    305. A(Zr  1,Zr  4,Zr  3)           71.6823         0.247022   
    306. A(O   7,Zr  4,O  10)           67.3856         0.446036   
    307. A(O  30,Zr  4,O  31)           82.2845         0.534245   
    308. A(O  29,Zr  4,O  31)           73.6369         0.501050   
    309. A(O   7,Zr  4,O  31)           72.1672         0.468456   
    310. A(Zr  3,Zr  4,O  30)          126.4052         0.358203   
    311. A(O  28,Zr  4,O  31)          135.0790         0.534527   
    312. A(O  10,Zr  4,O  31)          139.2259         0.490317   
    313. A(O   9,Zr  4,O  31)          113.8290         0.478592   
    314. A(Zr  3,Zr  4,O  31)          146.5451         0.346881   
    315. A(Zr  1,Zr  4,O  31)          106.8253         0.350358   
    316. A(O  29,Zr  4,O  30)          125.8839         0.519141   
    317. A(O  10,Zr  4,O  30)           95.7280         0.507937   
    318. A(O   9,Zr  4,O  30)          161.7099         0.495697   
    319. A(O   7,Zr  4,O  30)           80.4284         0.485116   
    320. A(Zr  1,Zr  4,O  30)           73.1627         0.361833   
    321. A(O  28,Zr  4,O  30)           83.9612         0.554088   
    322. A(O  10,Zr  4,O  29)          133.4203         0.476704   
    323. A(Zr  1,Zr  4,O  10)           36.2685         0.334916   
    324. A(O   9,Zr  4,O  29)           69.4457         0.465377   
    325. A(Zr  3,Zr  4,O  29)           96.7571         0.338133   
    326. A(Zr  1,Zr  4,O  29)          160.1173         0.341492   
    327. A(O  10,Zr  4,O  28)           84.5639         0.508203   
    328. A(O   7,Zr  4,O   9)           95.8758         0.435604   
    329. A(Zr  3,Zr  4,O  28)           71.5572         0.358374   
    330. A(Zr  1,Zr  4,O  28)          109.6085         0.362006   
    331. A(Zr  3,Zr  4,O   9)           35.5689         0.324555   
    332. A(Zr  3,Zr  4,O   7)           94.0791         0.318426   
    333. A(O   7,Zr  4,O  29)          132.5601         0.455584   
    334. A(O   9,Zr  4,O  28)           89.6358         0.495955   
    335. A(O   9,Zr  4,O  10)           66.5459         0.455573   
    336. A(Zr  1,Zr  4,O   9)           93.0748         0.327731   
    337. A(Zr  3,Zr  4,O  10)           36.7744         0.331644   
    338. A(Zr  1,Zr  4,O   7)           36.8241         0.321520   
    339. A(O  28,Zr  4,O  29)           80.6127         0.519414   
    340. A(O  34,Zr  5,O  35)           81.8991         0.522588   
    341. A(O  33,Zr  5,O  35)           83.3061         0.553746   
    342. A(O  32,Zr  5,O  35)          120.1504         0.529821   
    343. A(O   8,Zr  5,O  35)           79.6922         0.489027   
    344. A(O   6,Zr  5,O  35)          166.9208         0.496025   
    345. A(Zr  2,Zr  5,O  35)           75.0637         0.377710   
    346. A(O  33,Zr  5,O  34)          142.0770         0.517165   
    347. A(O  32,Zr  5,O  34)           74.0637         0.495123   
    348. A(O  11,Zr  5,O  34)          133.3176         0.467432   
    349. A(O  11,Zr  5,O  35)          103.3623         0.499765   
    350. A(O  32,Zr  5,O  33)           83.7611         0.524307   
    351. A(O   6,Zr  5,O  34)          110.1534         0.463987   
    352. A(Zr  2,Zr  5,O  34)          106.4684         0.354985   
    353. A(Zr  0,Zr  5,O  34)          142.4120         0.342257   
    354. A(O  11,Zr  5,O  33)           84.1132         0.494627   
    355. A(O   8,Zr  5,O  33)          139.8269         0.484023   
    356. A(Zr  2,Zr  5,O   6)           96.0393         0.338690   
    357. A(O   6,Zr  5,O  33)           89.5533         0.490934   
    358. A(Zr  0,Zr  5,O  33)           69.8217         0.360456   
    359. A(O   8,Zr  5,O  32)          136.0481         0.463687   
    360. A(O   6,Zr  5,O  32)           69.6198         0.470243   
    361. A(Zr  0,Zr  5,Zr  2)           72.1167         0.257634   
    362. A(Zr  2,Zr  5,O  32)          164.2899         0.359422   
    363. A(Zr  0,Zr  5,O  32)           97.6648         0.346482   
    364. A(Zr  0,Zr  5,O   6)           36.1804         0.326742   
    365. A(Zr  2,Zr  5,O  33)          103.0736         0.374099   
    366. A(Zr  2,Zr  5,O   8)           37.2854         0.334396   
    367. A(O   8,Zr  5,O  34)           70.5413         0.457539   
    368. A(O   8,Zr  5,O  11)           65.1315         0.438140   
    369. A(Zr  0,Zr  5,O  11)           35.7542         0.328926   
    370. A(O   6,Zr  5,O  11)           64.8683         0.444249   
    371. A(O  11,Zr  5,O  32)          132.8219         0.473745   
    372. A(Zr  2,Zr  5,O  11)           36.4341         0.340984   
    373. A(Zr  0,Zr  5,O   8)           94.8125         0.322654   
    374. A(O   6,Zr  5,O   8)           99.1625         0.434962   
    375. A(Zr  0,Zr  5,O  35)          130.7450         0.363895   
    376. A(Zr  0,O   6,Zr  5)          106.8245         0.453136   
    377. A(Zr  3,O   6,Zr  5)          129.9681         0.449541   
    378. A(Zr  0,O   6,Zr  3)          108.1556         0.461956   
    379. A(Zr  2,O   7,Zr  4)          133.7538         0.424692   
    380. A(Zr  1,O   7,Zr  4)          105.3689         0.440429   
    381. A(Zr  1,O   7,Zr  2)          106.0334         0.438458   
    382. A(Zr  1,O   8,Zr  5)          133.0826         0.441611   
    383. A(Zr  2,O   8,Zr  5)          103.8813         0.450446   
    384. A(Zr  1,O   8,Zr  2)          109.1373         0.463838   
    385. A(Zr  3,O   9,Zr  4)          108.0803         0.456861   
    386. A(Zr  0,O   9,Zr  4)          133.1584         0.451090   
    387. A(Zr  0,O   9,Zr  3)          108.3170         0.463297   
    388. A(Zr  1,O  10,Zr  3)          139.3409         0.445969   
    389. A(Zr  1,O  10,Zr  4)          107.8268         0.460868   
    390. A(Zr  3,O  10,Zr  4)          107.4231         0.451477   
    391. A(Zr  3,O  10,H  84)          104.3438         0.182108   
    392. A(Zr  1,O  10,H  84)           94.4198         0.184520   
    393. A(Zr  4,O  10,H  84)           91.3814         0.185994   
    394. A(Zr  2,O  11,Zr  5)          105.8052         0.467231   
    395. A(Zr  0,O  11,Zr  5)          107.6663         0.460151   
    396. A(Zr  0,O  11,Zr  2)          146.2036         0.480565   
    397. A(Zr  0,O  12,C  36)          125.3238         0.502925   
    398. A(Zr  0,O  13,C  37)          127.6412         0.504042   
    399. A(Zr  0,O  14,C  38)          139.3703         0.482113   
    400. A(Zr  0,O  15,C  39)          136.0244         0.491356   
    401. A(Zr  1,O  16,C  40)          128.8314         0.488138   
    402. A(Zr  1,O  17,C  41)          142.3745         0.473048   
    403. A(C  41,O  17,H  84)           71.6915         0.168326   
    404. A(Zr  1,O  17,H  84)           88.6275         0.169708   
    405. A(Zr  1,O  18,C  42)          133.4761         0.505882   
    406. A(C  43,O  19,H  84)           83.1944         0.172407   
    407. A(Zr  1,O  19,H  84)           93.0636         0.182478   
    408. A(Zr  1,O  19,C  43)          129.8836         0.510662   
    409. A(Zr  2,O  20,C  44)          131.0274         0.505809   
    410. A(Zr  2,O  21,C  38)          135.9075         0.476953   
    411. A(Zr  2,O  22,C  42)          129.3601         0.509956   
    412. A(Zr  2,O  23,C  45)          139.7001         0.503897   
    413. A(Zr  3,O  24,C  46)          137.8629         0.475455   
    414. A(Zr  3,O  25,C  37)          127.5022         0.501469   
    415. A(C  41,O  26,H  84)           73.7487         0.171923   
    416. A(Zr  3,O  26,H  84)          101.9415         0.177551   
    417. A(Zr  3,O  26,C  41)          131.3848         0.492829   
    418. A(Zr  3,O  27,C  47)          129.0685         0.507252   
    419. A(Zr  4,O  28,H  79)           89.5216         0.150614   
    420. A(H  78,O  28,H  84)           55.3620         0.106472   
    421. A(H  79,O  28,H  84)          103.1094         0.101518   
    422. A(H  78,O  28,H  79)           54.8747         0.100385   
    423. A(C  47,O  28,H  78)          112.2714         0.166298   
    424. A(Zr  4,O  28,H  78)          112.7298         0.174995   
    425. A(C  47,O  28,H  79)          135.3779         0.144383   
    426. A(C  47,O  28,H  84)           97.7282         0.173990   
    427. A(Zr  4,O  28,H  84)           90.0115         0.183552   
    428. A(Zr  4,O  28,C  47)          129.7746         0.507319   
    429. A(Zr  4,O  29,C  39)          128.6388         0.476484   
    430. A(H  78,O  30,H  79)           55.9572         0.100882   
    431. A(Zr  4,O  30,H  84)           78.9879         0.156379   
    432. A(C  43,O  30,H  79)          122.0714         0.159402   
    433. A(C  43,O  30,H  78)           80.7622         0.152529   
    434. A(H  79,O  30,H  84)          100.4096         0.100341   
    435. A(C  43,O  30,H  84)           67.7883         0.149637   
    436. A(Zr  4,O  30,H  78)          103.8242         0.159593   
    437. A(H  78,O  30,H  84)           48.6863         0.099234   
    438. A(Zr  4,O  30,H  79)           98.2644         0.167230   
    439. A(Zr  4,O  30,C  43)          130.7843         0.507284   
    440. A(Zr  4,O  31,C  45)          138.3084         0.491326   
    441. A(Zr  5,O  32,C  46)          126.9805         0.483614   
    442. A(Zr  5,O  33,C  36)          129.1680         0.503833   
    443. A(Zr  5,O  34,C  40)          140.1466         0.476984   
    444. A(Zr  5,O  35,C  44)          131.4197         0.510227   
    445. A(O  12,C  36,O  33)          126.9218         0.464292   
    446. A(O  33,C  36,H  58)          116.5797         0.363652   
    447. A(O  12,C  36,H  58)          116.4940         0.363887   
    448. A(O  13,C  37,O  25)          127.3966         0.464122   
    449. A(O  13,C  37,H  51)          116.3206         0.363748   
    450. A(O  25,C  37,H  51)          116.2826         0.363760   
    451. A(O  14,C  38,O  21)          130.1271         0.467258   
    452. A(O  21,C  38,H  50)          114.9097         0.366509   
    453. A(O  14,C  38,H  50)          114.9529         0.366457   
    454. A(O  15,C  39,O  29)          129.4896         0.465600   
    455. A(O  29,C  39,H  54)          115.1875         0.365461   
    456. A(O  15,C  39,H  54)          115.3152         0.365038   
    457. A(O  16,C  40,O  34)          129.1307         0.466632   
    458. A(O  34,C  40,H  56)          115.4913         0.365545   
    459. A(O  16,C  40,H  56)          115.3766         0.366126   
    460. A(O  17,C  41,O  26)          129.3443         0.466817   
    461. A(H  48,C  41,H  69)           67.3742         0.133764   
    462. A(O  26,C  41,H  69)           91.1788         0.150076   
    463. A(O  17,C  41,H  69)          106.2034         0.150020   
    464. A(H  48,C  41,H  84)          119.1724         0.153409   
    465. A(H  69,C  41,H  84)           52.2988         0.103193   
    466. A(O  26,C  41,H  84)           75.9432         0.176881   
    467. A(O  26,C  41,H  48)          115.3781         0.366162   
    468. A(O  17,C  41,H  84)           78.3437         0.176800   
    469. A(O  17,C  41,H  48)          115.2390         0.365908   
    470. A(O  18,C  42,O  22)          127.5549         0.465962   
    471. A(O  22,C  42,H  49)          116.2322         0.364840   
    472. A(O  18,C  42,H  49)          116.2126         0.364763   
    473. A(O  19,C  43,H  78)          113.1999         0.150113   
    474. A(H  52,C  43,H  84)          119.5709         0.143536   
    475. A(H  78,C  43,H  84)           49.5316         0.101103   
    476. A(O  30,C  43,H  78)           72.9934         0.150129   
    477. A(H  52,C  43,H  78)           82.1440         0.133732   
    478. A(O  30,C  43,H  84)           85.3467         0.163528   
    479. A(O  19,C  43,H  84)           67.8069         0.163508   
    480. A(O  30,C  43,H  52)          116.4495         0.364456   
    481. A(O  19,C  43,H  52)          116.4953         0.364384   
    482. A(O  19,C  43,O  30)          127.0376         0.465330   
    483. A(O  20,C  44,O  35)          127.5428         0.466014   
    484. A(O  35,C  44,H  59)          116.2361         0.364824   
    485. A(O  20,C  44,H  59)          116.2206         0.364829   
    486. A(O  23,C  45,H  55)          115.5124         0.366611   
    487. A(O  23,C  45,O  31)          129.0173         0.468401   
    488. A(O  31,C  45,H  55)          115.4634         0.366688   
    489. A(O  32,C  46,H  57)          115.1451         0.365503   
    490. A(O  24,C  46,H  57)          115.2662         0.364951   
    491. A(O  24,C  46,O  32)          129.5874         0.465387   
    492. A(O  28,C  47,H  84)           56.2113         0.148490   
    493. A(H  53,C  47,H  84)          120.3400         0.132554   
    494. A(O  27,C  47,H  84)           95.9561         0.148542   
    495. A(O  28,C  47,H  53)          116.6188         0.364292   
    496. A(O  27,C  47,H  53)          116.2240         0.364531   
    497. A(O  27,C  47,O  28)          127.1563         0.465342   
    498. A(C  41,H  48,H  68)          145.0169         0.112826   
    499. A(C  41,H  48,H  69)           90.6731         0.118647   
    500. A(H  68,H  48,H  69)           55.1478         0.092477   
    501. A(C  43,H  52,H  77)          118.3528         0.116277   
    502. A(C  43,H  52,H  78)           76.4205         0.112495   
    503. A(H  77,H  52,H  78)           43.9776         0.092180   
    504. A(H  80,H  53,H  85)           64.9912         0.092583   
    505. A(Al 63,H  53,H  81)           33.9360         0.100177   
    506. A(C  47,H  53,Al 63)          144.4163         0.167428   
    507. A(H  83,H  53,H  85)           46.1321         0.092135   
    508. A(H  81,H  53,H  83)           50.1493         0.092628   
    509. A(H  80,H  53,H  83)          102.7116         0.092674   
    510. A(C  47,H  53,H  83)          102.8997         0.114455   
    511. A(H  80,H  53,H  81)           58.8813         0.093146   
    512. A(C  47,H  53,H  81)          138.7449         0.117723   
    513. A(C  47,H  53,H  80)          111.4642         0.118091   
    514. A(Al 63,H  53,H  80)           34.0748         0.100320   
    515. A(Al 63,H  53,H  85)           67.1910         0.098659   
    516. A(H  81,H  53,H  85)           46.4063         0.092538   
    517. A(Al 63,H  53,H  83)           84.0849         0.098905   
    518. A(C  47,H  53,H  85)           92.4004         0.113823   
    519. A(H  88,Al 60,H  89)           90.7972         0.338884   
    520. A(H  87,Al 60,H  89)           89.9659         0.338971   
    521. A(H  86,Al 60,H  89)          137.8149         0.356560   
    522. A(Al 63,Al 60,H  89)           78.5199         0.293345   
    523. A(Al 62,Al 60,H  89)           37.1813         0.388145   
    524. A(Al 61,Al 60,H  89)           78.3516         0.292940   
    525. A(H  87,Al 60,H  88)          165.6450         0.337644   
    526. A(H  86,Al 60,H  88)           94.6237         0.355140   
    527. A(Al 62,Al 60,H  88)           86.1947         0.386557   
    528. A(Al 61,Al 60,H  88)          147.2205         0.291857   
    529. A(H  86,Al 60,H  87)           94.4206         0.355232   
    530. A(Al 63,Al 60,H  87)          147.2762         0.292331   
    531. A(Al 61,Al 60,H  87)           20.3540         0.291928   
    532. A(Al 63,Al 60,H  86)          114.7196         0.306639   
    533. A(Al 62,Al 60,H  86)          174.9891         0.407605   
    534. A(Al 61,Al 60,H  86)          114.2464         0.306207   
    535. A(Al 63,Al 60,H  88)           20.4885         0.292261   
    536. A(H  88,Al 60,H  91)           83.1141         0.339405   
    537. A(Al 62,Al 60,H  87)           85.7664         0.386660   
    538. A(Al 62,Al 60,Al 63)           66.5316         0.332330   
    539. A(Al 61,Al 60,Al 63)          127.3072         0.254889   
    540. A(Al 61,Al 60,Al 62)           66.4370         0.331847   
    541. A(H  89,Al 60,H  91)           74.3527         0.340742   
    542. A(H  87,Al 60,H  91)           83.2927         0.339492   
    543. A(H  86,Al 60,H  91)          147.8307         0.357118   
    544. A(Al 63,Al 60,H  91)           64.1651         0.293772   
    545. A(Al 62,Al 60,H  91)           37.1714         0.388769   
    546. A(Al 61,Al 60,H  91)           64.2216         0.293365   
    547. A(H  75,Al 61,H  87)          117.5962         0.363270   
    548. A(H  74,Al 61,H  87)          101.9830         0.346320   
    549. A(Al 65,Al 61,H  87)           94.1610         0.277755   
    550. A(Al 62,Al 61,H  87)           69.5944         0.282886   
    551. A(Al 60,Al 61,H  87)           20.5822         0.294985   
    552. A(H  77,Al 61,H  87)           86.0371         0.345418   
    553. A(H  75,Al 61,H  77)          115.4102         0.363417   
    554. A(H  74,Al 61,H  77)          110.5847         0.346457   
    555. A(Al 65,Al 61,H  77)           99.9145         0.277856   
    556. A(Al 62,Al 61,H  77)           16.7892         0.282989   
    557. A(Al 60,Al 61,H  77)           66.6665         0.295095   
    558. A(H  74,Al 61,H  75)          119.7431         0.364382   
    559. A(Al 65,Al 61,H  75)          132.7031         0.291005   
    560. A(Al 62,Al 61,H  75)          125.3798         0.296495   
    561. A(Al 60,Al 61,H  75)          131.0727         0.309444   
    562. A(Al 65,Al 61,H  74)           13.0387         0.278520   
    563. A(Al 62,Al 61,H  74)          109.6542         0.283671   
    564. A(Al 60,Al 61,H  74)          101.5963         0.295820   
    565. A(Al 62,Al 61,Al 65)           97.2409         0.231800   
    566. A(Al 60,Al 61,Al 65)           90.5978         0.240711   
    567. A(Al 60,Al 61,Al 62)           49.9300         0.244835   
    568. A(H  80,Al 62,H  89)           88.0255         0.337630   
    569. A(H  79,Al 62,H  89)          112.2132         0.355285   
    570. A(H  78,Al 62,H  89)          144.6623         0.340269   
    571. A(Al 64,Al 62,H  89)          134.1653         0.270860   
    572. A(Al 63,Al 62,H  89)           76.0781         0.279696   
    573. A(Al 61,Al 62,H  89)           76.0599         0.280086   
    574. A(Al 60,Al 62,H  89)           37.0405         0.386781   
    575. A(H  79,Al 62,H  80)           96.7763         0.354962   
    576. A(H  78,Al 62,H  80)           87.2054         0.339963   
    577. A(H  77,Al 62,H  80)          150.8928         0.336998   
    578. A(Al 64,Al 62,H  80)           83.6863         0.270638   
    579. A(Al 63,Al 62,H  80)           16.3019         0.279464   
    580. A(Al 61,Al 62,H  80)          137.2956         0.279853   
    581. A(Al 60,Al 62,H  80)           79.7481         0.386419   
    582. A(H  78,Al 62,H  79)          103.1184         0.357784   
    583. A(H  77,Al 62,H  79)          111.2511         0.354609   
    584. A(Al 64,Al 62,H  79)          113.5069         0.283537   
    585. A(Al 63,Al 62,H  79)          111.3878         0.292990   
    586. A(Al 61,Al 62,H  79)          125.9210         0.293406   
    587. A(Al 60,Al 62,H  79)          148.6567         0.407539   
    588. A(H  77,Al 62,H  78)           79.1541         0.339630   
    589. A(Al 64,Al 62,H  78)           10.6898         0.272566   
    590. A(Al 63,Al 62,H  78)           90.8467         0.281486   
    591. A(Al 61,Al 62,H  78)           84.0397         0.281879   
    592. A(Al 60,Al 62,H  78)          107.7707         0.389576   
    593. A(Al 64,Al 62,H  77)           78.1825         0.270398   
    594. A(Al 63,Al 62,H  77)          137.3580         0.279212   
    595. A(Al 61,Al 62,H  77)           16.5734         0.279600   
    596. A(Al 60,Al 62,H  77)           80.1496         0.386025   
    597. A(H  77,Al 62,H  89)           88.4898         0.337300   
    598. A(Al 63,Al 62,Al 64)           84.6584         0.228315   
    599. A(Al 61,Al 62,Al 64)           80.0962         0.228599   
    600. A(Al 60,Al 62,Al 64)           97.1770         0.306546   
    601. A(Al 61,Al 62,Al 63)          122.1544         0.235382   
    602. A(Al 60,Al 62,Al 63)           63.5411         0.317117   
    603. A(Al 60,Al 62,Al 61)           63.6330         0.317583   
    604. A(H  89,Al 62,H  91)           73.9967         0.337849   
    605. A(H  80,Al 62,H  91)           75.5315         0.337547   
    606. A(H  79,Al 62,H  91)          170.2402         0.355196   
    607. A(H  78,Al 62,H  91)           70.9062         0.340185   
    608. A(H  77,Al 62,H  91)           75.7317         0.337217   
    609. A(Al 64,Al 62,H  91)           60.2644         0.270799   
    610. A(Al 63,Al 62,H  91)           61.8961         0.279633   
    611. A(Al 61,Al 62,H  91)           62.0916         0.280022   
    612. A(Al 60,Al 62,H  91)           36.9562         0.386682   
    613. A(H  81,Al 63,H  88)          106.5165         0.346437   
    614. A(H  80,Al 63,H  88)           86.0284         0.345554   
    615. A(Al 66,Al 63,H  88)           97.0527         0.277103   
    616. A(Al 62,Al 63,H  88)           69.9118         0.282480   
    617. A(Al 60,Al 63,H  88)           20.7228         0.295383   
    618. A(H  82,Al 63,H  88)          120.5533         0.363285   
    619. A(H  81,Al 63,H  82)          118.9471         0.364552   
    620. A(H  80,Al 63,H  82)          113.9338         0.363607   
    621. A(Al 66,Al 63,H  82)          131.5369         0.290339   
    622. A(Al 62,Al 63,H  82)          124.6917         0.296095   
    623. A(Al 60,Al 63,H  82)          133.1462         0.309905   
    624. A(H  80,Al 63,H  81)          105.3827         0.346739   
    625. A(Al 66,Al 63,H  81)           12.6059         0.277973   
    626. A(Al 62,Al 63,H  81)          105.8375         0.283374   
    627. A(Al 60,Al 63,H  81)          104.4625         0.296337   
    628. A(Al 66,Al 63,H  80)           96.7868         0.277324   
    629. A(Al 62,Al 63,H  80)           16.5050         0.282707   
    630. A(Al 60,Al 63,H  80)           66.3442         0.295625   
    631. A(H  53,Al 63,H  88)          143.7257         0.177433   
    632. A(H  53,Al 63,H  81)           65.1009         0.177841   
    633. A(H  53,Al 63,Al 60)          123.6328         0.160223   
    634. A(Al 62,Al 63,Al 66)           94.9439         0.231025   
    635. A(Al 60,Al 63,Al 66)           92.6565         0.240496   
    636. A(Al 60,Al 63,Al 62)           49.9273         0.244826   
    637. A(H  53,Al 63,Al 66)           67.8388         0.153914   
    638. A(H  53,Al 63,Al 62)           78.4957         0.155770   
    639. A(H  53,Al 63,H  80)           64.5486         0.177536   
    640. A(H  53,Al 63,H  82)           91.8491         0.183655   
    641. A(H  84,Al 64,H  85)          116.0908         0.363331   
    642. A(H  78,Al 64,H  85)           91.4986         0.348313   
    643. A(H  76,Al 64,H  85)          113.0972         0.346536   
    644. A(H  69,Al 64,H  85)           83.6150         0.346768   
    645. A(Al 67,Al 64,H  85)           72.2685         0.299906   
    646. A(Al 66,Al 64,H  85)           11.5679         0.276677   
    647. A(Al 65,Al 64,H  85)          101.6074         0.280754   
    648. A(Al 62,Al 64,H  85)           84.6127         0.274149   
    649. A(H  78,Al 64,H  84)           91.5823         0.364706   
    650. A(H  76,Al 64,H  84)          130.1662         0.362817   
    651. A(H  69,Al 64,H  84)           94.3269         0.363063   
    652. A(Al 67,Al 64,H  84)          114.6543         0.313239   
    653. A(Al 66,Al 64,H  84)          120.8888         0.288541   
    654. A(Al 65,Al 64,H  84)          139.1312         0.292876   
    655. A(Al 62,Al 64,H  84)          102.0735         0.285854   
    656. A(H  76,Al 64,H  78)           94.7093         0.347826   
    657. A(H  69,Al 64,H  78)          173.5634         0.348060   
    658. A(Al 67,Al 64,H  78)          153.1071         0.300963   
    659. A(Al 66,Al 64,H  78)          101.5156         0.277617   
    660. A(Al 65,Al 64,H  78)          103.1265         0.281715   
    661. A(Al 62,Al 64,H  78)           10.7959         0.275077   
    662. A(H  69,Al 64,H  76)           83.4212         0.346284   
    663. A(Al 67,Al 64,H  76)           73.3593         0.299510   
    664. A(Al 66,Al 64,H  76)          106.0890         0.276325   
    665. A(Al 65,Al 64,H  76)           13.7665         0.280394   
    666. A(Al 62,Al 64,H  76)           89.7668         0.273802   
    667. A(Al 67,Al 64,H  69)           20.6097         0.299700   
    668. A(Al 66,Al 64,H  69)           73.2183         0.276493   
    669. A(Al 65,Al 64,H  69)           73.9022         0.280566   
    670. A(Al 62,Al 64,H  69)          162.8271         0.273968   
    671. A(Al 66,Al 64,Al 67)           60.8207         0.242407   
    672. A(Al 65,Al 64,Al 67)           61.2307         0.245740   
    673. A(Al 62,Al 64,Al 67)          142.3131         0.240341   
    674. A(Al 65,Al 64,Al 66)           93.5502         0.228476   
    675. A(Al 62,Al 64,Al 66)           93.7353         0.223673   
    676. A(Al 62,Al 64,Al 65)           96.3561         0.226598   
    677. A(H  74,Al 65,H  76)           79.6262         0.346430   
    678. A(H  73,Al 65,H  76)           88.3855         0.363667   
    679. A(H  72,Al 65,H  76)           92.2492         0.363556   
    680. A(H  71,Al 65,H  76)           83.7956         0.345619   
    681. A(Al 67,Al 65,H  76)           69.8400         0.280596   
    682. A(Al 64,Al 65,H  76)           13.8059         0.281143   
    683. A(Al 61,Al 65,H  76)           70.4156         0.278779   
    684. A(H  73,Al 65,H  74)           92.6367         0.361931   
    685. A(H  72,Al 65,H  74)           87.3798         0.361820   
    686. A(H  71,Al 65,H  74)          162.3599         0.343996   
    687. A(Al 67,Al 65,H  74)          147.9213         0.279385   
    688. A(Al 64,Al 65,H  74)           90.7892         0.279928   
    689. A(Al 61,Al 65,H  74)           12.9914         0.277579   
    690. A(H  71,Al 65,H  73)           92.8817         0.361071   
    691. A(Al 67,Al 65,H  73)           96.0218         0.292133   
    692. A(Al 64,Al 65,H  73)           95.9954         0.292712   
    693. A(Al 61,Al 65,H  73)          101.1858         0.290206   
    694. A(H  71,Al 65,H  72)           87.2881         0.360961   
    695. A(Al 67,Al 65,H  72)           84.2947         0.292051   
    696. A(Al 64,Al 65,H  72)           84.6467         0.292630   
    697. A(Al 61,Al 65,H  72)           78.9410         0.290125   
    698. A(Al 67,Al 65,H  71)           14.4704         0.278785   
    699. A(Al 64,Al 65,H  71)           71.9751         0.279326   
    700. A(Al 61,Al 65,H  71)          150.0106         0.276985   
    701. A(Al 64,Al 65,Al 67)           57.6482         0.231101   
    702. A(Al 61,Al 65,Al 67)          135.9079         0.229353   
    703. A(Al 61,Al 65,Al 64)           80.2481         0.229753   
    704. A(H  83,Al 66,H  85)           87.0905         0.363616   
    705. A(H  81,Al 66,H  85)           82.8620         0.346678   
    706. A(H  70,Al 66,H  85)           83.1231         0.345870   
    707. A(Al 67,Al 66,H  85)           68.9211         0.281568   
    708. A(Al 64,Al 66,H  85)           11.5868         0.277097   
    709. A(Al 63,Al 66,H  85)           74.0699         0.278173   
    710. A(H  81,Al 66,H  83)           92.4379         0.362028   
    711. A(H  70,Al 66,H  83)           93.4231         0.361172   
    712. A(Al 67,Al 66,H  83)           96.3016         0.293039   
    713. A(Al 64,Al 66,H  83)           90.2641         0.288302   
    714. A(Al 63,Al 66,H  83)          100.6980         0.289442   
    715. A(H  70,Al 66,H  81)          164.5032         0.344385   
    716. A(Al 67,Al 66,H  81)          149.8829         0.280454   
    717. A(Al 64,Al 66,H  81)           93.8545         0.276009   
    718. A(Al 63,Al 66,H  81)           12.5624         0.277079   
    719. A(Al 67,Al 66,H  70)           14.7433         0.279854   
    720. A(Al 64,Al 66,Al 67)           57.4528         0.228756   
    721. A(Al 63,Al 66,Al 67)          138.1608         0.229555   
    722. A(Al 63,Al 66,Al 64)           84.3828         0.226292   
    723. A(Al 63,Al 66,H  70)          152.3446         0.276490   
    724. A(Al 64,Al 66,H  70)           71.7954         0.275423   
    725. A(H  85,Al 66,H  90)           91.6887         0.363596   
    726. A(H  81,Al 66,H  90)           86.6855         0.362008   
    727. A(H  70,Al 66,H  90)           87.1502         0.361152   
    728. A(Al 67,Al 66,H  90)           83.9284         0.293024   
    729. A(Al 64,Al 66,H  90)           88.6791         0.288288   
    730. A(Al 63,Al 66,H  90)           78.2533         0.289428   
    731. A(H  70,Al 67,H  71)          113.0599         0.345196   
    732. A(H  69,Al 67,H  71)           86.8742         0.345588   
    733. A(H  68,Al 67,H  71)          123.3965         0.363077   
    734. A(Al 66,Al 67,H  71)          103.9969         0.280384   
    735. A(Al 65,Al 67,H  71)           14.5080         0.279459   
    736. A(Al 64,Al 67,H  71)           75.4825         0.299079   
    737. A(H  69,Al 67,H  70)           86.6963         0.345785   
    738. A(H  68,Al 67,H  70)          122.3151         0.363288   
    739. A(Al 66,Al 67,H  70)           14.7816         0.280531   
    740. A(Al 65,Al 67,H  70)          105.2793         0.279605   
    741. A(Al 64,Al 67,H  70)           76.0973         0.299240   
    742. A(H  68,Al 67,H  69)          106.1846         0.363707   
    743. A(Al 66,Al 67,H  69)           74.0737         0.280823   
    744. A(Al 65,Al 67,H  69)           73.7910         0.279896   
    745. A(Al 64,Al 67,H  69)           20.5995         0.299561   
    746. A(Al 64,Al 67,H  68)          126.7824         0.313913   
    747. A(Al 65,Al 67,Al 66)           94.0179         0.231386   
    748. A(Al 64,Al 67,Al 66)           61.7265         0.246054   
    749. A(Al 64,Al 67,Al 65)           61.1210         0.245294   
    750. A(Al 65,Al 67,H  68)          132.4008         0.292908   
    751. A(Al 66,Al 67,H  68)          132.6065         0.293898   
    752. A(H  48,H  68,Al 67)           94.9339         0.117636   
    753. A(Al 64,H  69,Al 67)          138.7908         0.346347   
    754. A(C  41,H  69,H  48)           21.9528         0.095533   
    755. A(C  41,H  69,Al 67)          124.3399         0.139367   
    756. A(C  41,H  69,Al 64)           96.0278         0.139401   
    757. A(H  48,H  69,Al 67)          103.0491         0.122358   
    758. A(H  48,H  69,Al 64)          117.8129         0.122380   
    759. A(Al 66,H  70,Al 67)          150.4751         0.344487   
    760. A(Al 65,H  71,Al 67)          151.0216         0.344095   
    761. A(Al 61,H  74,Al 65)          153.9699         0.346079   
    762. A(Al 64,H  76,Al 65)          152.4276         0.347058   
    763. A(Al 61,H  77,Al 62)          146.6373         0.341073   
    764. A(H  52,H  77,Al 62)          103.7177         0.119236   
    765. A(H  52,H  77,Al 61)          107.3726         0.119774   
    766. A(Al 62,H  78,Al 64)          158.5143         0.346096   
    767. A(C  43,H  78,H  52)           21.4355         0.094214   
    768. A(O  30,H  78,H  52)           41.2299         0.094419   
    769. A(O  28,H  78,H  52)           98.7424         0.095597   
    770. A(H  52,H  78,Al 64)           96.8487         0.115716   
    771. A(H  52,H  78,Al 62)           97.2413         0.115355   
    772. A(O  30,H  78,C  43)           26.2444         0.099317   
    773. A(O  28,H  78,C  43)           78.8331         0.101559   
    774. A(C  43,H  78,Al 64)           90.2270         0.139863   
    775. A(C  43,H  78,Al 62)          108.4817         0.139177   
    776. A(O  28,H  78,O  30)           58.6887         0.102053   
    777. A(O  30,H  78,Al 64)          106.9873         0.141860   
    778. A(O  30,H  78,Al 62)           94.2834         0.141147   
    779. A(O  28,H  78,Al 64)           93.6112         0.153353   
    780. A(O  28,H  78,Al 62)          100.1758         0.152484   
    781. A(O  28,H  79,O  30)           55.4591         0.099364   
    782. A(O  28,H  79,Al 62)           87.2264         0.137204   
    783. A(O  30,H  79,Al 62)          100.7427         0.150242   
    784. A(Al 62,H  80,Al 63)          147.1931         0.341555   
    785. A(H  53,H  80,Al 63)           81.3766         0.121841   
    786. A(H  53,H  80,Al 62)          124.7480         0.121291   
    787. A(Al 63,H  81,Al 66)          154.8318         0.346405   
    788. A(H  53,H  81,Al 66)          102.3317         0.121384   
    789. A(H  53,H  81,Al 63)           80.9631         0.121537   
    790. A(H  53,H  83,Al 66)           98.7056         0.119586   
    791. A(C  43,H  84,C  47)          111.6953         0.100785   
    792. A(O  17,H  84,C  47)          123.5317         0.101526   
    793. A(O  26,H  84,C  47)           74.9010         0.102082   
    794. A(O  19,H  84,C  47)          131.5524         0.102192   
    795. A(C  41,H  84,C  47)          105.1570         0.102864   
    796. A(O  28,H  84,C  47)           26.0605         0.102446   
    797. A(O  10,H  84,C  47)           74.7189         0.104313   
    798. A(C  47,H  84,Al 64)           95.3555         0.141395   
    799. A(O  30,H  84,C  43)           26.8650         0.101005   
    800. A(O  17,H  84,O  30)          107.1474         0.101761   
    801. A(O  26,H  84,O  30)          131.3035         0.102327   
    802. A(O  19,H  84,O  30)           50.9516         0.102439   
    803. A(O  30,H  84,C  41)          133.1766         0.103124   
    804. A(O  28,H  84,O  30)           59.0028         0.102698   
    805. A(O  10,H  84,O  30)           70.7658         0.104600   
    806. A(O  30,H  84,Al 64)          106.7378         0.142376   
    807. A(O  17,H  84,C  43)           93.3558         0.104684   
    808. A(O  26,H  84,C  43)          139.5675         0.105380   
    809. A(O  19,H  84,C  43)           28.9987         0.105518   
    810. A(C  41,H  84,C  43)          123.2870         0.106359   
    811. A(O  28,H  84,C  43)           85.6566         0.105836   
    812. A(O  10,H  84,C  43)           81.3929         0.108173   
    813. A(O  30,H  84,C  47)           84.9497         0.098588   
    814. A(C  43,H  84,Al 64)          100.7324         0.154603   
    815. A(O  17,H  84,O  26)           55.4791         0.106410   
    816. A(O  17,H  84,O  19)           64.8979         0.106557   
    817. A(O  17,H  84,C  41)           29.9648         0.107451   
    818. A(O  17,H  84,O  28)          129.4338         0.106895   
    819. A(O  10,H  84,O  17)           59.5800         0.109380   
    820. A(O  17,H  84,Al 64)          129.7508         0.158730   
    821. A(O  19,H  84,O  26)          116.8325         0.107336   
    822. A(O  26,H  84,C  41)           30.3080         0.108270   
    823. A(O  26,H  84,O  28)           95.2977         0.107690   
    824. A(O  10,H  84,O  26)           61.3546         0.110284   
    825. A(O  26,H  84,Al 64)          118.7522         0.161826   
    826. A(O  19,H  84,C  41)           94.8221         0.108432   
    827. A(O  19,H  84,O  28)          107.7316         0.107847   
    828. A(O  10,H  84,O  19)           72.5295         0.110463   
    829. A(O  19,H  84,Al 64)          113.9854         0.162438   
    830. A(O  28,H  84,C  41)          123.5368         0.108807   
    831. A(O  10,H  84,C  41)           68.4255         0.111557   
    832. A(C  41,H  84,Al 64)          117.2884         0.166180   
    833. A(O  10,H  84,O  28)           70.3708         0.110877   
    834. A(O  28,H  84,Al 64)           99.7771         0.163854   
    835. A(O  10,H  84,Al 64)          169.8421         0.174246   
    836. A(Al 64,H  85,Al 66)          156.8453         0.347598   
    837. A(H  53,H  85,Al 66)           95.8512         0.117149   
    838. A(H  53,H  85,Al 64)          104.8344         0.117086   
    839. A(Al 60,H  87,Al 61)          139.0638         0.341477   
    840. A(Al 60,H  88,Al 63)          138.7887         0.341376   
    841. A(Al 60,H  89,Al 62)          105.7782         0.339073   
    842. A(Al 60,H  91,Al 62)          105.8724         0.339510   
    843. D(O   7,Zr  2,Zr  1,Zr  4)    -21.4213         0.010000   
    844. D(Zr  5,Zr  2,Zr  1,Zr  4)    101.8531         0.010000   
    845. D(Zr  5,Zr  2,Zr  1,O   7)    123.2744         0.010000   
    846. D(Zr  4,Zr  3,Zr  0,Zr  5)   -103.6733         0.010000   
    847. D(O   6,Zr  3,Zr  0,Zr  5)     22.4830         0.010000   
    848. D(Zr  4,Zr  3,Zr  0,O   6)   -126.1563         0.010000   
    849. D(Zr  1,Zr  4,Zr  3,Zr  0)    105.7691         0.010000   
    850. D(Zr  3,Zr  4,Zr  1,O   7)   -124.5531         0.010000   
    851. D(Zr  3,Zr  4,Zr  1,Zr  2)   -103.2691         0.010000   
    852. D(O   7,Zr  4,Zr  3,Zr  0)     76.1068         0.010000   
    853. D(Zr  1,Zr  4,Zr  3,O   6)     77.5571         0.010000   
    854. D(O   7,Zr  4,Zr  1,Zr  2)     21.2841         0.010000   
    855. D(Zr  0,Zr  5,Zr  2,Zr  1)   -104.5645         0.010000   
    856. D(Zr  0,Zr  5,Zr  2,O   7)    -74.7654         0.010000   
    857. D(Zr  2,Zr  5,Zr  0,Zr  3)    106.9807         0.010000   
    858. D(Zr  2,Zr  5,Zr  0,O   6)    128.9365         0.010000   
    859. D(O   6,Zr  5,Zr  0,Zr  3)    -21.9558         0.010000   
    860. D(O   6,Zr  5,Zr  2,Zr  1)    -77.0646         0.010000   
    861. D(Zr  3,O   6,Zr  5,Zr  0)    132.7031         0.010000   
    862. D(Zr  0,O   6,Zr  5,Zr  2)    -48.1069         0.010000   
    863. D(Zr  5,O   6,Zr  3,Zr  0)   -132.2449         0.010000   
    864. D(Zr  0,O   6,Zr  5,O   8)    -85.6078         0.010000   
    865. D(Zr  3,O   6,Zr  0,O   9)    -21.3881         0.010000   
    866. D(Zr  5,O   6,Zr  0,Zr  3)    143.6496         0.010000   
    867. D(Zr  0,O   6,Zr  3,Zr  4)     49.2110         0.010000   
    868. D(Zr  0,O   6,Zr  3,O   9)     21.5708         0.010000   
    869. D(Zr  3,O   6,Zr  0,Zr  5)   -143.6496         0.010000   
    870. D(Zr  1,O   7,Zr  2,O   8)    -21.1338         0.010000   
    871. D(Zr  4,O   7,Zr  1,Zr  2)   -145.6114         0.010000   
    872. D(Zr  1,O   7,Zr  2,Zr  5)    -52.2259         0.010000   
    873. D(Zr  2,O   7,Zr  1,O   8)     20.7495         0.010000   
    874. D(Zr  2,O   7,Zr  1,Zr  4)    145.6114         0.010000   
    875. D(Zr  1,O   7,Zr  4,Zr  3)     51.6147         0.010000   
    876. D(Zr  2,O   7,Zr  4,Zr  1)   -131.2782         0.010000   
    877. D(Zr  1,O   7,Zr  4,O   9)     87.2787         0.010000   
    878. D(Zr  4,O   7,Zr  2,Zr  1)    131.0646         0.010000   
    879. D(Zr  2,O   8,Zr  5,Zr  0)     51.7365         0.010000   
    880. D(Zr  1,O   8,Zr  5,Zr  2)   -133.9063         0.010000   
    881. D(Zr  1,O   8,Zr  2,O   7)     21.5151         0.010000   
    882. D(Zr  1,O   8,Zr  5,Zr  0)    -82.1698         0.010000   
    883. D(Zr  5,O   8,Zr  2,Zr  1)   -146.1517         0.010000   
    884. D(Zr  1,O   8,Zr  2,Zr  5)    146.1517         0.010000   
    885. D(Zr  5,O   8,Zr  1,Zr  2)    132.2389         0.010000   
    886. D(Zr  2,O   8,Zr  1,Zr  4)    -52.2498         0.010000   
    887. D(Zr  2,O   8,Zr  1,O   7)    -22.0232         0.010000   
    888. D(Zr  4,O   9,Zr  3,Zr  0)    150.0002         0.010000   
    889. D(Zr  4,O   9,Zr  0,Zr  3)   -139.3389         0.010000   
    890. D(Zr  0,O   9,Zr  4,Zr  1)     87.4450         0.010000   
    891. D(Zr  3,O   9,Zr  4,Zr  1)    -51.9606         0.010000   
    892. D(Zr  0,O   9,Zr  3,O   6)    -21.4494         0.010000   
    893. D(Zr  0,O   9,Zr  3,Zr  4)   -150.0002         0.010000   
    894. D(Zr  0,O   9,Zr  4,Zr  3)    139.4056         0.010000   
    895. D(Zr  3,O   9,Zr  0,O   6)     21.5977         0.010000   
    896. D(Zr  3,O   9,Zr  0,Zr  5)     52.1852         0.010000   
    897. D(Zr  1,O  10,Zr  4,O   7)    -26.0875         0.010000   
    898. D(Zr  1,O  10,Zr  4,Zr  3)   -159.4061         0.010000   
    899. D(Zr  4,O  10,Zr  3,Zr  0)    -55.5044         0.010000   
    900. D(Zr  1,O  10,Zr  3,Zr  4)    149.0742         0.010000   
    901. D(Zr  1,O  10,Zr  3,Zr  0)     93.5698         0.010000   
    902. D(Zr  3,O  10,Zr  1,Zr  4)   -148.9972         0.010000   
    903. D(Zr  3,O  10,Zr  1,Zr  2)    -90.6213         0.010000   
    904. D(Zr  3,O  10,Zr  4,Zr  1)    159.4061         0.010000   
    905. D(Zr  4,O  10,Zr  1,Zr  2)     58.3759         0.010000   
    906. D(Zr  2,O  11,Zr  5,Zr  0)   -175.2559         0.010000   
    907. D(Zr  2,O  11,Zr  0,Zr  3)    109.9870         0.010000   
    908. D(Zr  0,O  11,Zr  2,Zr  5)   -171.8552         0.010000   
    909. D(Zr  0,O  11,Zr  2,Zr  1)   -107.1274         0.010000   
    910. D(Zr  5,O  11,Zr  2,Zr  1)     64.7279         0.010000   
    911. D(Zr  0,O  11,Zr  5,Zr  2)    175.2559         0.010000   
    912. D(Zr  0,O  11,Zr  5,O   6)     29.0369         0.010000   
    913. D(Zr  5,O  11,Zr  0,Zr  3)    -61.7877         0.010000   
    914. D(Zr  2,O  11,Zr  0,Zr  5)    171.7747         0.010000   
    915. D(C  36,O  12,Zr  0,Zr  5)     27.4124         0.010000   
[...]
  42   2.0000     -10.040079      -273.2044 
  43   2.0000     -10.039456      -273.1875 
  44   2.0000     -10.037024      -273.1213 
  45   2.0000     -10.036348      -273.1029 
  46   2.0000     -10.034492      -273.0524 
  47   2.0000     -10.033442      -273.0238 
  48   2.0000     -10.032846      -273.0076 
  49   2.0000     -10.032050      -272.9859 
  50   2.0000      -3.978444      -108.2590 
  51   2.0000      -3.972554      -108.0987 
  52   2.0000      -3.963127      -107.8422 
  53   2.0000      -3.954878      -107.6177 
  54   2.0000      -3.954374      -107.6040 
  55   2.0000      -3.953344      -107.5759 
  56   2.0000      -3.953065      -107.5684 
  57   2.0000      -3.952197      -107.5448 
  58   2.0000      -2.586090       -70.3711 
  59   2.0000      -2.585055       -70.3429 
  60   2.0000      -2.581124       -70.2360 
  61   2.0000      -2.579980       -70.2048 
  62   2.0000      -2.579375       -70.1884 
  63   2.0000      -2.575219       -70.0753 
  64   2.0000      -2.571087       -69.9628 
  65   2.0000      -2.570479       -69.9463 
  66   2.0000      -2.564427       -69.7816 
  67   2.0000      -2.562206       -69.7212 
  68   2.0000      -2.561844       -69.7113 
  69   2.0000      -2.561675       -69.7067 
  70   2.0000      -2.561539       -69.7030 
  71   2.0000      -2.561199       -69.6938 
  72   2.0000      -2.561108       -69.6913 
  73   2.0000      -2.560703       -69.6803 
  74   2.0000      -2.560591       -69.6772 
  75   2.0000      -2.559475       -69.6468 
  76   2.0000      -2.558432       -69.6185 
  77   2.0000      -2.557762       -69.6002 
  78   2.0000      -2.557273       -69.5869 
  79   2.0000      -2.555057       -69.5266 
  80   2.0000      -2.553555       -69.4858 
  81   2.0000      -2.553508       -69.4845 
  82   2.0000      -2.051657       -55.8284 
  83   2.0000      -2.051190       -55.8157 
  84   2.0000      -2.051013       -55.8109 
  85   2.0000      -2.050928       -55.8086 
  86   2.0000      -2.050573       -55.7989 
  87   2.0000      -2.050227       -55.7895 
  88   2.0000      -1.234647       -33.5965 
  89   2.0000      -1.231106       -33.5001 
  90   2.0000      -1.230899       -33.4945 
  91   2.0000      -1.229408       -33.4539 
  92   2.0000      -1.228015       -33.4160 
  93   2.0000      -1.227952       -33.4143 
  94   2.0000      -1.225206       -33.3395 
  95   2.0000      -1.224276       -33.3143 
  96   2.0000      -1.223965       -33.3058 
  97   2.0000      -1.223883       -33.3035 
  98   2.0000      -1.223791       -33.3010 
  99   2.0000      -1.221781       -33.2463 
 100   2.0000      -1.220048       -33.1992 
 101   2.0000      -1.219914       -33.1956 
 102   2.0000      -1.219038       -33.1717 
 103   2.0000      -1.218845       -33.1665 
 104   2.0000      -1.218582       -33.1593 
 105   2.0000      -1.218174       -33.1482 
 106   2.0000      -1.001609       -27.2552 
 107   2.0000      -0.999822       -27.2066 
 108   2.0000      -0.998374       -27.1671 
 109   2.0000      -0.997580       -27.1455 
 110   2.0000      -0.996596       -27.1187 
 111   2.0000      -0.996024       -27.1032 
 112   2.0000      -0.992161       -26.9981 
 113   2.0000      -0.991756       -26.9870 
 114   2.0000      -0.989372       -26.9222 
 115   2.0000      -0.988373       -26.8950 
 116   2.0000      -0.987097       -26.8603 
 117   2.0000      -0.986458       -26.8429 
 118   2.0000      -0.920918       -25.0594 
 119   2.0000      -0.919554       -25.0223 
 120   2.0000      -0.918114       -24.9832 
 121   2.0000      -0.917335       -24.9620 
 122   2.0000      -0.916350       -24.9351 
 123   2.0000      -0.915221       -24.9044 
 124   2.0000      -0.912724       -24.8365 
 125   2.0000      -0.912339       -24.8260 
 126   2.0000      -0.910372       -24.7725 
 127   2.0000      -0.909871       -24.7588 
 128   2.0000      -0.907157       -24.6850 
 129   2.0000      -0.906919       -24.6785 
 130   2.0000      -0.828249       -22.5378 
 131   2.0000      -0.819338       -22.2953 
 132   2.0000      -0.818630       -22.2761 
 133   2.0000      -0.809018       -22.0145 
 134   2.0000      -0.808616       -22.0036 
 135   2.0000      -0.805643       -21.9227 
 136   2.0000      -0.562377       -15.3031 
 137   2.0000      -0.559905       -15.2358 
 138   2.0000      -0.558854       -15.2072 
 139   2.0000      -0.556739       -15.1496 
 140   2.0000      -0.556060       -15.1312 
 141   2.0000      -0.554571       -15.0906 
 142   2.0000      -0.553564       -15.0633 
 143   2.0000      -0.551664       -15.0116 
 144   2.0000      -0.547220       -14.8906 
 145   2.0000      -0.546632       -14.8746 
 146   2.0000      -0.544794       -14.8246 
 147   2.0000      -0.544261       -14.8101 
 148   2.0000      -0.512451       -13.9445 
 149   2.0000      -0.483961       -13.1692 
 150   2.0000      -0.473429       -12.8827 
 151   2.0000      -0.473024       -12.8716 
 152   2.0000      -0.471747       -12.8369 
 153   2.0000      -0.469177       -12.7669 
 154   2.0000      -0.468952       -12.7608 
 155   2.0000      -0.468280       -12.7425 
 156   2.0000      -0.467637       -12.7251 
 157   2.0000      -0.466486       -12.6937 
 158   2.0000      -0.463243       -12.6055 
 159   2.0000      -0.462857       -12.5950 
 160   2.0000      -0.462023       -12.5723 
 161   2.0000      -0.460546       -12.5321 
 162   2.0000      -0.459273       -12.4974 
 163   2.0000      -0.457844       -12.4586 
 164   2.0000      -0.457198       -12.4410 
 165   2.0000      -0.456826       -12.4309 
 166   2.0000      -0.456439       -12.4203 
 167   2.0000      -0.455630       -12.3983 
 168   2.0000      -0.451896       -12.2967 
 169   2.0000      -0.443992       -12.0816 
 170   2.0000      -0.443767       -12.0755 
 171   2.0000      -0.443270       -12.0620 
 172   2.0000      -0.442737       -12.0475 
 173   2.0000      -0.442039       -12.0285 
 174   2.0000      -0.441055       -12.0017 
 175   2.0000      -0.428880       -11.6704 
 176   2.0000      -0.422128       -11.4867 
 177   2.0000      -0.419702       -11.4207 
 178   2.0000      -0.418105       -11.3772 
 179   2.0000      -0.417719       -11.3667 
 180   2.0000      -0.415670       -11.3109 
 181   2.0000      -0.410628       -11.1738 
 182   2.0000      -0.408983       -11.1290 
 183   2.0000      -0.408171       -11.1069 
 184   2.0000      -0.407370       -11.0851 
 185   2.0000      -0.402694       -10.9579 
 186   2.0000      -0.402310       -10.9474 
 187   2.0000      -0.401456       -10.9242 
 188   2.0000      -0.398619       -10.8470 
 189   2.0000      -0.397955       -10.8289 
 190   2.0000      -0.389318       -10.5939 
 191   2.0000      -0.371530       -10.1098 
 192   2.0000      -0.370136       -10.0719 
 193   2.0000      -0.365091        -9.9346 
 194   2.0000      -0.365006        -9.9323 
 195   2.0000      -0.364707        -9.9242 
 196   2.0000      -0.357400        -9.7254 
 197   2.0000      -0.356842        -9.7102 
 198   2.0000      -0.356711        -9.7066 
 199   2.0000      -0.342487        -9.3195 
 200   2.0000      -0.339133        -9.2283 
 201   2.0000      -0.338765        -9.2183 
 202   2.0000      -0.333092        -9.0639 
 203   2.0000      -0.332624        -9.0512 
 204   2.0000      -0.330056        -8.9813 
 205   2.0000      -0.328260        -8.9324 
 206   2.0000      -0.328187        -8.9304 
 207   2.0000      -0.327220        -8.9041 
 208   2.0000      -0.322143        -8.7660 
 209   2.0000      -0.321351        -8.7444 
 210   2.0000      -0.320815        -8.7298 
 211   2.0000      -0.313884        -8.5412 
 212   2.0000      -0.310988        -8.4624 
 213   2.0000      -0.310361        -8.4454 
 214   2.0000      -0.306130        -8.3302 
 215   2.0000      -0.305333        -8.3085 
 216   2.0000      -0.301604        -8.2071 
 217   2.0000      -0.300332        -8.1724 
 218   2.0000      -0.299506        -8.1500 
 219   2.0000      -0.299005        -8.1363 
 220   2.0000      -0.298413        -8.1202 
 221   2.0000      -0.298159        -8.1133 
 222   2.0000      -0.297839        -8.1046 
 223   2.0000      -0.294041        -8.0013 
 224   2.0000      -0.293467        -7.9856 
 225   2.0000      -0.289655        -7.8819 
 226   2.0000      -0.288782        -7.8582 
 227   2.0000      -0.288316        -7.8455 
 228   2.0000      -0.286943        -7.8081 
 229   2.0000      -0.285310        -7.7637 
 230   2.0000      -0.284750        -7.7484 
 231   2.0000      -0.283748        -7.7212 
 232   2.0000      -0.283176        -7.7056 
 233   2.0000      -0.282632        -7.6908 
 234   2.0000      -0.281634        -7.6637 
 235   2.0000      -0.281294        -7.6544 
 236   2.0000      -0.280867        -7.6428 
 237   2.0000      -0.280605        -7.6356 
 238   2.0000      -0.277448        -7.5497 
 239   2.0000      -0.275271        -7.4905 
 240   2.0000      -0.275033        -7.4840 
 241   2.0000      -0.274108        -7.4589 
 242   2.0000      -0.273541        -7.4434 
 243   2.0000      -0.273041        -7.4298 
 244   2.0000      -0.272505        -7.4152 
 245   2.0000      -0.271564        -7.3896 
 246   2.0000      -0.271045        -7.3755 
 247   2.0000      -0.270773        -7.3681 
 248   2.0000      -0.270046        -7.3483 
 249   2.0000      -0.269679        -7.3383 
 250   2.0000      -0.267760        -7.2861 
 251   2.0000      -0.267134        -7.2691 
 252   2.0000      -0.266862        -7.2617 
 253   2.0000      -0.266636        -7.2555 
 254   2.0000      -0.265627        -7.2281 
 255   2.0000      -0.264753        -7.2043 
 256   2.0000      -0.259759        -7.0684 
 257   2.0000      -0.258992        -7.0475 
 258   2.0000      -0.255296        -6.9470 
 259   2.0000      -0.234975        -6.3940 
 260   2.0000      -0.234422        -6.3789 
 261   2.0000      -0.230720        -6.2782 
 262   0.0000      -0.122688        -3.3385 
 263   0.0000      -0.120484        -3.2785 
 264   0.0000      -0.094023        -2.5585 
 265   0.0000      -0.091327        -2.4851 
 266   0.0000      -0.090985        -2.4758 
 267   0.0000      -0.089770        -2.4428 
 268   0.0000      -0.088191        -2.3998 
 269   0.0000      -0.084766        -2.3066 
 270   0.0000      -0.083777        -2.2797 
 271   0.0000      -0.082510        -2.2452 
 272   0.0000      -0.076316        -2.0767 
*Only the first 10 virtual orbitals were printed.
-------
TIMINGS
-------

Total SCF time: 0 days 0 hours 0 min 57 sec 

Total time                  ....      57.459 sec
Sum of individual times     ....      53.514 sec  ( 93.1%)

SCF preparation             ....       1.552 sec  (  2.7%)
Fock matrix formation       ....      33.909 sec  ( 59.0%)
  Startup                   ....       0.294 sec  (  0.9% of F)
  Split-RI-J                ....      24.554 sec  ( 72.4% of F)
  XC integration            ....      11.856 sec  ( 35.0% of F)
    XC Preparation          ....       0.000 sec  (  0.0% of XC)
    Basis function eval.    ....       3.504 sec  ( 29.6% of XC)
    Density eval.           ....       3.747 sec  ( 31.6% of XC)
    XC-Functional eval.     ....       0.201 sec  (  1.7% of XC)
    XC-Potential eval.      ....       2.262 sec  ( 19.1% of XC)
Diagonalization             ....       0.000 sec  (  0.0%)
Density matrix formation    ....       1.250 sec  (  2.2%)
Total Energy calculation    ....       0.332 sec  (  0.6%)
Population analysis         ....       0.000 sec  (  0.0%)
Orbital Transformation      ....       2.764 sec  (  4.8%)
Orbital Orthonormalization  ....       0.000 sec  (  0.0%)
DIIS solution               ....       8.883 sec  ( 15.5%)
SOSCF solution              ....       4.824 sec  (  8.4%)
Finished LeanSCF after  58.2 sec

Maximum memory used throughout the entire LEANSCF-calculation: 115.3 MB


           ************************************************************
           *        Program running with 24 parallel MPI-processes    *
           *              working on a common directory               *
           ************************************************************

------------------------------------------------------------------------------
                         ORCA PROPERTY INTEGRAL CALCULATIONS
------------------------------------------------------------------------------

GBWName                                   ... run.gbw
Number of atoms                           ...     92
Number of basis functions                 ...    948
Max core memory                           ...   4096 MB

Dipole integrals                          ... YES
Quadrupole integrals                      ...  NO
Linear momentum integrals                 ...  NO
Angular momentum integrals                ...  NO
Higher moments length integrals           ...  NO
Higher moments velocity integrals         ...  NO
Kinetic energy integrals                  ...  NO
GIAO right hand sides                     ...  NO
GIAO dipole derivative integrals          ...  NO
SOC integrals                             ...  NO
EPR diamagnetic integrals (GIAO)          ...  NO
EPR gauge integrals                       ...  NO
Field gradient integrals                  ...  NO (   0 nuclei)
Spin-dipole/Fermi contact integrals       ...  NO (   0 nuclei)
Contact density integrals                 ...  NO (   0 nuclei)
Nucleus-orbit integrals                   ...  NO (   0 nuclei)
Geometric perturbations                   ... YES (  92 nuclei)

Choice of electric origin   ... Center of mass
Position of electric origin ... (  0.5123,  0.5922, -1.9716) 
Choice of magnetic origin   ... GIAO
Position of magnetic origin ... (  0.0000,  0.0000,  0.0000) 

Calculating integrals                     ... Electric Dipole (Length)     done (  0.2 sec)
Calculating integrals                     ... Geometrical perturbation right hand sides

-----------------------
GEOMETRIC PERTURBATIONS (92 nuclei)
-----------------------

MaxCore                            ...   4096 MB
Number of batches                  ...      2

BATCH   0: Atoms    0 -   58 (177 perturbations)
   => H(core) and overlap derivative integrals     ... done (    10.5 sec)
   => Making and storing internal U-coefficients   ... done (     2.3 sec)
   => RI-J derivative integrals                    ... done (   226.3 sec)
   => RI-J response operators                      ... done (    63.0 sec)
   => ECP derivative integrals                     ... done (  1091.3 sec)
   => XC derivative integrals                      ... done (   347.5 sec)
   => XC response operators                        ... done (   158.8 sec)
   => Completing and storing right hand sides      ... done (     1.1 sec)
BATCH   1: Atoms   59 -   91 ( 99 perturbations)
   => H(core) and overlap derivative integrals     ... done (    10.1 sec)
   => Making and storing internal U-coefficients   ... done (     1.4 sec)
   => RI-J derivative integrals                    ... done (   131.3 sec)
   => RI-J response operators                      ... done (    33.5 sec)
   => ECP derivative integrals                     ... done (   600.1 sec)
   => XC derivative integrals                      ... done (    97.1 sec)
   => XC response operators                        ... done (    63.3 sec)
   => Completing and storing right hand sides      ... done (     0.5 sec)
   => Total time for right hand sides = 2876.0 sec

  geometrical perturbations done (2876.0 sec)

Property integrals calculated in 2876.4 sec

Maximum memory used throughout the entire PROPINT-calculation: 3588.5 MB


-------------------------------------------------------------------------------
                          DFT DISPERSION CORRECTION                            
                                                                               
                              DFTD3 V3.1  Rev 1                                
                          USING Becke-Johnson damping                          
-------------------------------------------------------------------------------
The PBE functional is recognized
Active option DFTDOPT                   ...         4   

molecular C6(AA) [au] = 193327.056456 


            DFT-D V3
 parameters
 s6 scaling factor         :     1.0000 
 a1 scaling factor         :     0.4289 
 s8 scaling factor         :     0.7875 
 a2 scaling factor         :     4.4407 
 ad hoc parameters k1-k3   :    16.0000     1.3333    -4.0000 

 Edisp/kcal,au: -113.490249896629  -0.180858206101 
 E6   /kcal   : -70.801798643 
 E8   /kcal   : -42.688451254 
 % E8         :  37.614201478 

-------------------------   ----------------
Dispersion correction           -0.180858206
-------------------------   ----------------

NOTIFICATION: Different basis set in ORCA and otool_gcp:
ORCA: 948  gCP: 990 
If you are NOT using ECPs, check your basis set inputs!
------------------   -----------------
gCP correction             0.446510277
------------------   -----------------

-------------------------   --------------------
FINAL SINGLE POINT ENERGY     -4952.467984959974
-------------------------   --------------------

                                *** OPTIMIZATION RUN DONE ***



           ************************************************************
           *        Program running with 24 parallel MPI-processes    *
           *              working on a common directory               *
           ************************************************************
------------------------------------------------------------------------------
                            ORCA SCF RESPONSE CALCULATION
------------------------------------------------------------------------------

GBWName                                 ... run.gbw
Number of atoms                         ...     92
Number of basis functions               ...    948
Max core memory                         ...   4096 MB

Electric field perturbation             ...  NO
Quadrupolar field perturbation          ...  NO
Magnetic field perturbation (no GIAO)   ...  NO
Magnetic field perturbation (with GIAO) ...  NO
Linear momentum (velocity) perturbation ...  NO
Spin-orbit coupling perturbation        ...  NO
Choice of electric origin               ... Center of mass
Position of electric origin             ...     0.512276     0.592184    -1.971560
Choice of magnetic origin               ... GIAO
Position of magnetic origin             ...     0.000000     0.000000     0.000000
Nuclear geometric perturbations         ... YES ( 276 perturbations)
Nucleus-orbit perturbations             ...  NO (   0 perturbations)
Spin-dipole/Fermi contact perturbations ...  NO (   0 perturbations)

Total number of real perturbations      ...    276
Total number of imaginary perturbations ...      0
Total number of triplet perturbations   ...      0
Total number of SOC perturbations       ...      0

Using XC Grid                  ... (run.grid_cpscf.tmp) 
Recalculating density on grid  ... (run.grho_cpscf0.tmp) done
Calculating the xc-kernel      ... (run.fxc_cpscf0.tmp) done

                                **********************
                                * REAL PERTURBATIONS *
                                **********************



-------------------
SHARK CP-SCF DRIVER
-------------------

Dimension of the orbital basis          ...    948
Dimension of the CPSCF-problem          ... 179732
Number of operators                     ...      1
Max. number of iterations               ...    128
Convergence Tolerance                   ... 1.0e-03
Number of perturbations                 ...    276
Perturbation type                       ... REAL

----------------------------
POPLE LINEAR EQUATION SOLVER
----------------------------

  ITERATION   0: 
ORCA finished by error termination in SCF RESPONSE
Calling Command: mpirun -np 24  /home/mehlhorn/programs/orca6/orca_scfresp_mpi run.respinp.tmp run 1 run 
[file orca_tools/qcmsg.cpp, line 394]: 
  .... aborting the run

