
                                 *****************
                                 * O   R   C   A *
                                 *****************

                                            #,                                       
                                            ###                                      
                                            ####                                     
                                            #####                                    
                                            ######                                   
                                           ########,                                 
                                     ,,################,,,,,                         
                               ,,#################################,,                 
                          ,,##########################################,,             
                       ,#########################################, ''#####,          
                    ,#############################################,,   '####,        
                  ,##################################################,,,,####,       
                ,###########''''           ''''###############################       
              ,#####''   ,,,,##########,,,,          '''####'''          '####       
            ,##' ,,,,###########################,,,                        '##       
           ' ,,###''''                  '''############,,,                           
         ,,##''                                '''############,,,,        ,,,,,,###''
      ,#''                                            '''#######################'''  
     '                                                          ''''####''''         
             ,#######,   #######,   ,#######,      ##                                
            ,#'     '#,  ##    ##  ,#'     '#,    #''#        ,####,    ,#,          
            ##       ##  ##   ,#'  ##            #'  '#       #'       ,# #          
            ##       ##  #######   ##           ,######,      #####,      #          
            '#,     ,#'  ##    ##  '#,     ,#' ,#      #,     #,   #      #          
             '#######'   ##     ##  '#######'  #'      '#     '####' #    #          



                #########################################################
                #                        -***-                          #
                #          Department of theory and spectroscopy        #
                #                                                       #
                #                      Frank Neese                      #
                #                                                       #
                #     Directorship, Architecture, Infrastructure        #
                #                    SHARK, DRIVERS                     #
                #        Core code/Algorithms in most modules           #
                #                                                       #
                #        Max Planck Institute fuer Kohlenforschung      #
                #                Kaiser Wilhelm Platz 1                 #
                #                 D-45470 Muelheim/Ruhr                 #
                #                      Germany                          #
                #                                                       #
                #                  All rights reserved                  #
                #                        -***-                          #
                #########################################################


                         Program Version 6.1.0  -  RELEASE   -
                                (GIT: $679e74b$)
                          ($2025-06-10 18:02:51 +0200$)


 With contributions from (in alphabetic order):
[Max-Planck-Institut fuer Kohlenforschung]                               
  Daniel Aravena         : Magnetic Suceptibility                        
  Michael Atanasov       : Ab Initio Ligand Field Theory (pilot matlab implementation)
  Alexander A. Auer      : GIAO ZORA, VPT2 properties, NMR spectrum      
  Ute Becker             : All parallelization in ORCA, NUMFREQ, NUMCALC 
  Giovanni Bistoni       : ED, misc. LED, open-shell LED, HFLD           
  Dmytro Bykov           : pre 5.0 version of the SCF Hessian            
  Marcos Casanova-Páez   : Triplet and SCS-CIS(D). UHF-(DLPNO)-IP/EA/STEOM-CCSD. UHF-CVS-IP/STEOM-CCSD   
  Vijay G. Chilkuri      : MRCI spin determinant printing, contributions to CSF-ICE 
  Pauline Colinet        : FMM embedding                                 
  Dipayan Datta          : RHF DLPNO-CCSD density                        
  Achintya Kumar Dutta   : EOM-CC, STEOM-CC                              
  Nicolas Foglia         : Exact transition moments, OPA infrastructure, MCD improvements    
  Dmitry Ganyushin       : Spin-Orbit,Spin-Spin,Magnetic field MRCI      
  Miquel Garcia-Rates    : C-PCM and meta-GGA Hessian, CCSD/C-PCM, Gaussian charge scheme 
  Tiago L. C. Gouveia    : GS-ROHF, GS-ROCIS                             
  Yang Guo               : DLPNO-NEVPT2, F12-NEVPT2, CIM, IAO-localization        
  Andreas Hansen         : Spin unrestricted coupled pair/coupled cluster methods 
  Ingolf Harden          : AUTO-CI MPn and infrastructure                
  Benjamin Helmich-Paris : MC-RPA, TRAH-(SCF,CASSCF), AVAS, COSX integrals, SCF dyn. polar., MC-PDFT, srDFT 
  Lee Huntington         : MR-EOM, pCC                                   
  Robert Izsak           : Overlap fitted RIJCOSX, COSX-SCS-MP3, EOM     
  Riya Kayal             : Wick's Theorem for AUTO-CI, AUTO-CI UHF-CCSDT 
  Emily Kempfer          : AUTO-CI RHF CISDT and CCSDT, approximate NEVPT4
  Christian Kollmar      : KDIIS, OOCD, Brueckner-CCSD(T), CCSD density, CASPT2, CASPT2-K, improved NEVPT2 
  Axel Koslowski         : Symmetry handling                             
  Simone Kossmann        : meta-GGA functionals, TD-DFT gradient, OOMP2, (MP2 Hessian; deprecated post 5.0) 
  Lucas Lang             : DCDCAS, Hyperfine gauge corrections, ICE-SOC+SSC
  Marvin Lechner         : AUTO-CI (C++ implementation), FIC-MRCC        
  Spencer Leger          : CASSCF response                               
  Dagmar Lenk            : GEPOL surface, SMD, ORCA-2-JSON               
  Dimitrios Liakos       : Extrapolation schemes; Compound Job, Property file
  Dimitrios Manganas     : Further ROCIS development; embedding schemes. LFT, Crystal Embedding 
  Dimitrios Pantazis     : SARC Basis sets                               
  Anastasios Papadopoulos: AUTO-CI, single reference methods and gradients 
  Taras Petrenko         : pre 6.0 DFT Hessian and TD-DFT gradient,  ECA, NRVS 
  Petra Pikulova         : Analytic Raman intensities                    
  Peter Pinski           : DLPNO-MP2, DLPNO-MP2 Gradient                 
  Shashank Vittal Rao    : ES-AILFT, MagRelax                            
  Christoph Reimann      : Effective Core Potentials                     
  Marius Retegan         : Local ZFS, SOC                                
  Christoph Riplinger    : Optimizer, TS searches, QM/MM, DLPNO-CCSD(T), (RO)-DLPNO pert. Triples 
  Michael Roemelt        : Original ROCIS implementation, recursive CI coupling coefficients
  Masaaki Saitow         : Open-shell DLPNO-CCSD energy and density      
  Barbara Sandhoefer     : DKH picture change effects                    
  Yorick L. A. Schmerwitz: GMF and freeze-and-release deltaSCF, NEB S-IDPP initial path                    
  Kantharuban Sivalingam : CASSCF convergence/infrastructure, NEVPT2, NEVPT3, NEVPT4(SD), FIC-MRCI and CEPA variants
  Bernardo de Souza      : ESD, SOC TD-DFT                               
  Georgi L. Stoychev     : AutoAux, RI-MP2 NMR, DLPNO-MP2 response, X2C  
  Van Anh Tran           : RI-MP2 g-tensors                              
  Willem Van den Heuvel  : Paramagnetic NMR                              
  Zikuan Wang            : NOTCH, Electric field optimization            
  Frank Wennmohs         : Technical directorship and infrastructure     
  Hang Xu                : AUTO-CI-Response properties                   
                                                                         
[FACCTs GmbH]                                                            
  Markus Bursch, Nicolas Foglia, Miquel Garcia-Rates, Ingolf Harden, Hagen Neugebauer, Anastasios Papadopoulos, 
  Christoph Riplinger, Bernardo de Souza, Georgi L. Stoychev                                                    
                                                                 
  APM, various basis sets, CI-OPT, improved COSX, DLPNO-Multilevel,           
  DOCKER, DRACO, updates on ESD, Fragmentator, GOAT, IRC, LR-CPCM, L-BFGS, MBIS, meta-GGA TD-DFT gradient, ML-optimized integration grids, 
  MM, NACMEs, nearIR, NEB, NEB-TS, NL-DFT gradient (VV10), 2- and 3-layer-ONIOM, interface openCOSMO-RS, QMMM,   
  Crystal-QMMM, RESP, rigid body optimization, SF, symmetry and pop. for TD-DFT, various functionals, SOLVATOR                                   
                                                                         
[Other institutions]                                                     
  V. Asgeirsson          : NEB                                           
  Christoph Bannwarth    : sTDA-DFT, sTD-DFT, PBEh-3c, B97-3c, D3        
  Giovanni Bistoni       : ETS/NOCV, ADLD/ADEX, COVALED                  
  Martin Brehm           : Molecular dynamics                            
  Ronald Cardenas        : ETS/NOCV                                      
  Martina Colucci        : COVALED                                       
  Sebastian Ehlert       : rSCAN, r2SCAN, r2SCAN-3c, D4, dhf basis sets  
  Marvin Friede          : D4 for Fr, Ra, Ac-Lr                          
  Lars Goerigk           : TD-DFT with DH, B97 family of functionals     
  Stefan Grimme          : VdW corrections, initial TS optimization, DFT functionals, gCP, sTDA/sTD-DF 
  Waldemar Hujo          : DFT-NL                                        
  H. Jonsson             : NEB                                           
  Holger Kruse           : gCP                                           
  Marcel Mueller         : wB97X-3c, vDZP basis set                      
  Hagen Neugebauer       : wr2SCAN, Native XTB                           
  Gianluca Regni         : ADLD/ADEX                                     
  Tobias Risthaus        : pre 6.0 range-separated hybrid DFT and stability analysis
  Lukas Wittmann         : regularized MP2, r2SCAN double-hybrids, wr2SCAN        
                                                                         
We gratefully acknowledge several colleagues who have allowed us to      
interface, adapt or use parts of their codes:                            
  Ed Valeev, F. Pavosevic, A. Kumar             : LibInt (2-el integral package), F12 methods 
  Garnet Chan, S. Sharma, J. Yang, R. Olivares  : DMRG                   
  Ulf Ekstrom                                   : XCFun DFT Library      
  Mihaly Kallay                                 : mrcc  (arbitrary order and MRCC methods)
  Frank Weinhold                                : gennbo (NPA and NBO analysis)           
  Simon Mueller                                 : openCOSMO-RS                            
  Christopher J. Cramer and Donald G. Truhlar   : smd solvation model                     
  S Lehtola, MJT Oliveira, MAL Marques          : LibXC Library                           
  Liviu Ungur et al                             : ANISO software                          


 Your calculation uses the libint2 library for the computation of 2-el integrals
 For citations please refer to: http://libint.valeyev.net

 Your ORCA version has been built with support for libXC version: 7.0.0
 For citations please refer to: https://libxc.gitlab.io

 This ORCA versions uses:
   CBLAS   interface :  Fast vector & matrix operations
   LAPACKE interface :  Fast linear algebra routines
   SCALAPACK package :  Parallel linear algebra routines
   Shared memory     :  Shared parallel matrices
   BLAS/LAPACK       :  OpenBLAS 0.3.29  USE64BITINT DYNAMIC_ARCH NO_AFFINITY Bulldozer SINGLE_THREADED
        Core in use  :  Bulldozer
   Copyright (c) 2011-2014, The OpenBLAS Project


  ***********************************
  * Starting time: Fri Aug  8 18:08:25 2025
  * Host name:     chromium05
  * Process ID:    186608
  * Working dir.:  /local/scratch/mehlhorn/61812
  ***********************************



***************************************
The coordinates will be read from file: start.xyz
***************************************


Your calculation utilizes the geometrical counterpoise correction gCP
Please cite in your paper:
H.Kruse, S. Grimme J.Chem.Phys., 136, (2012), 154101 
   

Your calculation utilizes the atom-pairwise dispersion correction
with the Becke-Johnson damping scheme (D3BJ)


Warning: RI is on but no J-basis has been assigned. Assigning Def2/J (nothing to worry about!)
================================================================================

cite the ECPs for Zr [Def2-ECP] as follows:
Ce-Yb(ecp-28): M. Dolg, H. Stoll, H.Preuss, J. Chem. Phys., 1989, 90, 1730-1734.
Y-Cd(ecp-28), Hf-Hg(ecp-46): D. Andrae,U. Haeussermann, M. Dolg, H. Stoll, H. Preuss, Theor. Chim. Acta, 1990, 77, 123-141.
In-Sb(ecp-28), Tl-Bi(ecp-46): B. Metz, H. Stoll, M. Dolg, J. Chem. Phys., 2000, 113, 2563-2569.
Te-Xe(ecp-28), Po-Rn(ecp-46): K. A. Peterson, D. Figgen, E. Goll, H. Stoll, M. Dolg, J. Chem. Phys., 2003, 119, 11113-11123.
Rb(ecp-28), Cs(ecp-46): T. Leininger, A. Nicklass, W. Kuechle, H. Stoll, M. Dolg, A. Bergner, Chem. Phys. Lett., 1996, 255, 274-280.
Sr(ecp-28), Ba(ecp-46): M. Kaupp, P. V. Schleyer, H. Stoll and H. Preuss, J. Chem. Phys., 1991, 94, 1360-1366.
La(ecp-46): M. Dolg, H. Stoll, A. Savin, H. Preuss, Theor. Chim. Acta, 1989, 75, 173-194.
Lu(ecp-28): X. Cao, M. Dolg, J. Chem. Phys., 2001, 115, 7348-7355.

ECP parameters for Zr [Def2-ECP] have been obtained from:
TURBOMOLE (7.0.2)

----- Orbital basis set information -----
Your calculation utilizes the basis: def2-SV(P)
   F. Weigend and R. Ahlrichs, Phys. Chem. Chem. Phys. 7, 3297 (2005).

----- AuxJ basis set information -----
Your calculation utilizes the auxiliary basis: def2/J
   H-Rn: F. Weigend, Phys. Chem. Chem. Phys. 8, 1057 (2006).
   Fr-Lr: K. Eichkorn, F. Weigend, O. Treutler, R. Ahlrichs; Theor. Chem. Acc. 97, 119 (1997).

================================================================================
                                        WARNINGS
                       Please study these warnings very carefully!
================================================================================


WARNING: Gradients are needed
  ===> : At least TightSCF should be used for SCF convergence

WARNING: Geometry Optimization
  ===> : Switching off AutoStart
         For restart on a previous wavefunction, please use MOREAD

================================================================================
                                       INPUT FILE
================================================================================
NAME = run.inp
|  1> # Geometry optimization for (AlH3)n cluster
|  2> 
|  3> %pal nprocs 24  end
|  4> 
|  5> %geom MaxIter 500 end
|  6> 
|  7> 
|  8> ! PBE def2-SV(P)
|  9> ! RKS	# closed shell for AlH3
| 10> ! D3    #  dispersion correction
| 11> ! gCP(DFT/SV(P))
| 12> ! Freq 	# Frequency analysis to check the stabiltity of the structures
| 13> 
| 14> ! NoPop # population analysis not necessary	
| 15> 
| 16> ! DEFGRID2
| 17> ! NormalSCF
| 18> ! SloppyOpt
| 19> 
| 20> ! SmallPrint
| 21> 
| 22> 
| 23> * xyzFile 0 1 start.xyz # only maingroup elements H and Al so there should be no net spin
| 24> 
| 25>                          ****END OF INPUT****
================================================================================

                       *****************************
                       * Geometry Optimization Run *
                       *****************************

Geometry optimization settings:
Update method            Update   .... BFGS
Choice of coordinates    CoordSys .... (2022) Redundant Internals
Initial Hessian          InHess   .... Almloef's Model
Max. no of cycles        MaxIter  .... 500

Convergence Tolerances:
Energy Change            TolE     ....  8.0000e-05 Eh
Max. Gradient            TolMAXG  ....  5.0000e-03 Eh/bohr
RMS Gradient             TolRMSG  ....  1.0000e-03 Eh/bohr
Max. Displacement        TolMAXD  ....  3.0000e-02 bohr
RMS Displacement         TolRMSD  ....  2.0000e-02 bohr
Strict Convergence                .... False

------------------------------------------------------------------------------
                        ORCA OPTIMIZATION COORDINATE SETUP
------------------------------------------------------------------------------

The optimization will be done in redundant internal coordinates (2022)
Making redundant internal coordinates   ...  (2022 redundants) done
Evaluating the initial hessian          ...  (Almloef) done
Evaluating the coordinates              ...  done
Calculating the B-matrix                .... done
Calculating the G-matrix                .... done
The number of degrees of freedom        ....  807

    -----------------------------------------------------------------
                    Redundant Internal Coordinates


    -----------------------------------------------------------------
         Definition                    Initial Value    Approx d2E/dq
    -----------------------------------------------------------------
      1. B(Zr  2,Zr  1)                  3.4165         0.037398   
      2. B(Zr  3,Zr  0)                  3.4187         0.037098   
      3. B(Zr  4,Zr  3)                  3.3787         0.042962   
      4. B(Zr  4,Zr  1)                  3.4307         0.035497   
      5. B(Zr  5,Zr  2)                  3.3711         0.044179   
      6. B(Zr  5,Zr  0)                  3.4318         0.035348   
      7. B(O   6,Zr  3)                  2.1748         0.316861   
      8. B(O   6,Zr  0)                  2.1530         0.343328   
      9. B(O   6,Zr  5)                  2.1688         0.323900   
     10. B(O   7,Zr  2)                  2.1762         0.315215   
     11. B(O   7,Zr  1)                  2.1524         0.344022   
     12. B(O   7,Zr  4)                  2.1683         0.324600   
     13. B(O   8,Zr  5)                  2.1240         0.381916   
     14. B(O   8,Zr  2)                  2.1048         0.409863   
     15. B(O   8,Zr  1)                  2.0723         0.461727   
     16. B(O   9,Zr  4)                  2.1297         0.373943   
     17. B(O   9,Zr  3)                  2.1019         0.414225   
     18. B(O   9,Zr  0)                  2.0752         0.456916   
     19. B(O  10,Zr  1)                  2.0901         0.432489   
     20. B(O  10,Zr  3)                  2.1487         0.348710   
     21. B(O  10,Zr  4)                  2.0860         0.439121   
     22. B(O  11,Zr  0)                  2.0925         0.428824   
     23. B(O  11,Zr  2)                  2.1526         0.343851   
     24. B(O  11,Zr  5)                  2.0819         0.445852   
     25. B(O  12,Zr  0)                  1.9777         0.653767   
     26. B(O  13,Zr  0)                  1.9724         0.666490   
     27. B(O  14,Zr  0)                  2.0652         0.474040   
     28. B(O  15,Zr  0)                  2.0717         0.462875   
     29. B(O  16,Zr  1)                  2.0649         0.474494   
     30. B(O  17,Zr  1)                  2.0623         0.479062   
     31. B(O  18,Zr  1)                  1.9708         0.670433   
     32. B(O  19,Zr  1)                  1.9817         0.644031   
     33. B(O  20,Zr  2)                  1.9903         0.624117   
     34. B(O  21,Zr  2)                  2.0715         0.463078   
     35. B(O  22,Zr  2)                  1.9777         0.653592   
     36. B(O  23,Zr  2)                  2.0137         0.572654   
     37. B(O  24,Zr  3)                  2.0097         0.581168   
     38. B(O  25,Zr  3)                  1.9747         0.660840   
     39. B(O  26,Zr  3)                  2.0754         0.456497   
     40. B(O  27,Zr  3)                  1.9908         0.622891   
     41. B(O  28,Zr  4)                  1.9945         0.614586   
     42. B(O  29,Zr  4)                  2.0704         0.464944   
     43. B(O  30,Zr  4)                  1.9867         0.632341   
     44. B(O  31,Zr  4)                  1.9916         0.621201   
     45. B(O  32,Zr  5)                  1.9885         0.628287   
     46. B(O  33,Zr  5)                  1.9822         0.643074   
     47. B(O  34,Zr  5)                  2.0754         0.456552   
     48. B(O  35,Zr  5)                  1.9956         0.612035   
     49. B(C  36,O  33)                  1.3005         0.777488   
     50. B(C  36,O  12)                  1.3007         0.776944   
     51. B(C  37,O  25)                  1.2992         0.781203   
     52. B(C  37,O  13)                  1.2991         0.781412   
     53. B(C  38,O  14)                  1.2995         0.780413   
     54. B(C  38,O  21)                  1.2979         0.784977   
     55. B(C  39,O  29)                  1.2970         0.787494   
     56. B(C  39,O  15)                  1.2978         0.785158   
     57. B(C  40,O  34)                  1.2968         0.788030   
     58. B(C  40,O  16)                  1.2975         0.786164   
     59. B(C  41,O  26)                  1.2982         0.784020   
     60. B(C  41,O  17)                  1.3001         0.778627   
     61. B(C  42,O  22)                  1.2986         0.782825   
     62. B(C  42,O  18)                  1.2987         0.782675   
     63. B(C  43,O  19)                  1.3010         0.775999   
     64. B(C  43,O  30)                  1.3008         0.776492   
     65. B(C  44,O  35)                  1.3016         0.774209   
     66. B(C  44,O  20)                  1.3022         0.772736   
     67. B(C  45,O  31)                  1.2947         0.794045   
     68. B(C  45,O  23)                  1.2949         0.793473   
     69. B(C  46,O  32)                  1.2946         0.794332   
     70. B(C  46,O  24)                  1.2947         0.794173   
     71. B(C  47,O  28)                  1.3018         0.773811   
     72. B(C  47,O  27)                  1.3022         0.772664   
     73. B(H  48,C  41)                  1.0866         0.364648   
     74. B(H  49,C  42)                  1.0900         0.360073   
     75. B(H  50,C  38)                  1.0862         0.365195   
     76. B(H  51,C  37)                  1.0903         0.359659   
     77. B(H  52,C  43)                  1.0913         0.358431   
     78. B(H  53,C  47)                  1.0924         0.356877   
     79. B(H  54,C  39)                  1.0852         0.366530   
     80. B(H  55,C  45)                  1.0862         0.365184   
     81. B(H  56,C  40)                  1.0850         0.366769   
     82. B(H  57,C  46)                  1.0860         0.365397   
     83. B(H  58,C  36)                  1.0910         0.358815   
     84. B(H  59,C  44)                  1.0924         0.356936   
     85. B(Al 61,Al 60)                  2.7333         0.220663   
     86. B(H  62,Al 61)                  1.6718         0.297711   
     87. B(H  63,H  57)                  2.5483         0.010000   
     88. B(H  63,Al 61)                  1.6090         0.374965   
     89. B(H  64,H  57)                  2.6865         0.010000   
     90. B(H  64,Al 61)                  1.6740         0.295295   
     91. B(H  64,Al 60)                  1.6760         0.293103   
     92. B(H  65,O  32)                  2.6653         0.010000   
     93. B(H  65,O  33)                  2.5663         0.010000   
     94. B(H  65,Al 60)                  1.6105         0.372872   
     95. B(H  66,O  33)                  2.9309         0.010000   
     96. B(H  66,H  58)                  2.9016         0.010000   
     97. B(H  66,Al 60)                  1.6749         0.294278   
     98. B(H  67,Al 61)                  1.6122         0.370572   
     99. B(Al 68,H  66)                  1.6739         0.295415   
    100. B(Al 68,H  62)                  1.6741         0.295209   
    101. B(Al 68,Al 61)                  2.7237         0.228599   
    102. B(Al 68,Al 60)                  2.7295         0.223763   
    103. B(H  69,Al 68)                  1.6094         0.374370   
    104. B(H  70,O  32)                  2.9841         0.010000   
    105. B(H  70,O  24)                  2.9398         0.010000   
    106. B(H  70,C  46)                  2.9299         0.010000   
    107. B(H  70,O  13)                  2.9108         0.010000   
    108. B(H  70,C  36)                  2.7774         0.010000   
    109. B(H  70,C  37)                  2.6396         0.010000   
    110. B(H  70,O  25)                  2.6237         0.010000   
    111. B(H  70,O  33)                  2.5628         0.010000   
    112. B(H  70,O   6)                  2.3044         0.010000   
    113. B(H  70,Al 68)                  1.6050         0.380545   
    114. B(H  71,Al 60)                  1.6093         0.374490   
    115. A(Zr  3,Zr  0,Zr  5)           70.6272         0.246619   
    116. A(O   6,Zr  0,O  11)           68.0499         0.455097   
    117. A(O   6,Zr  0,O   9)           67.7406         0.460393   
    118. A(Zr  3,Zr  0,O   6)           38.0456         0.324531   
    119. A(Zr  5,Zr  0,O  14)          101.3301         0.339616   
    120. A(O  12,Zr  0,O  14)           82.2208         0.522271   
    121. A(Zr  5,Zr  0,O  13)          114.8464         0.359708   
    122. A(Zr  5,Zr  0,O  15)          153.7193         0.338267   
    123. A(O  11,Zr  0,O  14)           70.8777         0.482828   
    124. A(O   9,Zr  0,O  12)          155.1436         0.518678   
    125. A(Zr  5,Zr  0,O   6)           37.5935         0.321968   
    126. A(O  11,Zr  0,O  12)           84.1141         0.512551   
    127. A(O  11,Zr  0,O  13)          149.4371         0.514403   
    128. A(O   9,Zr  0,O  11)           86.0045         0.479563   
    129. A(O  12,Zr  0,O  13)           84.3811         0.557007   
    130. A(O  14,Zr  0,O  15)           77.1369         0.489699   
    131. A(O   6,Zr  0,O  12)           87.4077         0.491762   
    132. A(Zr  3,Zr  0,O  11)           89.3408         0.336689   
    133. A(Zr  3,Zr  0,O  12)          121.6844         0.361495   
    134. A(O   6,Zr  0,O  13)           83.2281         0.493523   
    135. A(O  12,Zr  0,O  15)          132.6226         0.519940   
    136. A(O  13,Zr  0,O  15)           81.1177         0.521824   
    137. A(O   6,Zr  0,O  14)          138.4169         0.463498   
    138. A(Zr  5,Zr  0,O  11)           34.6004         0.333993   
    139. A(O  13,Zr  0,O  14)          134.9899         0.524165   
    140. A(Zr  3,Zr  0,O  13)           73.0144         0.362686   
    141. A(Zr  3,Zr  0,O  15)           96.5153         0.341010   
    142. A(Zr  5,Zr  0,O  12)           71.9794         0.358530   
    143. A(O  11,Zr  0,O  15)          126.5205         0.480710   
    144. A(Zr  5,Zr  0,O   9)           87.0687         0.337537   
    145. A(O   9,Zr  0,O  14)          115.7801         0.488525   
    146. A(Zr  3,Zr  0,O  14)          147.9145         0.342373   
    147. A(O   6,Zr  0,O  15)          134.5596         0.461483   
    148. A(O   9,Zr  0,O  13)           92.8109         0.520556   
    149. A(O   9,Zr  0,O  15)           70.7480         0.486376   
    150. A(Zr  3,Zr  0,O   9)           35.3289         0.340272   
    151. A(Zr  2,Zr  1,O  16)           95.4093         0.342890   
    152. A(O   7,Zr  1,O  18)           81.9038         0.494248   
    153. A(Zr  2,Zr  1,O  18)           73.6508         0.363552   
    154. A(O   8,Zr  1,O  16)           70.9380         0.489560   
    155. A(O   7,Zr  1,O  16)          133.4893         0.463751   
    156. A(O  10,Zr  1,O  16)          128.0706         0.483673   
    157. A(Zr  4,Zr  1,O   8)           86.4410         0.338365   
    158. A(O   8,Zr  1,O  10)           84.8700         0.481244   
    159. A(Zr  4,Zr  1,O  17)          102.1983         0.340454   
    160. A(Zr  2,Zr  1,O  10)           89.0364         0.337619   
    161. A(O  16,Zr  1,O  18)           81.6319         0.524841   
    162. A(Zr  4,Zr  1,O  19)           71.5888         0.357873   
    163. A(O  17,Zr  1,O  19)           82.3510         0.521833   
    164. A(Zr  4,Zr  1,O  16)          154.5336         0.339910   
    165. A(O  10,Zr  1,O  17)           71.3195         0.484530   
    166. A(Zr  4,Zr  1,O   7)           37.5985         0.322298   
    167. A(O   7,Zr  1,O  17)          139.1141         0.464564   
    168. A(O  16,Zr  1,O  17)           77.5810         0.492916   
    169. A(O   7,Zr  1,O  19)           87.9194         0.490580   
    170. A(Zr  2,Zr  1,O  19)          122.8470         0.361067   
    171. A(O   8,Zr  1,O  18)           95.2832         0.522159   
    172. A(O   7,Zr  1,O  10)           68.1224         0.455970   
    173. A(O  17,Zr  1,O  18)          135.5913         0.525787   
    174. A(O  10,Zr  1,O  18)          147.5730         0.515792   
    175. A(O   8,Zr  1,O  17)          113.8175         0.490430   
    176. A(Zr  4,Zr  1,O  18)          112.8488         0.360329   
    177. A(O   8,Zr  1,O  19)          155.4299         0.518237   
    178. A(Zr  2,Zr  1,O   8)           35.4380         0.341327   
    179. A(Zr  2,Zr  1,O   7)           38.1285         0.325069   
    180. A(Zr  4,Zr  1,O  10)           34.7254         0.334701   
    181. A(O   7,Zr  1,O   8)           67.6950         0.461444   
    182. A(O  16,Zr  1,O  19)          132.6710         0.520895   
    183. A(Zr  2,Zr  1,O  17)          146.6182         0.343441   
    184. A(Zr  2,Zr  1,Zr  4)           70.5410         0.247057   
    185. A(O  18,Zr  1,O  19)           83.7069         0.556044   
    186. A(O  10,Zr  1,O  19)           83.1456         0.511929   
    187. A(Zr  1,Zr  2,O  23)          109.7465         0.353929   
    188. A(O   7,Zr  2,O   8)           66.6943         0.444429   
    189. A(O   7,Zr  2,O  22)           77.9699         0.484025   
    190. A(Zr  5,Zr  2,O  23)          144.9219         0.364111   
    191. A(O  20,Zr  2,O  22)           82.0281         0.550073   
    192. A(Zr  5,Zr  2,O   8)           37.3349         0.344054   
    193. A(Zr  1,Zr  2,Zr  5)           71.6482         0.255082   
    194. A(O  21,Zr  2,O  23)           74.3948         0.507252   
    195. A(Zr  1,Zr  2,O  21)          159.5844         0.341494   
    196. A(O  11,Zr  2,O  21)           68.8132         0.461649   
    197. A(Zr  5,Zr  2,O  21)           93.3791         0.351199   
    198. A(Zr  5,Zr  2,O  22)          127.9464         0.372468   
    199. A(O   8,Zr  2,O  21)          130.4051         0.476759   
    200. A(Zr  1,Zr  2,O   8)           34.8121         0.334614   
    201. A(O   8,Zr  2,O  22)           98.2568         0.508212   
    202. A(O   8,Zr  2,O  20)           84.8398         0.503857   
    203. A(Zr  5,Zr  2,O  11)           36.5170         0.334115   
    204. A(O  11,Zr  2,O  22)          163.1662         0.491876   
    205. A(Zr  1,Zr  2,O  22)           74.0674         0.361976   
    206. A(O   8,Zr  2,O  23)          138.2925         0.495854   
    207. A(O  20,Zr  2,O  21)           81.4391         0.515479   
    208. A(O  20,Zr  2,O  23)          136.1509         0.536481   
    209. A(O  21,Zr  2,O  22)          126.2674         0.519956   
    210. A(O   7,Zr  2,O  23)           73.1239         0.472380   
    211. A(O  11,Zr  2,O  23)          109.7628         0.480000   
    212. A(O   8,Zr  2,O  11)           64.9917         0.451494   
    213. A(O   7,Zr  2,O  11)           95.7240         0.430579   
    214. A(Zr  1,Zr  2,O   7)           37.6382         0.320442   
    215. A(O   7,Zr  2,O  21)          136.1687         0.454386   
    216. A(O  22,Zr  2,O  23)           83.5818         0.541179   
    217. A(Zr  1,Zr  2,O  11)           91.3415         0.325042   
    218. A(Zr  5,Zr  2,O   7)           96.5887         0.329338   
    219. A(O  11,Zr  2,O  20)           94.2219         0.487690   
    220. A(O   7,Zr  2,O  20)          141.9817         0.479921   
    221. A(Zr  5,Zr  2,O  20)           71.1538         0.369522   
    222. A(Zr  1,Zr  2,O  20)          105.6397         0.359139   
    223. A(O   6,Zr  3,O  27)          141.8644         0.480207   
    224. A(O   9,Zr  3,O  10)           65.1643         0.453519   
    225. A(O  25,Zr  3,O  26)          126.3442         0.519636   
    226. A(O  24,Zr  3,O  25)           84.7761         0.543826   
    227. A(O   6,Zr  3,O  24)           73.3690         0.474116   
    228. A(Zr  4,Zr  3,O  26)           93.0427         0.348703   
    229. A(Zr  4,Zr  3,O  10)           36.4367         0.333344   
    230. A(O  25,Zr  3,O  27)           81.9265         0.551019   
    231. A(Zr  0,Zr  3,O   6)           37.5967         0.320293   
    232. A(O   6,Zr  3,O  26)          136.3710         0.453634   
    233. A(Zr  0,Zr  3,O  10)           90.9310         0.325362   
    234. A(Zr  0,Zr  3,O  26)          159.3107         0.340220   
    235. A(O   6,Zr  3,O   9)           66.8730         0.445702   
    236. A(O  10,Zr  3,O  25)          163.0557         0.494168   
    237. A(O   9,Zr  3,O  25)           97.9447         0.510268   
    238. A(Zr  4,Zr  3,O   9)           37.3028         0.343053   
    239. A(O  26,Zr  3,O  27)           81.2372         0.513910   
    240. A(O   6,Zr  3,O  10)           95.0729         0.432069   
    241. A(Zr  0,Zr  3,O   9)           34.8146         0.334754   
    242. A(O   9,Zr  3,O  24)          138.5751         0.498195   
    243. A(Zr  4,Zr  3,O  24)          143.7068         0.363291   
    244. A(Zr  4,Zr  3,O  27)           71.1557         0.367629   
    245. A(O   9,Zr  3,O  26)          130.1556         0.476432   
    246. A(Zr  0,Zr  3,O  27)          105.4621         0.358527   
    247. A(O  24,Zr  3,O  26)           74.1812         0.507295   
    248. A(O  10,Zr  3,O  27)           94.3921         0.488781   
    249. A(O  24,Zr  3,O  27)          136.8046         0.537778   
    250. A(O  10,Zr  3,O  26)           68.8349         0.461625   
    251. A(Zr  0,Zr  3,O  25)           74.3045         0.362159   
    252. A(Zr  4,Zr  3,O   6)           96.1665         0.328104   
    253. A(O   9,Zr  3,O  27)           84.0907         0.504667   
    254. A(O   6,Zr  3,O  25)           78.4113         0.485479   
    255. A(Zr  0,Zr  3,O  24)          110.0788         0.354331   
    256. A(O  10,Zr  3,O  24)          108.5497         0.482556   
    257. A(Zr  0,Zr  3,Zr  4)           71.4419         0.253734   
    258. A(Zr  4,Zr  3,O  25)          127.9912         0.371384   
    259. A(Zr  1,Zr  4,O  10)           34.8043         0.335548   
    260. A(O   9,Zr  4,O  10)           65.7731         0.464254   
    261. A(O   7,Zr  4,O  10)           67.8963         0.452425   
    262. A(Zr  3,Zr  4,O  10)           37.7200         0.346432   
    263. A(O   9,Zr  4,O  28)           98.8071         0.493920   
    264. A(O   9,Zr  4,O  30)          160.1226         0.496539   
    265. A(O  10,Zr  4,O  30)           94.8373         0.511632   
    266. A(O  28,Zr  4,O  30)           81.7511         0.545045   
    267. A(O   7,Zr  4,O  31)           74.6659         0.482108   
    268. A(O   9,Zr  4,O  31)          106.6854         0.494903   
    269. A(O  30,Zr  4,O  31)           85.4763         0.546151   
    270. A(O  10,Zr  4,O  28)           81.6490         0.508917   
    271. A(O  10,Zr  4,O  31)          141.3326         0.509936   
    272. A(Zr  3,Zr  4,O  31)          142.8118         0.367458   
    273. A(Zr  1,Zr  4,O  31)          111.1897         0.355685   
    274. A(O  29,Zr  4,O  30)          129.4361         0.517134   
    275. A(O  29,Zr  4,O  31)           75.9692         0.515415   
    276. A(O   7,Zr  4,O  28)          140.5181         0.481157   
    277. A(O   7,Zr  4,O  30)           76.6356         0.483693   
    278. A(O   7,Zr  4,O   9)           91.2145         0.439446   
    279. A(O  10,Zr  4,O  29)          128.3442         0.483217   
    280. A(O  28,Zr  4,O  31)          136.1897         0.543214   
    281. A(O   7,Zr  4,O  29)          138.3002         0.457156   
    282. A(Zr  1,Zr  4,O  29)          157.5620         0.338758   
    283. A(Zr  3,Zr  4,O  28)           72.6419         0.366784   
    284. A(Zr  1,Zr  4,O  28)          104.7076         0.355040   
    285. A(Zr  3,Zr  4,O   9)           36.7341         0.337238   
    286. A(Zr  1,Zr  4,O   7)           37.2773         0.319249   
    287. A(O  28,Zr  4,O  29)           80.4237         0.514383   
    288. A(Zr  1,Zr  4,O  30)           72.9658         0.356760   
    289. A(O   9,Zr  4,O  29)           69.7753         0.469138   
    290. A(Zr  3,Zr  4,O  30)          127.6746         0.368580   
    291. A(Zr  3,Zr  4,O  29)           90.6358         0.349783   
    292. A(Zr  1,Zr  4,O   9)           87.8028         0.326743   
    293. A(Zr  3,Zr  4,O   7)           95.2164         0.329413   
    294. A(Zr  1,Zr  4,Zr  3)           70.7441         0.252097   
    295. A(O  34,Zr  5,O  35)           80.1014         0.512234   
    296. A(O  33,Zr  5,O  35)           81.4253         0.546355   
    297. A(O  32,Zr  5,O  35)          135.7219         0.543953   
    298. A(O   8,Zr  5,O  35)           99.6878         0.495476   
    299. A(O   6,Zr  5,O  35)          141.0446         0.480596   
    300. A(Zr  2,Zr  5,O  35)           72.9669         0.368284   
    301. A(Zr  0,Zr  5,O  35)          105.1863         0.354536   
    302. A(O  33,Zr  5,O  34)          129.7354         0.517000   
    303. A(O  32,Zr  5,O  34)           75.7136         0.514752   
    304. A(O  11,Zr  5,O  34)          128.0505         0.482949   
    305. A(O  32,Zr  5,O  33)           86.2600         0.549076   
    306. A(O   6,Zr  5,O  34)          138.0033         0.455462   
    307. A(Zr  2,Zr  5,O  34)           90.0974         0.350358   
    308. A(Zr  0,Zr  5,O  34)          157.0762         0.337493   
    309. A(O  11,Zr  5,O  33)           94.5462         0.514709   
    310. A(O   8,Zr  5,O  33)          159.8192         0.500053   
    311. A(O   6,Zr  5,O  33)           77.2365         0.485006   
    312. A(Zr  2,Zr  5,O   6)           95.0757         0.330821   
    313. A(Zr  0,Zr  5,O  32)          111.5332         0.356115   
    314. A(Zr  2,Zr  5,O  32)          142.3243         0.369945   
    315. A(Zr  0,Zr  5,O   6)           37.2716         0.318917   
    316. A(Zr  0,Zr  5,Zr  2)           70.8351         0.252975   
    317. A(Zr  0,Zr  5,O  33)           73.1374         0.357526   
    318. A(O  11,Zr  5,O  32)          141.7039         0.512473   
    319. A(O   8,Zr  5,O  32)          105.8216         0.497894   
    320. A(Zr  2,Zr  5,O  33)          127.6312         0.371429   
    321. A(O   6,Zr  5,O  32)           75.0053         0.482926   
    322. A(O   8,Zr  5,O  34)           69.8341         0.469386   
    323. A(O   8,Zr  5,O  11)           65.8902         0.467350   
    324. A(O  11,Zr  5,O  35)           81.8602         0.509968   
    325. A(O   6,Zr  5,O  11)           67.9358         0.453500   
    326. A(Zr  2,Zr  5,O  11)           37.9718         0.348959   
    327. A(Zr  0,Zr  5,O  11)           34.8019         0.336162   
    328. A(O   6,Zr  5,O   8)           90.1267         0.440951   
    329. A(Zr  2,Zr  5,O   8)           36.9403         0.340009   
    330. A(Zr  0,Zr  5,O   8)           87.2485         0.327653   
    331. A(Zr  3,O   6,Zr  5)          131.4733         0.426386   
    332. A(Zr  0,O   6,Zr  5)          105.1349         0.432568   
    333. A(Zr  0,O   6,Zr  3)          104.3577         0.430864   
    334. A(Zr  3,O   6,H  70)          104.3373         0.180417   
    335. A(Zr  0,O   6,H  70)          105.8062         0.182092   
    336. A(Zr  5,O   6,H  70)          103.5640         0.180872   
    337. A(Zr  2,O   7,Zr  4)          131.0330         0.426153   
    338. A(Zr  1,O   7,Zr  4)          105.1242         0.432893   
    339. A(Zr  1,O   7,Zr  2)          104.2334         0.430617   
    340. A(Zr  1,O   8,Zr  2)          109.7499         0.476503   
    341. A(Zr  2,O   8,Zr  5)          105.7248         0.460211   
    342. A(Zr  1,O   8,Zr  5)          142.4408         0.470358   
    343. A(Zr  3,O   9,Zr  4)          105.9631         0.459329   
    344. A(Zr  0,O   9,Zr  4)          141.4072         0.467643   
    345. A(Zr  0,O   9,Zr  3)          109.8565         0.476513   
    346. A(Zr  3,O  10,Zr  4)          105.8433         0.458366   
    347. A(Zr  1,O  10,Zr  4)          110.4704         0.476813   
    348. A(Zr  1,O  10,Zr  3)          136.8601         0.457096   
    349. A(Zr  2,O  11,Zr  5)          105.5112         0.458465   
    350. A(Zr  0,O  11,Zr  5)          110.5977         0.477402   
    351. A(Zr  0,O  11,Zr  2)          136.4973         0.455223   
    352. A(Zr  0,O  12,C  36)          130.9907         0.507526   
    353. A(Zr  0,O  13,C  37)          132.7531         0.509902   
    354. A(C  37,O  13,H  70)           65.0267         0.147502   
    355. A(Zr  0,O  13,H  70)           91.4229         0.154334   
    356. A(Zr  0,O  14,C  38)          138.4356         0.478549   
    357. A(Zr  0,O  15,C  39)          139.5480         0.476985   
    358. A(Zr  1,O  16,C  40)          139.5219         0.479281   
    359. A(Zr  1,O  17,C  41)          137.2498         0.479276   
    360. A(Zr  1,O  18,C  42)          132.3014         0.510618   
    361. A(Zr  1,O  19,C  43)          130.0684         0.505992   
    362. A(Zr  2,O  20,C  44)          127.1168         0.502643   
    363. A(Zr  2,O  21,C  38)          129.9396         0.477003   
    364. A(Zr  2,O  22,C  42)          131.2976         0.508215   
    365. A(Zr  2,O  23,C  45)          139.3958         0.497103   
    366. A(C  46,O  24,H  70)           76.8324         0.146321   
    367. A(Zr  3,O  24,H  70)           89.2300         0.150834   
    368. A(Zr  3,O  24,C  46)          139.8283         0.498551   
    369. A(Zr  3,O  25,C  37)          130.0909         0.509066   
    370. A(C  37,O  25,H  70)           76.3889         0.163270   
    371. A(Zr  3,O  25,H  70)           99.6593         0.171788   
    372. A(Zr  3,O  26,C  41)          129.1888         0.475641   
    373. A(Zr  3,O  27,C  47)          126.8763         0.502451   
    374. A(Zr  4,O  28,C  47)          125.3911         0.501335   
    375. A(Zr  4,O  29,C  39)          133.2798         0.477638   
    376. A(Zr  4,O  30,C  43)          127.5810         0.504327   
    377. A(Zr  4,O  31,C  45)          138.9481         0.504757   
    378. A(C  46,O  32,H  70)           75.0260         0.144250   
    379. A(C  46,O  32,H  65)          119.7213         0.161016   
    380. A(Zr  5,O  32,H  65)           91.4435         0.168064   
    381. A(H  65,O  32,H  70)           77.9856         0.099479   
    382. A(Zr  5,O  32,H  70)           87.5845         0.149658   
    383. A(Zr  5,O  32,C  46)          138.9610         0.505860   
    384. A(Zr  5,O  33,C  36)          128.0435         0.506033   
    385. A(H  66,O  33,H  70)           53.1848         0.100928   
    386. A(H  65,O  33,H  66)           56.1041         0.100894   
    387. A(C  36,O  33,H  66)           87.1998         0.146470   
    388. A(Zr  5,O  33,H  66)          136.9778         0.152736   
    389. A(H  65,O  33,H  70)           88.0130         0.105152   
    390. A(C  36,O  33,H  65)          137.3735         0.166823   
    391. A(Zr  5,O  33,H  65)           94.5700         0.175308   
    392. A(C  36,O  33,H  70)           85.3067         0.167046   
    393. A(Zr  5,O  33,H  70)          100.5586         0.175556   
    394. A(Zr  5,O  34,C  40)          134.1397         0.476099   
    395. A(Zr  5,O  35,C  44)          125.1859         0.500995   
    396. A(O  12,C  36,O  33)          127.3717         0.464972   
    397. A(O  33,C  36,H  70)           66.8749         0.156732   
    398. A(O  12,C  36,H  70)           94.4255         0.156721   
    399. A(H  58,C  36,H  70)          110.0029         0.138583   
    400. A(O  33,C  36,H  58)          116.2270         0.364273   
    401. A(O  12,C  36,H  58)          116.3949         0.364229   
    402. A(O  13,C  37,O  25)          127.4875         0.465867   
    403. A(H  51,C  37,H  70)          107.5351         0.144630   
    404. A(O  25,C  37,H  70)           75.0325         0.165034   
    405. A(O  13,C  37,H  70)           88.4766         0.165038   
    406. A(O  25,C  37,H  51)          116.2784         0.364717   
    407. A(O  13,C  37,H  51)          116.2204         0.364734   
    408. A(O  14,C  38,O  21)          129.7980         0.466169   
    409. A(O  21,C  38,H  50)          115.1072         0.365974   
    410. A(O  14,C  38,H  50)          115.0947         0.365608   
    411. A(O  15,C  39,O  29)          130.0299         0.466960   
    412. A(O  29,C  39,H  54)          114.9984         0.366403   
    413. A(O  15,C  39,H  54)          114.9692         0.366217   
    414. A(O  16,C  40,O  34)          130.0699         0.467128   
    415. A(O  34,C  40,H  56)          114.9705         0.366487   
    416. A(O  16,C  40,H  56)          114.9550         0.366338   
    417. A(O  17,C  41,O  26)          129.7881         0.465869   
    418. A(O  26,C  41,H  48)          115.0720         0.365803   
    419. A(O  17,C  41,H  48)          115.1394         0.365371   
    420. A(O  18,C  42,O  22)          127.5758         0.466181   
    421. A(O  22,C  42,H  49)          116.2083         0.364918   
    422. A(O  18,C  42,H  49)          116.2159         0.364906   
    423. A(O  30,C  43,H  52)          116.3157         0.364127   
    424. A(O  19,C  43,H  52)          116.3404         0.364087   
    425. A(O  19,C  43,O  30)          127.3439         0.464759   
    426. A(O  35,C  44,H  59)          116.6940         0.363683   
    427. A(O  20,C  44,H  59)          116.7135         0.363565   
    428. A(O  20,C  44,O  35)          126.5924         0.464151   
    429. A(O  31,C  45,H  55)          115.5589         0.366693   
    430. A(O  23,C  45,H  55)          115.5605         0.366647   
    431. A(O  23,C  45,O  31)          128.8719         0.468574   
    432. A(H  57,C  46,H  70)          117.2869         0.132857   
    433. A(O  32,C  46,H  70)           79.7050         0.148954   
    434. A(O  24,C  46,H  70)           77.6827         0.148951   
    435. A(O  32,C  46,H  57)          115.5118         0.366752   
    436. A(O  24,C  46,H  57)          115.5499         0.366740   
    437. A(O  24,C  46,O  32)          128.9379         0.468681   
    438. A(O  28,C  47,H  53)          116.6955         0.363641   
    439. A(O  27,C  47,H  53)          116.6933         0.363549   
    440. A(O  27,C  47,O  28)          126.6110         0.464100   
    441. A(H  63,H  57,H  64)           55.3693         0.093816   
    442. A(C  46,H  57,H  64)          112.2381         0.118534   
    443. A(C  46,H  57,H  63)          132.8404         0.122129   
    444. A(C  36,H  58,H  66)           92.7121         0.113596   
    445. A(Al 68,Al 60,H  71)          119.1752         0.400125   
    446. A(H  66,Al 60,H  71)          101.3959         0.360375   
    447. A(H  65,Al 60,H  71)          120.7909         0.375311   
    448. A(H  64,Al 60,H  71)          105.1445         0.360129   
    449. A(Al 61,Al 60,H  71)          102.4481         0.399144   
    450. A(H  66,Al 60,Al 68)           35.3938         0.383606   
    451. A(H  65,Al 60,Al 68)          112.7623         0.399821   
    452. A(H  64,Al 60,Al 68)           89.8184         0.383339   
    453. A(Al 61,Al 60,Al 68)           59.8131         0.425694   
    454. A(H  65,Al 60,H  66)          104.9010         0.360109   
    455. A(H  64,Al 60,H  66)          124.9924         0.345734   
    456. A(Al 61,Al 60,H  66)           92.4025         0.382677   
    457. A(H  64,Al 60,H  65)          101.3356         0.359864   
    458. A(Al 61,Al 60,H  65)          127.9020         0.398841   
    459. A(Al 61,Al 60,H  64)           35.2986         0.382411   
    460. A(H  67,Al 61,Al 68)           94.1351         0.400891   
    461. A(H  64,Al 61,Al 68)           90.0599         0.385266   
    462. A(H  63,Al 61,Al 68)          127.6971         0.401724   
    463. A(H  62,Al 61,Al 68)           35.5350         0.385813   
    464. A(Al 60,Al 61,Al 68)           60.0242         0.427327   
    465. A(H  64,Al 61,H  67)          110.7949         0.359941   
    466. A(H  63,Al 61,H  67)          130.6654         0.374992   
    467. A(H  62,Al 61,H  67)          107.8775         0.360442   
    468. A(Al 60,Al 61,H  67)           93.1739         0.398407   
    469. A(H  63,Al 61,H  64)           95.7420         0.360665   
    470. A(H  62,Al 61,H  64)          113.7651         0.346843   
    471. A(Al 60,Al 61,H  64)           35.3478         0.382907   
    472. A(H  62,Al 61,H  63)           97.3418         0.361167   
    473. A(Al 60,Al 61,H  63)          127.9853         0.399233   
    474. A(Al 60,Al 61,H  62)           92.4879         0.383449   
    475. A(Al 61,H  62,Al 68)          108.9861         0.346826   
    476. A(H  57,H  63,Al 61)           95.1566         0.128358   
    477. A(H  57,H  64,Al 61)           88.7278         0.122240   
    478. A(H  57,H  64,Al 60)          115.3310         0.122184   
    479. A(Al 60,H  64,Al 61)          109.3536         0.345934   
    480. A(O  32,H  65,O  33)           62.4799         0.103832   
    481. A(O  32,H  65,Al 60)          108.3098         0.151505   
    482. A(O  33,H  65,Al 60)          106.2394         0.156874   
    483. A(O  33,H  66,H  58)           40.8081         0.094135   
    484. A(O  33,H  66,Al 68)           95.5531         0.136550   
    485. A(O  33,H  66,Al 60)           90.5577         0.136508   
    486. A(H  58,H  66,Al 68)          105.5350         0.116799   
    487. A(H  58,H  66,Al 60)          122.0739         0.116775   
    488. A(Al 60,H  66,Al 68)          109.1870         0.346191   
    489. A(H  69,Al 68,H  70)          131.6336         0.376613   
    490. A(H  66,Al 68,H  70)           98.3264         0.361600   
    491. A(H  62,Al 68,H  70)           95.6057         0.361557   
    492. A(Al 61,Al 68,H  70)          111.7665         0.402772   
    493. A(Al 60,Al 68,H  70)           97.0696         0.401257   
    494. A(H  66,Al 68,H  69)          103.1966         0.360592   
    495. A(H  62,Al 68,H  69)          104.4054         0.360549   
    496. A(Al 61,Al 68,H  69)          109.8604         0.401612   
    497. A(Al 60,Al 68,H  69)          124.8659         0.400103   
    498. A(H  62,Al 68,H  66)          127.2991         0.346375   
    499. A(Al 61,Al 68,H  66)           92.7647         0.385294   
    500. A(Al 60,Al 68,H  66)           35.4193         0.383863   
    501. A(Al 61,Al 68,H  62)           35.4789         0.385247   
    502. A(Al 60,Al 68,H  62)           92.5699         0.383817   
    503. A(Al 60,Al 68,Al 61)           60.1627         0.428398   
    504. A(O  24,H  70,O  32)           46.4527         0.097341   
    505. A(O  32,H  70,C  46)           25.2690         0.097724   
    506. A(O  13,H  70,O  32)          117.6949         0.097544   
    507. A(O  32,H  70,C  36)           84.8398         0.098904   
    508. A(O  32,H  70,C  37)          122.3257         0.100106   
    509. A(O  25,H  70,O  32)           99.6548         0.099848   
    510. A(O  32,H  70,O  33)           58.0060         0.100412   
    511. A(O   6,H  70,O  32)           55.5055         0.103147   
    512. A(O  32,H  70,Al 68)          117.1357         0.137175   
    513. A(O  24,H  70,C  46)           25.4849         0.098051   
    514. A(O  13,H  70,O  24)           97.4722         0.097865   
    515. A(O  24,H  70,C  36)          121.3390         0.099275   
    516. A(O  24,H  70,C  37)           85.2424         0.100522   
    517. A(O  24,H  70,O  25)           57.4037         0.100255   
    518. A(O  24,H  70,O  33)          100.1121         0.100840   
    519. A(O   6,H  70,O  24)           55.4409         0.103678   
    520. A(O  24,H  70,Al 68)          120.3232         0.138983   
    521. A(O  13,H  70,C  46)          118.2592         0.098272   
    522. A(C  36,H  70,C  46)          109.6382         0.099747   
    523. A(C  37,H  70,C  46)          110.3394         0.101051   
    524. A(O  25,H  70,C  46)           82.8609         0.100771   
    525. A(O  33,H  70,C  46)           83.2443         0.101383   
    526. A(O   6,H  70,C  46)           62.4387         0.104351   
    527. A(C  46,H  70,Al 68)          111.0222         0.141276   
    528. A(O  13,H  70,C  36)           75.7783         0.099525   
    529. A(O  13,H  70,C  37)           26.4966         0.100803   
    530. A(O  13,H  70,O  25)           49.4652         0.100529   
    531. A(O  13,H  70,O  33)           95.7695         0.101128   
    532. A(O   6,H  70,O  13)           62.1894         0.104035   
    533. A(O  13,H  70,Al 68)          125.1694         0.140200   
    534. A(C  36,H  70,C  37)          102.2209         0.102681   
    535. A(O  25,H  70,C  36)          120.4333         0.102363   
    536. A(O  33,H  70,C  36)           27.8184         0.103058   
    537. A(O   6,H  70,C  36)           71.4332         0.106427   
    538. A(C  36,H  70,Al 68)          109.3052         0.148345   
    539. A(O  25,H  70,C  37)           28.5786         0.103985   
    540. A(O  33,H  70,C  37)          121.1427         0.104764   
    541. A(O   6,H  70,C  37)           72.6064         0.108542   
    542. A(C  37,H  70,Al 68)          113.9248         0.155548   
    543. A(O  25,H  70,O  33)          127.0232         0.104398   
    544. A(O   6,H  70,O  25)           64.0553         0.108089   
    545. A(O  25,H  70,Al 68)          119.8587         0.154004   
    546. A(O   6,H  70,O  33)           64.1767         0.109081   
    547. A(O  33,H  70,Al 68)          112.8726         0.157383   
    548. A(O   6,H  70,Al 68)          172.6411         0.173772   
    549. D(Zr  5,Zr  2,Zr  1,O   7)    128.9114         0.010000   
    550. D(O   7,Zr  2,Zr  1,Zr  4)    -24.3782         0.010000   
    551. D(Zr  5,Zr  2,Zr  1,Zr  4)    104.5332         0.010000   
    552. D(Zr  4,Zr  3,Zr  0,Zr  5)   -104.4415         0.010000   
    553. D(O   6,Zr  3,Zr  0,Zr  5)     24.0003         0.010000   
    554. D(Zr  4,Zr  3,Zr  0,O   6)   -128.4418         0.010000   
    555. D(O   7,Zr  4,Zr  1,Zr  2)     24.6893         0.010000   
    556. D(Zr  3,Zr  4,Zr  1,Zr  2)   -103.4770         0.010000   
    557. D(O   7,Zr  4,Zr  3,Zr  0)     76.2824         0.010000   
    558. D(Zr  1,Zr  4,Zr  3,O   6)     76.1216         0.010000   
    559. D(Zr  1,Zr  4,Zr  3,Zr  0)    104.8485         0.010000   
    560. D(Zr  3,Zr  4,Zr  1,O   7)   -128.1663         0.010000   
    561. D(O   6,Zr  5,Zr  0,Zr  3)    -24.2613         0.010000   
    562. D(Zr  0,Zr  5,Zr  2,Zr  1)   -104.6783         0.010000   
    563. D(Zr  2,Zr  5,Zr  0,O   6)    127.6875         0.010000   
    564. D(Zr  2,Zr  5,Zr  0,Zr  3)    103.4263         0.010000   
    565. D(O   6,Zr  5,Zr  2,Zr  1)    -75.9192         0.010000   
    566. D(Zr  0,Zr  5,Zr  2,O   7)    -76.1015         0.010000   
    567. D(Zr  5,O   6,Zr  3,Zr  0)   -125.8702         0.010000   
    568. D(Zr  0,O   6,Zr  5,O   8)    -85.2865         0.010000   
    569. D(Zr  0,O   6,Zr  5,Zr  2)    -48.6286         0.010000   
    570. D(Zr  0,O   6,Zr  3,Zr  4)     48.3169         0.010000   
    571. D(Zr  3,O   6,Zr  0,Zr  5)   -141.0250         0.010000   
    572. D(Zr  3,O   6,Zr  5,Zr  0)    125.5858         0.010000   
    573. D(Zr  5,O   6,Zr  0,Zr  3)    141.0250         0.010000   
    574. D(Zr  0,O   6,Zr  3,O   9)     24.6841         0.010000   
    575. D(Zr  3,O   6,Zr  0,O   9)    -24.8547         0.010000   
    576. D(Zr  1,O   7,Zr  2,O   8)    -25.1371         0.010000   
    577. D(Zr  4,O   7,Zr  1,Zr  2)   -140.3667         0.010000   
    578. D(Zr  1,O   7,Zr  2,Zr  5)    -48.0266         0.010000   
    579. D(Zr  2,O   7,Zr  1,Zr  4)    140.3667         0.010000   
    580. D(Zr  2,O   7,Zr  1,O   8)     25.3583         0.010000   
    581. D(Zr  2,O   7,Zr  4,Zr  1)   -124.9499         0.010000   
    582. D(Zr  1,O   7,Zr  4,O   9)     84.7694         0.010000   
    583. D(Zr  1,O   7,Zr  4,Zr  3)     48.1868         0.010000   
    584. D(Zr  4,O   7,Zr  2,Zr  1)    125.2818         0.010000   
    585. D(Zr  1,O   8,Zr  5,Zr  2)   -160.3968         0.010000   
    586. D(Zr  5,O   8,Zr  2,Zr  1)   -167.4496         0.010000   
    587. D(Zr  2,O   8,Zr  5,Zr  0)     61.1207         0.010000   
    588. D(Zr  1,O   8,Zr  2,Zr  5)    167.4496         0.010000   
    589. D(Zr  1,O   8,Zr  2,O   7)     27.0257         0.010000   
    590. D(Zr  1,O   8,Zr  5,Zr  0)    -99.2761         0.010000   
    591. D(Zr  5,O   8,Zr  1,Zr  2)    159.9322         0.010000   
    592. D(Zr  2,O   8,Zr  1,O   7)    -27.1328         0.010000   
    593. D(Zr  2,O   8,Zr  1,Zr  4)    -60.7740         0.010000   
    594. D(Zr  3,O   9,Zr  4,Zr  1)    -59.9743         0.010000   
    595. D(Zr  4,O   9,Zr  3,Zr  0)    165.3838         0.010000   
    596. D(Zr  0,O   9,Zr  4,Zr  1)     97.6619         0.010000   
    597. D(Zr  0,O   9,Zr  3,Zr  4)   -165.3838         0.010000   
    598. D(Zr  0,O   9,Zr  3,O   6)    -26.5047         0.010000   
    599. D(Zr  4,O   9,Zr  0,Zr  3)   -157.1116         0.010000   
    600. D(Zr  3,O   9,Zr  0,O   6)     26.6124         0.010000   
    601. D(Zr  0,O   9,Zr  4,Zr  3)    157.6362         0.010000   
    602. D(Zr  3,O   9,Zr  0,Zr  5)     59.8583         0.010000   
    603. D(Zr  1,O  10,Zr  4,Zr  3)   -156.2857         0.010000   
    604. D(Zr  4,O  10,Zr  3,Zr  0)    -56.0865         0.010000   
    605. D(Zr  3,O  10,Zr  4,Zr  1)    156.2857         0.010000   
    606. D(Zr  4,O  10,Zr  1,Zr  2)     55.9011         0.010000   
    607. D(Zr  1,O  10,Zr  3,Zr  0)     90.4763         0.010000   
    608. D(Zr  3,O  10,Zr  1,Zr  4)   -145.5407         0.010000   
    609. D(Zr  1,O  10,Zr  4,O   7)    -23.0115         0.010000   
    610. D(Zr  1,O  10,Zr  3,Zr  4)    146.5627         0.010000   
    611. D(Zr  3,O  10,Zr  1,Zr  2)    -89.6396         0.010000   
    612. D(Zr  2,O  11,Zr  5,Zr  0)   -155.2952         0.010000   
    613. D(Zr  0,O  11,Zr  5,Zr  2)    155.2952         0.010000   
    614. D(Zr  5,O  11,Zr  2,Zr  1)     55.8834         0.010000   
    615. D(Zr  0,O  11,Zr  2,Zr  5)   -145.3667         0.010000   
    616. D(Zr  0,O  11,Zr  2,Zr  1)    -89.4833         0.010000   
    617. D(Zr  5,O  11,Zr  0,Zr  3)    -55.4227         0.010000   
    618. D(Zr  0,O  11,Zr  5,O   6)     22.8814         0.010000   
    619. D(Zr  2,O  11,Zr  0,Zr  5)    144.1955         0.010000   
    620. D(Zr  2,O  11,Zr  0,Zr  3)     88.7728         0.010000   
    621. D(C  36,O  12,Zr  0,Zr  5)    -21.8693         0.010000   
    622. D(C  36,O  12,Zr  0,Zr  3)     30.4892         0.010000   
    623. D(H  70,O  13,Zr  0,Zr  3)     66.0331         0.010000   
    624. D(C  37,O  13,Zr  0,Zr  5)    -48.8714         0.010000   
    625. D(C  37,O  13,Zr  0,Zr  3)      9.5503         0.010000   
    626. D(C  38,O  14,Zr  0,Zr  5)      9.8123         0.010000   
    627. D(C  38,O  14,Zr  0,Zr  3)    -61.6881         0.010000   
    628. D(C  39,O  15,Zr  0,Zr  5)     30.1355         0.010000   
    629. D(C  39,O  15,Zr  0,Zr  3)    -28.3461         0.010000   
    630. D(C  40,O  16,Zr  1,Zr  4)    -22.7931         0.010000   
    631. D(C  40,O  16,Zr  1,Zr  2)     31.7986         0.010000   
    632. D(C  41,O  17,Zr  1,Zr  4)     -4.0163         0.010000   
    633. D(C  41,O  17,Zr  1,Zr  2)     69.0438         0.010000   
    634. D(C  42,O  18,Zr  1,Zr  4)     51.4679         0.010000   
    635. D(C  42,O  18,Zr  1,Zr  2)     -8.5096         0.010000   
    636. D(C  43,O  19,Zr  1,Zr  4)     26.3588         0.010000   
    637. D(C  43,O  19,Zr  1,Zr  2)    -24.3821         0.010000   
    638. D(C  44,O  20,Zr  2,Zr  5)    -34.9167         0.010000   
    639. D(C  44,O  20,Zr  2,Zr  1)    -98.7470         0.010000   
    640. D(C  38,O  21,Zr  2,Zr  5)    -74.2210         0.010000   
    641. D(C  38,O  21,Zr  2,Zr  1)    -32.4258         0.010000   
    642. D(C  42,O  22,Zr  2,Zr  5)     41.1314         0.010000   
    643. D(C  42,O  22,Zr  2,Zr  1)     -9.2395         0.010000   
    644. D(C  45,O  23,Zr  2,Zr  5)    -52.7287         0.010000   
    645. D(C  45,O  23,Zr  2,Zr  1)     33.2050         0.010000   
    646. D(H  70,O  24,Zr  3,Zr  0)     30.9687         0.010000   
    647. D(C  46,O  24,Zr  3,Zr  4)     48.3411         0.010000   
    648. D(C  46,O  24,Zr  3,Zr  0)    -37.3721         0.010000   
    649. D(H  70,O  25,Zr  3,Zr  0)    -65.3748         0.010000   
    650. D(C  37,O  25,Zr  3,Zr  4)    -35.3770         0.010000   
    651. D(C  37,O  25,Zr  3,Zr  0)     14.9094         0.010000   
    652. D(C  41,O  26,Zr  3,Zr  4)     75.2238         0.010000   
    653. D(C  41,O  26,Zr  3,Zr  0)     34.8076         0.010000   
    654. D(C  47,O  27,Zr  3,Zr  4)     35.0215         0.010000   
    655. D(C  47,O  27,Zr  3,Zr  0)     98.7053         0.010000   
    656. D(C  47,O  28,Zr  4,Zr  1)     96.2583         0.010000   
    657. D(C  47,O  28,Zr  4,Zr  3)     32.3161         0.010000   
    658. D(C  39,O  29,Zr  4,Zr  3)     69.8845         0.010000   
    659. D(C  39,O  29,Zr  4,Zr  1)     36.7319         0.010000   
    660. D(C  43,O  30,Zr  4,Zr  3)    -20.9029         0.010000   
    661. D(C  43,O  30,Zr  4,Zr  1)     26.8471         0.010000   
    662. D(C  45,O  31,Zr  4,Zr  3)     60.3641         0.010000   
    663. D(C  45,O  31,Zr  4,Zr  1)    -25.3791         0.010000   
    664. D(H  65,O  32,Zr  5,Zr  0)   -109.6954         0.010000   
    665. D(C  46,O  32,Zr  5,Zr  2)    -54.2298         0.010000   
    666. D(C  46,O  32,Zr  5,Zr  0)     31.9599         0.010000   
    667. D(C  36,O  33,Zr  5,Zr  0)    -25.8298         0.010000   
    668. D(H  70,O  33,Zr  5,Zr  0)     66.4725         0.010000   
    669. D(C  36,O  33,Zr  5,Zr  2)     22.3466         0.010000   
    670. D(C  40,O  34,Zr  5,Zr  0)    -35.0736         0.010000   
    671. D(C  40,O  34,Zr  5,Zr  2)    -68.0587         0.010000   
    672. D(C  44,O  35,Zr  5,Zr  0)    -95.7789         0.010000   
    673. D(C  44,O  35,Zr  5,Zr  2)    -31.8146         0.010000   
    674. D(O  33,C  36,O  12,Zr  0)     12.7020         0.051104   
    675. D(H  58,C  36,O  12,Zr  0)   -166.3385         0.051104   
    676. D(H  58,C  36,O  33,Zr  5)   -158.4720         0.064102   
    677. D(O  12,C  36,O  33,H  70)    -77.2560         0.064102   
    678. D(O  12,C  36,O  33,Zr  5)     22.4862         0.064102   
    679. D(H  51,C  37,O  25,Zr  3)    166.2857         0.056346   
    680. D(O  13,C  37,O  25,H  70)     76.1297         0.056346   
    681. D(O  13,C  37,O  25,Zr  3)    -15.1214         0.056346   
    682. D(H  51,C  37,O  13,Zr  0)    175.6786         0.056380   
    683. D(O  25,C  37,O  13,H  70)    -69.7571         0.056380   
    684. D(O  25,C  37,O  13,Zr  0)     -2.9150         0.056380   
    685. D(H  50,C  38,O  21,Zr  2)   -162.0614         0.047280   
    686. D(O  14,C  38,O  21,Zr  2)     17.8025         0.047280   
    687. D(H  50,C  38,O  14,Zr  0)   -154.5806         0.046669   
    688. D(O  21,C  38,O  14,Zr  0)     25.5555         0.046669   
    689. D(H  54,C  39,O  29,Zr  4)    162.5630         0.047619   
    690. D(O  15,C  39,O  29,Zr  4)    -18.0405         0.047619   
    691. D(H  54,C  39,O  15,Zr  0)    168.8394         0.047304   
    692. D(O  29,C  39,O  15,Zr  0)    -10.5572         0.047304   
    693. D(H  56,C  40,O  34,Zr  5)   -164.2205         0.047691   
    694. D(O  16,C  40,O  34,Zr  5)     16.6050         0.047691   
    695. D(H  56,C  40,O  16,Zr  1)   -170.8003         0.047439   
    696. D(O  34,C  40,O  16,Zr  1)      8.3742         0.047439   
    697. D(H  48,C  41,O  26,Zr  3)    163.4635         0.047151   
    698. D(O  17,C  41,O  26,Zr  3)    -16.2513         0.047151   
    699. D(H  48,C  41,O  17,Zr  1)    148.4875         0.046431   
    700. D(O  26,C  41,O  17,Zr  1)    -31.7978         0.046431   
    701. D(H  49,C  42,O  22,Zr  2)   -172.6328         0.046991   
    702. D(O  18,C  42,O  22,Zr  2)      7.4467         0.046991   
    703. D(H  49,C  42,O  18,Zr  1)   -174.2343         0.046971   
    704. D(O  22,C  42,O  18,Zr  1)      5.6862         0.046971   
    705. D(H  52,C  43,O  30,Zr  4)    159.3578         0.046148   
    706. D(O  19,C  43,O  30,Zr  4)    -20.6609         0.046148   
    707. D(H  52,C  43,O  19,Zr  1)    161.4579         0.046082   
    708. D(O  30,C  43,O  19,Zr  1)    -18.5233         0.046082   
    709. D(H  59,C  44,O  35,Zr  5)   -158.7139         0.045846   
    710. D(O  20,C  44,O  35,Zr  5)     21.1400         0.045846   
    711. D(H  59,C  44,O  20,Zr  2)   -153.2278         0.045652   
    712. D(O  35,C  44,O  20,Zr  2)     26.9183         0.045652   
    713. D(H  55,C  45,O  31,Zr  4)    170.6809         0.048508   
    714. D(O  23,C  45,O  31,Zr  4)    -10.4525         0.048508   
    715. D(H  55,C  45,O  23,Zr  2)   -175.8906         0.048430   
    716. D(O  31,C  45,O  23,Zr  2)      5.2429         0.048430   
    717. D(H  57,C  46,O  32,Zr  5)    176.5019         0.063002   
    718. D(O  24,C  46,O  32,H  65)    131.1886         0.063002   
    719. D(O  24,C  46,O  32,Zr  5)     -3.2386         0.063002   
    720. D(H  57,C  46,O  24,Zr  3)   -172.8033         0.058468   
    721. D(O  32,C  46,O  24,H  70)    -65.6945         0.058468   
    722. D(O  32,C  46,O  24,Zr  3)      6.9371         0.058468   
    723. D(H  53,C  47,O  28,Zr  4)    158.0817         0.045793   
    724. D(O  27,C  47,O  28,Zr  4)    -21.7251         0.045793   
    725. D(H  53,C  47,O  27,Zr  3)    153.3301         0.045642   
    726. D(O  28,C  47,O  27,Zr  3)    -26.8631         0.045642   
    727. D(H  64,H  57,C  46,O  24)   -122.2688         0.137292   
    728. D(H  63,H  57,C  46,O  32)    120.6873         0.137292   
    729. D(H  63,H  57,C  46,O  24)    -59.5365         0.137292   
    730. D(H  66,H  58,C  36,O  33)    -49.1633         0.120417   
    731. D(H  66,H  58,C  36,O  12)    129.9867         0.120417   
    732. D(H  63,Al 61,Al 60,H  64)    -28.1757         0.010000   
    733. D(H  62,Al 61,Al 60,H  65)    -81.4452         0.010000   
    734. D(H  62,Al 61,Al 60,H  64)   -129.4913         0.010000   
    735. D(Al 68,H  62,Al 61,H  63)   -151.6917         0.010000   
    736. D(Al 68,H  62,Al 61,Al 60)    -22.8824         0.010000   
    737. D(H  57,H  63,Al 61,H  62)     70.3247         0.010000   
    738. D(H  57,H  63,Al 61,Al 60)    -28.6583         0.010000   
    739. D(Al 61,H  63,H  57,H  64)     31.9383         0.010000   
    740. D(Al 61,H  63,H  57,C  46)    -57.3063         0.010000   
    741. D(H  57,H  64,Al 61,Al 60)   -116.4734         0.010000   
    742. D(Al 60,H  64,Al 61,H  63)    158.0355         0.010000   
    743. D(Al 60,H  64,Al 61,H  62)     57.3973         0.010000   
    744. D(H  57,H  64,Al 60,Al 61)     98.0611         0.010000   
    745. D(Al 61,H  64,Al 60,H  66)    -25.8213         0.010000   
    746. D(Al 61,H  64,Al 60,H  65)   -143.2384         0.010000   
    747. D(Al 61,H  64,H  57,C  46)     97.1847         0.010000   
    748. D(Al 60,H  64,H  57,H  63)   -141.3014         0.010000   
    749. D(Al 60,H  64,H  57,C  46)    -13.6840         0.010000   
    750. D(O  32,H  65,Al 60,Al 61)     24.6497         0.010000   
    751. D(O  33,H  65,Al 60,H  64)    116.4050         0.010000   
    752. D(O  33,H  65,Al 60,Al 61)     90.4109         0.010000   
    753. D(O  32,H  65,O  33,Zr  5)    -33.7655         0.010000   
    754. D(Al 60,H  65,O  33,C  36)     45.0022         0.010000   
    755. D(Al 60,H  65,O  33,Zr  5)   -136.3102         0.010000   
    756. D(O  33,H  65,O  32,Zr  5)     33.5345         0.010000   
    757. D(Al 60,H  65,O  32,C  46)    -19.3020         0.010000   
    758. D(Al 60,H  65,O  32,Zr  5)    132.7264         0.010000   
    759. D(H  58,H  66,Al 60,Al 61)   -145.4355         0.010000   
    760. D(Al 68,H  66,Al 60,H  64)     -7.2907         0.010000   
    761. D(Al 68,H  66,Al 60,Al 61)    -21.8812         0.010000   
    762. D(Al 68,H  66,H  58,C  36)    -52.8739         0.010000   
    763. D(Al 60,H  66,H  58,C  36)     72.3491         0.010000   
    764. D(Al 68,H  66,O  33,Zr  5)    -63.7557         0.010000   
    765. D(Al 60,H  66,O  33,C  36)   -165.9970         0.010000   
    766. D(Al 60,H  66,O  33,Zr  5)     45.5837         0.010000   
    767. D(Al 61,Al 68,H  66,Al 60)     21.9690         0.010000   
    768. D(Al 60,Al 68,H  66,O  33)     92.5325         0.010000   
    769. D(Al 60,Al 68,H  66,H  58)    132.8668         0.010000   
    770. D(H  66,Al 68,H  62,Al 61)     15.3502         0.010000   
    771. D(Al 60,Al 68,H  62,Al 61)     22.9176         0.010000   
    772. D(H  62,Al 68,Al 61,Al 60)    153.3549         0.010000   
    773. D(Al 60,Al 68,Al 61,H  63)   -116.8845         0.010000   
    774. D(Al 60,Al 68,Al 61,H  62)   -153.3549         0.010000   
    775. D(H  62,Al 68,Al 60,Al 61)    -15.1027         0.010000   
    776. D(Al 61,Al 68,Al 60,H  65)    121.7786         0.010000   
    777. D(Al 61,Al 68,Al 60,H  64)     19.5491         0.010000   
    778. D(Al 68,H  70,C  46,O  24)    116.7944         0.010000   
    779. D(O   6,H  70,C  37,O  13)    -62.1309         0.010000   
    780. D(Al 68,H  70,C  37,O  25)   -108.9138         0.010000   
    781. D(O   6,H  70,C  36,O  12)     59.3418         0.010000   
    782. D(Al 68,H  70,C  36,O  33)    102.6285         0.010000   
    783. D(Al 68,H  70,C  36,O  12)   -128.3996         0.010000   
    784. D(Al 68,H  70,O  33,C  36)    -88.2456         0.010000   
    785. D(Al 68,H  70,O  33,Zr  5)    143.8983         0.010000   
    786. D(O   6,H  70,O  32,Zr  5)     44.3650         0.010000   
    787. D(Al 68,H  70,O  32,C  46)     81.8692         0.010000   
    788. D(Al 68,H  70,O  32,Zr  5)   -135.6873         0.010000   
    789. D(O   6,H  70,O  25,Zr  3)     27.6860         0.010000   
    790. D(Al 68,H  70,O  25,C  37)     85.6222         0.010000   
    791. D(Al 68,H  70,O  25,Zr  3)   -145.2590         0.010000   
    792. D(O   6,H  70,O  24,Zr  3)    -43.9877         0.010000   
    793. D(Al 68,H  70,O  24,C  46)    -74.8570         0.010000   
    794. D(O   6,H  70,O  33,Zr  5)    -28.6999         0.010000   
    795. D(Al 68,H  70,O  24,Zr  3)    143.1475         0.010000   
    796. D(O   6,H  70,O  13,Zr  0)    -30.0284         0.010000   
    797. D(Al 68,H  70,O  13,C  37)    -72.4524         0.010000   
    798. D(Al 68,H  70,C  37,O  13)    121.4960         0.010000   
    799. D(Al 68,H  70,O  13,Zr  0)    150.0272         0.010000   
    800. D(O  33,H  70,O   6,Zr  0)    -83.9819         0.010000   
    801. D(Al 68,H  70,O   6,Zr  3)     98.3137         0.010000   
    802. D(Al 68,H  70,C  46,O  32)   -109.3000         0.010000   
    803. D(Al 68,H  70,O   6,Zr  0)   -151.9094         0.010000   
    804. D(O  33,H  70,Al 68,Al 60)    -38.2343         0.011420   
    805. D(O   6,H  70,Al 68,Al 61)    -34.0013         0.011420   
    806. D(O   6,H  70,Al 68,Al 60)     26.6371         0.011420   
    807. D(O   6,H  70,C  46,O  24)    -66.9124         0.010000   
    -----------------------------------------------------------------

Number of atoms                         .... 72
Number of degrees of freedom            .... 807


         *************************************************************
         *                GEOMETRY OPTIMIZATION CYCLE   1            *
         *************************************************************
---------------------------------
CARTESIAN COORDINATES (ANGSTROEM)
---------------------------------
  Zr    -0.104824    1.963688    1.859256
  Zr     0.041851   -2.080298   -1.508462
  Zr     1.778385   -1.465457    1.368833
  Zr    -1.845579    1.345569   -1.017390
  Zr     1.455255    1.041455   -1.671530
  Zr    -1.513222   -1.161175    2.030091
  O     -1.721914    0.776285    1.077954
  O      1.664800   -0.900267   -0.729660
  O     -0.130614   -1.754316    0.530789
  O      0.059422    1.661237   -0.187186
  O     -0.333815   -0.031188   -1.677870
  O      0.269812   -0.086605    2.044500
  O     -0.939197    1.765259    3.641276
  O     -1.391684    3.441661    1.635624
  O      1.627182    1.688260    2.949764
  O      1.174431    3.383390    1.059440
  O     -1.176198   -3.535019   -0.693613
  O     -1.720557   -1.815434   -2.546170
  O      1.379695   -3.518731   -1.349791
  O      0.830206   -1.843556   -3.311174
  O      1.241816   -2.902618    2.636879
  O      2.343620   -0.544255    3.136079
  O      2.707232   -2.971542    0.485439
  O      3.472589   -0.464872    0.940370
  O     -3.517023    0.309386   -0.603254
  O     -2.777646    2.850294   -0.141821
  O     -2.395314    0.424849   -2.794321
  O     -1.305837    2.783728   -2.283798
  O      0.609823    1.897627   -3.262186
  O      1.757261    3.032844   -1.192063
  O      2.317175   -0.062008   -3.080988
  O      3.251701    1.064098   -0.812096
  O     -3.302903   -1.203430    1.164456
  O     -2.367275   -0.067410    3.445434
  O     -1.799354   -3.158132    1.542677
  O     -0.674866   -2.026169    3.621139
  C     -1.880899    0.971116    4.058752
  C     -2.388160    3.628032    0.823223
  C      2.300844    0.708246    3.473550
  C      1.716850    3.695122   -0.077626
  C     -1.729033   -3.837771    0.440461
  C     -2.356548   -0.833140   -3.112593
  C      2.380233   -3.696503   -0.541168
  C      1.815586   -1.089210   -3.701817
  C      0.354953   -2.821499    3.586875
  C      3.907911    0.415073    0.095937
  C     -3.927477   -0.632371    0.184704
  C     -0.416842    2.697392   -3.231373
  H     -2.948753   -1.106705   -3.981570
  H      3.020991   -4.553449   -0.749057
  H      2.924077    0.978770    4.321002
  H     -2.978050    4.530890    0.983547
  H      2.273363   -1.347369   -4.658191
  H     -0.543877    3.366078   -4.085868
  H      2.204787    4.664112   -0.102059
  H      4.964972    0.653482    0.170631
  H     -2.194772   -4.817098    0.475706
  H     -4.933046   -0.996353   -0.004500
  H     -2.323741    1.210684    5.026595
  H      0.487243   -3.490118    4.440568
  Al    -5.734909   -0.427221    3.588861
  Al    -7.113726    0.675289    1.502156
  H     -5.936611    1.833381    1.241183
  H     -7.214211    0.139478   -0.011665
  H     -6.523993   -0.752774    2.146481
  H     -4.512449   -1.473715    3.524122
  H     -5.027210    1.037683    3.987190
  H     -8.235197    1.317880    2.465773
  Al    -5.059145    2.045442    2.651026
  H     -5.598962    3.436950    3.253138
  H     -3.642645    1.635962    2.017168
  H     -6.867464   -0.552678    4.725319

----------------------------
CARTESIAN COORDINATES (A.U.)
----------------------------
  NO LB      ZA    FRAG     MASS         X           Y           Z
   0 Zr   12.0000*   0    91.220   -0.198089    3.710833    3.513486
   1 Zr   12.0000*   0    91.220    0.079088   -3.931194   -2.850581
   2 Zr   12.0000*   0    91.220    3.360661   -2.769311    2.586720
   3 Zr   12.0000*   0    91.220   -3.487638    2.542756   -1.922589
   4 Zr   12.0000*   0    91.220    2.750034    1.968066   -3.158734
   5 Zr   12.0000*   0    91.220   -2.859576   -2.194303    3.836317
   6 O     8.0000    0    15.999   -3.253945    1.466965    2.037039
   7 O     8.0000    0    15.999    3.146016   -1.701259   -1.378857
   8 O     8.0000    0    15.999   -0.246825   -3.315177    1.003046
   9 O     8.0000    0    15.999    0.112291    3.139283   -0.353730
  10 O     8.0000    0    15.999   -0.630818   -0.058937   -3.170714
  11 O     8.0000    0    15.999    0.509870   -0.163659    3.863544
  12 O     8.0000    0    15.999   -1.774826    3.335857    6.881015
  13 O     8.0000    0    15.999   -2.629902    6.503796    3.090881
  14 O     8.0000    0    15.999    3.074929    3.190350    5.574247
  15 O     8.0000    0    15.999    2.219352    6.393681    2.002051
  16 O     8.0000    0    15.999   -2.222693   -6.680219   -1.310739
  17 O     8.0000    0    15.999   -3.251381   -3.430673   -4.811565
  18 O     8.0000    0    15.999    2.607245   -6.649439   -2.550735
  19 O     8.0000    0    15.999    1.568862   -3.483816   -6.257212
  20 O     8.0000    0    15.999    2.346693   -5.485154    4.982978
  21 O     8.0000    0    15.999    4.428800   -1.028493    5.926330
  22 O     8.0000    0    15.999    5.115927   -5.615400    0.917346
  23 O     8.0000    0    15.999    6.562242   -0.878481    1.777043
  24 O     8.0000    0    15.999   -6.646211    0.584655   -1.139985
  25 O     8.0000    0    15.999   -5.248990    5.386275   -0.268002
  26 O     8.0000    0    15.999   -4.526487    0.802848   -5.280501
  27 O     8.0000    0    15.999   -2.467674    5.260483   -4.315752
  28 O     8.0000    0    15.999    1.152399    3.585995   -6.164638
  29 O     8.0000    0    15.999    3.320741    5.731245   -2.252673
  30 O     8.0000    0    15.999    4.378826   -0.117178   -5.822223
  31 O     8.0000    0    15.999    6.144824    2.010854   -1.534640
  32 O     8.0000    0    15.999   -6.241582   -2.274154    2.200504
  33 O     8.0000    0    15.999   -4.473502   -0.127387    6.510926
  34 O     8.0000    0    15.999   -3.400285   -5.968004    2.915237
  35 O     8.0000    0    15.999   -1.275311   -3.828904    6.842961
  36 C     6.0000    0    12.011   -3.554384    1.835143    7.669929
  37 C     6.0000    0    12.011   -4.512968    6.855986    1.555665
  38 C     6.0000    0    12.011    4.347965    1.338392    6.564057
  39 C     6.0000    0    12.011    3.244376    6.982768   -0.146692
  40 C     6.0000    0    12.011   -3.267398   -7.252337    0.832351
  41 C     6.0000    0    12.011   -4.453230   -1.574407   -5.881949
  42 C     6.0000    0    12.011    4.497989   -6.985378   -1.022658
  43 C     6.0000    0    12.011    3.430960   -2.058308   -6.995420
  44 C     6.0000    0    12.011    0.670763   -5.331861    6.778211
  45 C     6.0000    0    12.011    7.384882    0.784375    0.181294
  46 C     6.0000    0    12.011   -7.421855   -1.195008    0.349040
  47 C     6.0000    0    12.011   -0.787717    5.097333   -6.106411
  48 H     1.0000    0     1.008   -5.572335   -2.091369   -7.524077
  49 H     1.0000    0     1.008    5.708845   -8.604772   -1.415512
  50 H     1.0000    0     1.008    5.525706    1.849608    8.165509
  51 H     1.0000    0     1.008   -5.627699    8.562141    1.858634
  52 H     1.0000    0     1.008    4.296034   -2.546159   -8.802706
  53 H     1.0000    0     1.008   -1.027779    6.360966   -7.721172
[...]
215:   2906.76   0.009666   48.85  0.001038  (-0.011712 -0.004783  0.029626)

* The epsilon (eps) is given for a Dirac delta lineshape.
** The dipole moment derivative (T) already includes vibrational overlap.

The first frequency considered to be a vibration is 9
The total number of vibrations considered is 207


--------------------------
THERMOCHEMISTRY AT 298.15K
--------------------------

Temperature         ...   298.15 K
Pressure            ...     1.00 atm
Total Mass          ...  1273.54 AMU
Quasi RRHO          ...     True
Cut-Off Frequency   ...     1.00 cm^-1

Throughout the following assumptions are being made:
  (1) The electronic state is orbitally nondegenerate
  (2) There are no thermally accessible electronically excited states
  (3) Hindered rotations indicated by low frequency modes are not
      treated as such but are treated as vibrations and this may
      cause some error
  (4) All equations used are the standard statistical mechanics
      equations for an ideal gas
  (5) All vibrations are strictly harmonic

freq.      14.42  E(vib)   ...       0.57 
freq.      20.51  E(vib)   ...       0.56 
freq.      26.09  E(vib)   ...       0.56 
freq.      31.37  E(vib)   ...       0.55 
freq.      33.70  E(vib)   ...       0.55 
freq.      40.95  E(vib)   ...       0.54 
freq.      47.61  E(vib)   ...       0.53 
freq.      53.57  E(vib)   ...       0.52 
freq.      57.55  E(vib)   ...       0.51 
freq.      66.10  E(vib)   ...       0.50 
freq.      79.39  E(vib)   ...       0.49 
freq.      80.44  E(vib)   ...       0.48 
freq.      88.80  E(vib)   ...       0.47 
freq.      93.50  E(vib)   ...       0.47 
freq.      97.36  E(vib)   ...       0.46 
freq.      98.46  E(vib)   ...       0.46 
freq.     100.55  E(vib)   ...       0.46 
freq.     104.32  E(vib)   ...       0.46 
freq.     104.61  E(vib)   ...       0.46 
freq.     109.05  E(vib)   ...       0.45 
freq.     111.09  E(vib)   ...       0.45 
freq.     113.32  E(vib)   ...       0.45 
freq.     117.01  E(vib)   ...       0.44 
freq.     127.67  E(vib)   ...       0.43 
freq.     137.49  E(vib)   ...       0.42 
freq.     145.28  E(vib)   ...       0.41 
freq.     146.21  E(vib)   ...       0.41 
freq.     151.54  E(vib)   ...       0.40 
freq.     151.88  E(vib)   ...       0.40 
freq.     152.70  E(vib)   ...       0.40 
freq.     155.35  E(vib)   ...       0.40 
freq.     158.30  E(vib)   ...       0.39 
freq.     160.01  E(vib)   ...       0.39 
freq.     163.55  E(vib)   ...       0.39 
freq.     165.68  E(vib)   ...       0.39 
freq.     167.75  E(vib)   ...       0.38 
freq.     168.77  E(vib)   ...       0.38 
freq.     170.84  E(vib)   ...       0.38 
freq.     172.40  E(vib)   ...       0.38 
freq.     185.65  E(vib)   ...       0.37 
freq.     188.40  E(vib)   ...       0.36 
freq.     188.84  E(vib)   ...       0.36 
freq.     191.15  E(vib)   ...       0.36 
freq.     195.83  E(vib)   ...       0.36 
freq.     196.89  E(vib)   ...       0.35 
freq.     203.39  E(vib)   ...       0.35 
freq.     210.23  E(vib)   ...       0.34 
freq.     211.60  E(vib)   ...       0.34 
freq.     213.05  E(vib)   ...       0.34 
freq.     230.33  E(vib)   ...       0.32 
freq.     231.80  E(vib)   ...       0.32 
freq.     232.99  E(vib)   ...       0.32 
freq.     236.99  E(vib)   ...       0.32 
freq.     241.09  E(vib)   ...       0.31 
freq.     242.02  E(vib)   ...       0.31 
freq.     243.32  E(vib)   ...       0.31 
freq.     260.00  E(vib)   ...       0.30 
freq.     260.49  E(vib)   ...       0.30 
freq.     262.92  E(vib)   ...       0.29 
freq.     263.61  E(vib)   ...       0.29 
freq.     264.68  E(vib)   ...       0.29 
freq.     265.22  E(vib)   ...       0.29 
freq.     270.50  E(vib)   ...       0.29 
freq.     273.22  E(vib)   ...       0.29 
freq.     273.74  E(vib)   ...       0.28 
freq.     274.13  E(vib)   ...       0.28 
freq.     276.57  E(vib)   ...       0.28 
freq.     279.42  E(vib)   ...       0.28 
freq.     281.53  E(vib)   ...       0.28 
freq.     288.18  E(vib)   ...       0.27 
freq.     288.28  E(vib)   ...       0.27 
freq.     290.25  E(vib)   ...       0.27 
freq.     292.82  E(vib)   ...       0.27 
freq.     293.56  E(vib)   ...       0.27 
freq.     301.97  E(vib)   ...       0.26 
freq.     306.15  E(vib)   ...       0.26 
freq.     307.45  E(vib)   ...       0.26 
freq.     308.23  E(vib)   ...       0.26 
freq.     308.93  E(vib)   ...       0.26 
freq.     312.52  E(vib)   ...       0.25 
freq.     313.75  E(vib)   ...       0.25 
freq.     315.97  E(vib)   ...       0.25 
freq.     318.69  E(vib)   ...       0.25 
freq.     320.13  E(vib)   ...       0.25 
freq.     324.15  E(vib)   ...       0.25 
freq.     328.20  E(vib)   ...       0.24 
freq.     337.00  E(vib)   ...       0.24 
freq.     341.47  E(vib)   ...       0.23 
freq.     349.57  E(vib)   ...       0.23 
freq.     351.36  E(vib)   ...       0.23 
freq.     359.07  E(vib)   ...       0.22 
freq.     370.22  E(vib)   ...       0.21 
freq.     386.79  E(vib)   ...       0.20 
freq.     394.35  E(vib)   ...       0.20 
freq.     398.69  E(vib)   ...       0.19 
freq.     402.04  E(vib)   ...       0.19 
freq.     402.69  E(vib)   ...       0.19 
freq.     405.46  E(vib)   ...       0.19 
freq.     407.69  E(vib)   ...       0.19 
freq.     416.35  E(vib)   ...       0.18 
freq.     418.99  E(vib)   ...       0.18 
freq.     421.05  E(vib)   ...       0.18 
freq.     425.83  E(vib)   ...       0.18 
freq.     430.43  E(vib)   ...       0.18 
freq.     471.89  E(vib)   ...       0.15 
freq.     478.77  E(vib)   ...       0.15 
freq.     483.22  E(vib)   ...       0.15 
freq.     488.01  E(vib)   ...       0.15 
freq.     508.91  E(vib)   ...       0.14 
freq.     522.35  E(vib)   ...       0.13 
freq.     539.63  E(vib)   ...       0.12 
freq.     564.06  E(vib)   ...       0.11 
freq.     626.74  E(vib)   ...       0.09 
freq.     661.04  E(vib)   ...       0.08 
freq.     667.44  E(vib)   ...       0.08 
freq.     684.50  E(vib)   ...       0.07 
freq.     686.85  E(vib)   ...       0.07 
freq.     689.35  E(vib)   ...       0.07 
freq.     692.02  E(vib)   ...       0.07 
freq.     698.82  E(vib)   ...       0.07 
freq.     718.92  E(vib)   ...       0.07 
freq.     726.08  E(vib)   ...       0.06 
freq.     733.50  E(vib)   ...       0.06 
freq.     734.01  E(vib)   ...       0.06 
freq.     734.27  E(vib)   ...       0.06 
freq.     735.24  E(vib)   ...       0.06 
freq.     736.14  E(vib)   ...       0.06 
freq.     738.20  E(vib)   ...       0.06 
freq.     738.97  E(vib)   ...       0.06 
freq.     739.11  E(vib)   ...       0.06 
freq.     739.34  E(vib)   ...       0.06 
freq.     739.77  E(vib)   ...       0.06 
freq.     741.45  E(vib)   ...       0.06 
freq.     742.53  E(vib)   ...       0.06 
freq.     753.45  E(vib)   ...       0.06 
freq.     897.64  E(vib)   ...       0.03 
freq.     998.99  E(vib)   ...       0.02 
freq.     999.20  E(vib)   ...       0.02 
freq.     999.23  E(vib)   ...       0.02 
freq.     999.25  E(vib)   ...       0.02 
freq.    1001.13  E(vib)   ...       0.02 
freq.    1001.28  E(vib)   ...       0.02 
freq.    1004.75  E(vib)   ...       0.02 
freq.    1005.15  E(vib)   ...       0.02 
freq.    1005.52  E(vib)   ...       0.02 
freq.    1005.71  E(vib)   ...       0.02 
freq.    1006.09  E(vib)   ...       0.02 
freq.    1006.37  E(vib)   ...       0.02 
freq.    1006.96  E(vib)   ...       0.02 
freq.    1058.54  E(vib)   ...       0.02 
freq.    1349.14  E(vib)   ...       0.01 
freq.    1351.65  E(vib)   ...       0.01 
freq.    1353.54  E(vib)   ...       0.01 
freq.    1354.37  E(vib)   ...       0.01 
freq.    1354.75  E(vib)   ...       0.01 
freq.    1355.61  E(vib)   ...       0.01 
freq.    1355.94  E(vib)   ...       0.01 
freq.    1356.30  E(vib)   ...       0.01 
freq.    1357.00  E(vib)   ...       0.01 
freq.    1357.29  E(vib)   ...       0.01 
freq.    1357.94  E(vib)   ...       0.01 
freq.    1358.01  E(vib)   ...       0.01 
freq.    1361.33  E(vib)   ...       0.01 
freq.    1361.81  E(vib)   ...       0.01 
freq.    1363.20  E(vib)   ...       0.01 
freq.    1363.47  E(vib)   ...       0.01 
freq.    1364.85  E(vib)   ...       0.01 
freq.    1365.17  E(vib)   ...       0.01 
freq.    1365.27  E(vib)   ...       0.01 
freq.    1367.01  E(vib)   ...       0.01 
freq.    1367.65  E(vib)   ...       0.01 
freq.    1371.29  E(vib)   ...       0.01 
freq.    1371.95  E(vib)   ...       0.01 
freq.    1380.29  E(vib)   ...       0.01 
freq.    1538.12  E(vib)   ...       0.00 
freq.    1546.06  E(vib)   ...       0.00 
freq.    1563.39  E(vib)   ...       0.00 
freq.    1566.25  E(vib)   ...       0.00 
freq.    1569.49  E(vib)   ...       0.00 
freq.    1577.11  E(vib)   ...       0.00 
freq.    1578.75  E(vib)   ...       0.00 
freq.    1632.06  E(vib)   ...       0.00 
freq.    1633.35  E(vib)   ...       0.00 
freq.    1637.23  E(vib)   ...       0.00 
freq.    1638.47  E(vib)   ...       0.00 
freq.    1639.14  E(vib)   ...       0.00 
freq.    1697.39  E(vib)   ...       0.00 
freq.    1765.95  E(vib)   ...       0.00 
freq.    1803.74  E(vib)   ...       0.00 
freq.    1885.32  E(vib)   ...       0.00 
freq.    1892.38  E(vib)   ...       0.00 
freq.    1897.61  E(vib)   ...       0.00 
freq.    1902.56  E(vib)   ...       0.00 
freq.    1922.88  E(vib)   ...       0.00 
freq.    1942.44  E(vib)   ...       0.00 
freq.    2874.51  E(vib)   ...       0.00 
freq.    2882.85  E(vib)   ...       0.00 
freq.    2886.07  E(vib)   ...       0.00 
freq.    2886.52  E(vib)   ...       0.00 
freq.    2887.78  E(vib)   ...       0.00 
freq.    2889.63  E(vib)   ...       0.00 
freq.    2895.12  E(vib)   ...       0.00 
freq.    2902.76  E(vib)   ...       0.00 
freq.    2904.16  E(vib)   ...       0.00 
freq.    2904.92  E(vib)   ...       0.00 
freq.    2905.86  E(vib)   ...       0.00 
freq.    2906.76  E(vib)   ...       0.00 

------------
INNER ENERGY
------------

The inner energy is: U= E(el) + E(ZPE) + E(vib) + E(rot) + E(trans)
    E(el)   - is the total energy from the electronic structure calculation
              = E(kin-el) + E(nuc-el) + E(el-el) + E(nuc-nuc)
    E(ZPE)  - the the zero temperature vibrational energy from the frequency calculation
    E(vib)  - the the finite temperature correction to E(ZPE) due to population
              of excited vibrational states
    E(rot)  - is the rotational thermal energy
    E(trans)- is the translational thermal energy

Summary of contributions to the inner energy U:
Electronic energy                ...  -3732.51023744 Eh
Zero point energy                ...      0.36975774 Eh     232.03 kcal/mol
Thermal vibrational correction   ...      0.06122545 Eh      38.42 kcal/mol
Thermal rotational correction    ...      0.00141627 Eh       0.89 kcal/mol
Thermal translational correction ...      0.00141627 Eh       0.89 kcal/mol
-----------------------------------------------------------------------
Total thermal energy                  -3732.07642170 Eh


Summary of corrections to the electronic energy:
(perhaps to be used in another calculation)
Total thermal correction                  0.06405799 Eh      40.20 kcal/mol
Non-thermal (ZPE) correction              0.36975774 Eh     232.03 kcal/mol
-----------------------------------------------------------------------
Total correction                          0.43381574 Eh     272.22 kcal/mol


--------
ENTHALPY
--------

The enthalpy is H = U + kB*T
                kB is Boltzmann's constant
Total thermal energy              ...  -3732.07642170 Eh 
Thermal Enthalpy correction       ...      0.00094421 Eh       0.59 kcal/mol
-----------------------------------------------------------------------
Total Enthalpy                    ...  -3732.07547749 Eh


Note: Only C1 symmetry has been detected, increase convergence thresholds 
      if your molecule has a higher symmetry. Symmetry factor of 1.0 is   
      used for the rotational entropy correction. 
 

Note: Rotational entropy computed according to Herzberg 
Infrared and Raman Spectra, Chapter V,1, Van Nostrand Reinhold, 1945 
Point Group:  C1, Symmetry Number:   1  
Rotational constants in cm-1:     0.001775     0.001245     0.001206 

Vibrational entropy computed according to the QRRHO of S. Grimme
Chem.Eur.J. 2012 18 9955 using a reference frequency of 100.0 cm-1


-------
ENTROPY
-------

The entropy contributions are T*S = T*(S(el)+S(vib)+S(rot)+S(trans))
     S(el)   - electronic entropy
     S(vib)  - vibrational entropy
     S(rot)  - rotational entropy
     S(trans)- translational entropy
The entropies will be listed as multiplied by the temperature to get
units of energy

Electronic entropy                ...      0.00000000 Eh      0.00 kcal/mol
Vibrational entropy               ...      0.11035067 Eh     69.25 kcal/mol
Rotational entropy                ...      0.01883128 Eh     11.82 kcal/mol
Translational entropy             ...      0.02247478 Eh     14.10 kcal/mol
-----------------------------------------------------------------------
Final entropy term                ...      0.15165673 Eh     95.17 kcal/mol

In case the symmetry of your molecule has not been determined correctly
or in case you have a reason to use a different symmetry number we print 
out the resulting rotational entropy values for sn=1,12:

 non-linear molecules -----------------------------------
|  sn= 1 | S(rot)=       0.01883128 Eh     11.82 kcal/mol|
|  sn= 2 | S(rot)=       0.01817682 Eh     11.41 kcal/mol|
|  sn= 3 | S(rot)=       0.01779399 Eh     11.17 kcal/mol|
|  sn= 4 | S(rot)=       0.01752236 Eh     11.00 kcal/mol|
|  sn= 5 | S(rot)=       0.01731168 Eh     10.86 kcal/mol|
|  sn= 6 | S(rot)=       0.01713953 Eh     10.76 kcal/mol|
|  sn= 7 | S(rot)=       0.01699398 Eh     10.66 kcal/mol|
|  sn= 8 | S(rot)=       0.01686791 Eh     10.58 kcal/mol|
|  sn= 9 | S(rot)=       0.01675670 Eh     10.51 kcal/mol|
|  sn=10 | S(rot)=       0.01665722 Eh     10.45 kcal/mol|
|  sn=11 | S(rot)=       0.01656723 Eh     10.40 kcal/mol|
|  sn=12 | S(rot)=       0.01648507 Eh     10.34 kcal/mol|
 linear molecules ---------------------------------------
|  Dinfh | S(rot)=       0.01167119 Eh      7.32 kcal/mol|
|  Cinfv | S(rot)=       0.01232565 Eh      7.73 kcal/mol|
 --------------------------------------------------------


-------------------
GIBBS FREE ENERGY
-------------------

The Gibbs free energy is G = H - T*S

Total enthalpy                    ...  -3732.07547749 Eh 
Total entropy correction          ...     -0.15165673 Eh    -95.17 kcal/mol
-----------------------------------------------------------------------
Final Gibbs free energy         ...  -3732.22713422 Eh

For completeness - the Gibbs free energy minus the electronic energy
G-E(el)                           ...      0.28310322 Eh    177.65 kcal/mol


Maximum memory used throughout the entire PROP-calculation: 143.9 MB

--------------------------------
SUGGESTED CITATIONS FOR THIS RUN
--------------------------------

Below you find a list of papers that are relevant to this ORCA run
We neither can nor want to force you to cite these papers, but we appreciate if you do
You receive ORCA, which is the product of decades of hard work by many enthusiastic individuals, for free
The only thing we kindly ask in return is that you cite our papers,
We deeply appreciate it, if you show your appreciation for ORCA by not just citing the generic ORCA reference.

Please note that relegating all ORCA citations to the supporting information does *not* help us.
SI sections are not indexed - citations you put there will not count into any citation statistics
But we need these citations in order to attract the funding resources that allow us to do what we are doing

Therefore, if you are a happy ORCA user, please consider citing a few of the papers listed below in the main body of your paper

In addition to the list printed below, the program has created the file run.bibtex that contains the list in bibtex format
You can import this file easily into all common literature databanks and citation aid programs


List of essential papers. We consider these as the minimum necessary citations

  1. Neese, F.
     Software update: the ORCA program system, version 6.0
     WIRES Comput. Molec. Sci. 2025 15(1), e70019
     doi.org/10.1002/wcms.7019

List of papers to cite with high priority. The work reported in these papers was absolutely
necessary for this run to complete.
Our perspective: the developers of density functionals and basis sets usually get cited in chemistry papers
Good! But without the algorithms to do something with them, the functionals or basis sets would not do anything.
Hence, in our opinion, the algorithm design and method developments papers are equally worthy of getting cited

  1. Neese, F.
     An improvement of the resolution of the identity approximation for the formation of the Coulomb matrix
     J. Comp. Chem. 2003 24(14), 1740-1747
     doi.org/10.1002/jcc.10318
  2. Grimme, S.; Antony, J.; Ehrlich, S.; Krieg, H.
     A consistent and accurate ab initio parametrization of density functional dispersion correction (DFT-D) for the 94 elements H-Pu
     J. Chem. Phys. 2010 132 , 154104
     doi.org/10.1063/1.3382344
  3. Grimme, S.; Ehrlich, S.; Goerigk, L.
     Effect of the damping function in dispersion corrected density functional theory
     J. Comput. Chem. 2011 32(7), 1456-1465
     doi.org/10.1002/jcc.21759
  4. Bykov, D.; Petrenko, T.; Izsak, R.; Kossmann, S.; Becker, U.; Valeev, E.; Neese, F.
     Efficient implementation of the analytic second derivatives of Hartree-Fock and hybrid DFT energies: a detailed analysis of different approximations
     Molec. Phys. 2015 113 , 1961-1977
     doi.org/10.1080/00268976.2015.1025114
  5. Helmich-Paris, B.
     A trust-region augmented Hessian implementation for restricted and unrestricted Hartree–Fock and Kohn–Sham methods
     J. Chem. Phys. 2021 154 , 164104
     doi.org/10.1063/5.0040798
  6. Neese, F.
     The SHARK Integral Generation and Digestion System
     J. Comp. Chem. 2022 44(3), 381
     doi.org/10.1002/jcc.26942

List of suggested additional citations. These are papers that are important in the 'surrounding' of 
of this run, or papers that preceded the highly important papers. If you like your results we are grateful for a citation.

  1. Neese, F.
     The ORCA program system
     WIRES Comput. Molec. Sci. 2012 2(1), 73-78
     doi.org/10.1002/wcms.81
  2. Neese, F.
     Software update: the ORCA program system, version 4.0
     WIRES Comput. Molec. Sci. 2018 8(1), 1-6
     doi.org/10.1002/wcms.1327
  3. Neese, F.; Wennmohs, F.; Becker, U.; Riplinger, C.
     The ORCA quantum chemistry program package
     J. Chem. Phys. 2020 152(22), 224108
     doi.org/10.1063/5.0004608
  4. Neese, F.
     Software update: The ORCA program system—Version 5.0
     WIRES Comput. Molec. Sci. 2022 12(1), e1606
     doi.org/10.1002/wcms.1606

List of optional additional citations

  1. Neese, F.
     Approximate second-order SCF convergence for spin unrestricted wavefunctions
     Chem. Phys. Lett. 2000 325(1-3), 93-98
     doi.org/10.1016/s0009-2614(00)00662-x

Timings for individual modules:

Sum of individual times          ...     8585.238 sec (= 143.087 min)
Startup calculation              ...      332.584 sec (=   5.543 min)   3.9 %
SCF iterations                   ...     2345.741 sec (=  39.096 min)  27.3 %
Property integrals               ...     1966.970 sec (=  32.783 min)  22.9 %
SCF Response                     ...     1370.365 sec (=  22.839 min)  16.0 %
Property calculations            ...     1747.491 sec (=  29.125 min)  20.4 %
SCF Gradient evaluation          ...      806.844 sec (=  13.447 min)   9.4 %
Geometry relaxation              ...       15.242 sec (=   0.254 min)   0.2 %
                             ****ORCA TERMINATED NORMALLY****
TOTAL RUN TIME: 0 days 2 hours 23 minutes 26 seconds 929 msec
