
                                 *****************
                                 * O   R   C   A *
                                 *****************

                                            #,                                       
                                            ###                                      
                                            ####                                     
                                            #####                                    
                                            ######                                   
                                           ########,                                 
                                     ,,################,,,,,                         
                               ,,#################################,,                 
                          ,,##########################################,,             
                       ,#########################################, ''#####,          
                    ,#############################################,,   '####,        
                  ,##################################################,,,,####,       
                ,###########''''           ''''###############################       
              ,#####''   ,,,,##########,,,,          '''####'''          '####       
            ,##' ,,,,###########################,,,                        '##       
           ' ,,###''''                  '''############,,,                           
         ,,##''                                '''############,,,,        ,,,,,,###''
      ,#''                                            '''#######################'''  
     '                                                          ''''####''''         
             ,#######,   #######,   ,#######,      ##                                
            ,#'     '#,  ##    ##  ,#'     '#,    #''#        ,####,    ,#,          
            ##       ##  ##   ,#'  ##            #'  '#       #'       ,# #          
            ##       ##  #######   ##           ,######,      #####,      #          
            '#,     ,#'  ##    ##  '#,     ,#' ,#      #,     #,   #      #          
             '#######'   ##     ##  '#######'  #'      '#     '####' #    #          



                #########################################################
                #                        -***-                          #
                #          Department of theory and spectroscopy        #
                #                                                       #
                #                      Frank Neese                      #
                #                                                       #
                #     Directorship, Architecture, Infrastructure        #
                #                    SHARK, DRIVERS                     #
                #        Core code/Algorithms in most modules           #
                #                                                       #
                #        Max Planck Institute fuer Kohlenforschung      #
                #                Kaiser Wilhelm Platz 1                 #
                #                 D-45470 Muelheim/Ruhr                 #
                #                      Germany                          #
                #                                                       #
                #                  All rights reserved                  #
                #                        -***-                          #
                #########################################################


                         Program Version 6.1.0  -  RELEASE   -
                                (GIT: $679e74b$)
                          ($2025-06-10 18:02:51 +0200$)


 With contributions from (in alphabetic order):
[Max-Planck-Institut fuer Kohlenforschung]                               
  Daniel Aravena         : Magnetic Suceptibility                        
  Michael Atanasov       : Ab Initio Ligand Field Theory (pilot matlab implementation)
  Alexander A. Auer      : GIAO ZORA, VPT2 properties, NMR spectrum      
  Ute Becker             : All parallelization in ORCA, NUMFREQ, NUMCALC 
  Giovanni Bistoni       : ED, misc. LED, open-shell LED, HFLD           
  Dmytro Bykov           : pre 5.0 version of the SCF Hessian            
  Marcos Casanova-Páez   : Triplet and SCS-CIS(D). UHF-(DLPNO)-IP/EA/STEOM-CCSD. UHF-CVS-IP/STEOM-CCSD   
  Vijay G. Chilkuri      : MRCI spin determinant printing, contributions to CSF-ICE 
  Pauline Colinet        : FMM embedding                                 
  Dipayan Datta          : RHF DLPNO-CCSD density                        
  Achintya Kumar Dutta   : EOM-CC, STEOM-CC                              
  Nicolas Foglia         : Exact transition moments, OPA infrastructure, MCD improvements    
  Dmitry Ganyushin       : Spin-Orbit,Spin-Spin,Magnetic field MRCI      
  Miquel Garcia-Rates    : C-PCM and meta-GGA Hessian, CCSD/C-PCM, Gaussian charge scheme 
  Tiago L. C. Gouveia    : GS-ROHF, GS-ROCIS                             
  Yang Guo               : DLPNO-NEVPT2, F12-NEVPT2, CIM, IAO-localization        
  Andreas Hansen         : Spin unrestricted coupled pair/coupled cluster methods 
  Ingolf Harden          : AUTO-CI MPn and infrastructure                
  Benjamin Helmich-Paris : MC-RPA, TRAH-(SCF,CASSCF), AVAS, COSX integrals, SCF dyn. polar., MC-PDFT, srDFT 
  Lee Huntington         : MR-EOM, pCC                                   
  Robert Izsak           : Overlap fitted RIJCOSX, COSX-SCS-MP3, EOM     
  Riya Kayal             : Wick's Theorem for AUTO-CI, AUTO-CI UHF-CCSDT 
  Emily Kempfer          : AUTO-CI RHF CISDT and CCSDT, approximate NEVPT4
  Christian Kollmar      : KDIIS, OOCD, Brueckner-CCSD(T), CCSD density, CASPT2, CASPT2-K, improved NEVPT2 
  Axel Koslowski         : Symmetry handling                             
  Simone Kossmann        : meta-GGA functionals, TD-DFT gradient, OOMP2, (MP2 Hessian; deprecated post 5.0) 
  Lucas Lang             : DCDCAS, Hyperfine gauge corrections, ICE-SOC+SSC
  Marvin Lechner         : AUTO-CI (C++ implementation), FIC-MRCC        
  Spencer Leger          : CASSCF response                               
  Dagmar Lenk            : GEPOL surface, SMD, ORCA-2-JSON               
  Dimitrios Liakos       : Extrapolation schemes; Compound Job, Property file
  Dimitrios Manganas     : Further ROCIS development; embedding schemes. LFT, Crystal Embedding 
  Dimitrios Pantazis     : SARC Basis sets                               
  Anastasios Papadopoulos: AUTO-CI, single reference methods and gradients 
  Taras Petrenko         : pre 6.0 DFT Hessian and TD-DFT gradient,  ECA, NRVS 
  Petra Pikulova         : Analytic Raman intensities                    
  Peter Pinski           : DLPNO-MP2, DLPNO-MP2 Gradient                 
  Shashank Vittal Rao    : ES-AILFT, MagRelax                            
  Christoph Reimann      : Effective Core Potentials                     
  Marius Retegan         : Local ZFS, SOC                                
  Christoph Riplinger    : Optimizer, TS searches, QM/MM, DLPNO-CCSD(T), (RO)-DLPNO pert. Triples 
  Michael Roemelt        : Original ROCIS implementation, recursive CI coupling coefficients
  Masaaki Saitow         : Open-shell DLPNO-CCSD energy and density      
  Barbara Sandhoefer     : DKH picture change effects                    
  Yorick L. A. Schmerwitz: GMF and freeze-and-release deltaSCF, NEB S-IDPP initial path                    
  Kantharuban Sivalingam : CASSCF convergence/infrastructure, NEVPT2, NEVPT3, NEVPT4(SD), FIC-MRCI and CEPA variants
  Bernardo de Souza      : ESD, SOC TD-DFT                               
  Georgi L. Stoychev     : AutoAux, RI-MP2 NMR, DLPNO-MP2 response, X2C  
  Van Anh Tran           : RI-MP2 g-tensors                              
  Willem Van den Heuvel  : Paramagnetic NMR                              
  Zikuan Wang            : NOTCH, Electric field optimization            
  Frank Wennmohs         : Technical directorship and infrastructure     
  Hang Xu                : AUTO-CI-Response properties                   
                                                                         
[FACCTs GmbH]                                                            
  Markus Bursch, Nicolas Foglia, Miquel Garcia-Rates, Ingolf Harden, Hagen Neugebauer, Anastasios Papadopoulos, 
  Christoph Riplinger, Bernardo de Souza, Georgi L. Stoychev                                                    
                                                                 
  APM, various basis sets, CI-OPT, improved COSX, DLPNO-Multilevel,           
  DOCKER, DRACO, updates on ESD, Fragmentator, GOAT, IRC, LR-CPCM, L-BFGS, MBIS, meta-GGA TD-DFT gradient, ML-optimized integration grids, 
  MM, NACMEs, nearIR, NEB, NEB-TS, NL-DFT gradient (VV10), 2- and 3-layer-ONIOM, interface openCOSMO-RS, QMMM,   
  Crystal-QMMM, RESP, rigid body optimization, SF, symmetry and pop. for TD-DFT, various functionals, SOLVATOR                                   
                                                                         
[Other institutions]                                                     
  V. Asgeirsson          : NEB                                           
  Christoph Bannwarth    : sTDA-DFT, sTD-DFT, PBEh-3c, B97-3c, D3        
  Giovanni Bistoni       : ETS/NOCV, ADLD/ADEX, COVALED                  
  Martin Brehm           : Molecular dynamics                            
  Ronald Cardenas        : ETS/NOCV                                      
  Martina Colucci        : COVALED                                       
  Sebastian Ehlert       : rSCAN, r2SCAN, r2SCAN-3c, D4, dhf basis sets  
  Marvin Friede          : D4 for Fr, Ra, Ac-Lr                          
  Lars Goerigk           : TD-DFT with DH, B97 family of functionals     
  Stefan Grimme          : VdW corrections, initial TS optimization, DFT functionals, gCP, sTDA/sTD-DF 
  Waldemar Hujo          : DFT-NL                                        
  H. Jonsson             : NEB                                           
  Holger Kruse           : gCP                                           
  Marcel Mueller         : wB97X-3c, vDZP basis set                      
  Hagen Neugebauer       : wr2SCAN, Native XTB                           
  Gianluca Regni         : ADLD/ADEX                                     
  Tobias Risthaus        : pre 6.0 range-separated hybrid DFT and stability analysis
  Lukas Wittmann         : regularized MP2, r2SCAN double-hybrids, wr2SCAN        
                                                                         
We gratefully acknowledge several colleagues who have allowed us to      
interface, adapt or use parts of their codes:                            
  Ed Valeev, F. Pavosevic, A. Kumar             : LibInt (2-el integral package), F12 methods 
  Garnet Chan, S. Sharma, J. Yang, R. Olivares  : DMRG                   
  Ulf Ekstrom                                   : XCFun DFT Library      
  Mihaly Kallay                                 : mrcc  (arbitrary order and MRCC methods)
  Frank Weinhold                                : gennbo (NPA and NBO analysis)           
  Simon Mueller                                 : openCOSMO-RS                            
  Christopher J. Cramer and Donald G. Truhlar   : smd solvation model                     
  S Lehtola, MJT Oliveira, MAL Marques          : LibXC Library                           
  Liviu Ungur et al                             : ANISO software                          


 Your calculation uses the libint2 library for the computation of 2-el integrals
 For citations please refer to: http://libint.valeyev.net

 Your ORCA version has been built with support for libXC version: 7.0.0
 For citations please refer to: https://libxc.gitlab.io

 This ORCA versions uses:
   CBLAS   interface :  Fast vector & matrix operations
   LAPACKE interface :  Fast linear algebra routines
   SCALAPACK package :  Parallel linear algebra routines
   Shared memory     :  Shared parallel matrices
   BLAS/LAPACK       :  OpenBLAS 0.3.29  USE64BITINT DYNAMIC_ARCH NO_AFFINITY Prescott SINGLE_THREADED
        Core in use  :  Prescott
   Copyright (c) 2011-2014, The OpenBLAS Project


  ***********************************
  * Starting time: Tue Aug 12 23:06:19 2025
  * Host name:     cuda8
  * Process ID:    114676
  * Working dir.:  /local/scratch/mehlhorn/61835
  ***********************************



***************************************
The coordinates will be read from file: start.xyz
***************************************


Your calculation utilizes the geometrical counterpoise correction gCP
Please cite in your paper:
H.Kruse, S. Grimme J.Chem.Phys., 136, (2012), 154101 
   

Your calculation utilizes the atom-pairwise dispersion correction
with the Becke-Johnson damping scheme (D3BJ)


Warning: RI is on but no J-basis has been assigned. Assigning Def2/J (nothing to worry about!)
================================================================================

cite the ECPs for Zr [Def2-ECP] as follows:
Ce-Yb(ecp-28): M. Dolg, H. Stoll, H.Preuss, J. Chem. Phys., 1989, 90, 1730-1734.
Y-Cd(ecp-28), Hf-Hg(ecp-46): D. Andrae,U. Haeussermann, M. Dolg, H. Stoll, H. Preuss, Theor. Chim. Acta, 1990, 77, 123-141.
In-Sb(ecp-28), Tl-Bi(ecp-46): B. Metz, H. Stoll, M. Dolg, J. Chem. Phys., 2000, 113, 2563-2569.
Te-Xe(ecp-28), Po-Rn(ecp-46): K. A. Peterson, D. Figgen, E. Goll, H. Stoll, M. Dolg, J. Chem. Phys., 2003, 119, 11113-11123.
Rb(ecp-28), Cs(ecp-46): T. Leininger, A. Nicklass, W. Kuechle, H. Stoll, M. Dolg, A. Bergner, Chem. Phys. Lett., 1996, 255, 274-280.
Sr(ecp-28), Ba(ecp-46): M. Kaupp, P. V. Schleyer, H. Stoll and H. Preuss, J. Chem. Phys., 1991, 94, 1360-1366.
La(ecp-46): M. Dolg, H. Stoll, A. Savin, H. Preuss, Theor. Chim. Acta, 1989, 75, 173-194.
Lu(ecp-28): X. Cao, M. Dolg, J. Chem. Phys., 2001, 115, 7348-7355.

ECP parameters for Zr [Def2-ECP] have been obtained from:
TURBOMOLE (7.0.2)

----- Orbital basis set information -----
Your calculation utilizes the basis: def2-SV(P)
   F. Weigend and R. Ahlrichs, Phys. Chem. Chem. Phys. 7, 3297 (2005).

----- AuxJ basis set information -----
Your calculation utilizes the auxiliary basis: def2/J
   H-Rn: F. Weigend, Phys. Chem. Chem. Phys. 8, 1057 (2006).
   Fr-Lr: K. Eichkorn, F. Weigend, O. Treutler, R. Ahlrichs; Theor. Chem. Acc. 97, 119 (1997).

================================================================================
                                        WARNINGS
                       Please study these warnings very carefully!
================================================================================


WARNING: Gradients are needed
  ===> : At least TightSCF should be used for SCF convergence

WARNING: Geometry Optimization
  ===> : Switching off AutoStart
         For restart on a previous wavefunction, please use MOREAD

================================================================================
                                       INPUT FILE
================================================================================
NAME = run.inp
|  1> # Geometry optimization for (AlH3)n cluster
|  2> 
|  3> %pal nprocs 24  end
|  4> 
|  5> %geom MaxIter 500 end
|  6> 
|  7> 
|  8> ! PBE def2-SV(P)
|  9> ! RKS	# closed shell for AlH3
| 10> ! D3    #  dispersion correction
| 11> ! gCP(DFT/SV(P))
| 12> ! Freq 	# Frequency analysis to check the stabiltity of the structures
| 13> 
| 14> ! NoPop # population analysis not necessary	
| 15> 
| 16> ! DEFGRID2
| 17> ! NormalSCF
| 18> ! SloppyOpt
| 19> 
| 20> ! SmallPrint
| 21> 
| 22> 
| 23> * xyzFile 0 1 start.xyz # only maingroup elements H and Al so there should be no net spin
| 24> 
| 25>                          ****END OF INPUT****
================================================================================

                       *****************************
                       * Geometry Optimization Run *
                       *****************************

Geometry optimization settings:
Update method            Update   .... BFGS
Choice of coordinates    CoordSys .... (2022) Redundant Internals
Initial Hessian          InHess   .... Almloef's Model
Max. no of cycles        MaxIter  .... 500

Convergence Tolerances:
Energy Change            TolE     ....  8.0000e-05 Eh
Max. Gradient            TolMAXG  ....  5.0000e-03 Eh/bohr
RMS Gradient             TolRMSG  ....  1.0000e-03 Eh/bohr
Max. Displacement        TolMAXD  ....  3.0000e-02 bohr
RMS Displacement         TolRMSD  ....  2.0000e-02 bohr
Strict Convergence                .... False

------------------------------------------------------------------------------
                        ORCA OPTIMIZATION COORDINATE SETUP
------------------------------------------------------------------------------

The optimization will be done in redundant internal coordinates (2022)
Making redundant internal coordinates   ...  (2022 redundants) done
Evaluating the initial hessian          ...  (Almloef) done
Evaluating the coordinates              ...  done
Calculating the B-matrix                .... done
Calculating the G-matrix                .... done
The number of degrees of freedom        ....  889

    -----------------------------------------------------------------
                    Redundant Internal Coordinates


    -----------------------------------------------------------------
         Definition                    Initial Value    Approx d2E/dq
    -----------------------------------------------------------------
      1. B(Zr  2,Zr  1)                  3.3532         0.047180   
      2. B(Zr  3,Zr  0)                  3.4256         0.036172   
      3. B(Zr  4,Zr  3)                  3.3440         0.048809   
      4. B(Zr  4,Zr  1)                  3.4223         0.036614   
      5. B(Zr  5,Zr  2)                  3.4175         0.037258   
      6. B(Zr  5,Zr  0)                  3.4273         0.035940   
      7. B(O   6,Zr  0)                  2.1006         0.416135   
      8. B(O   6,Zr  3)                  2.1528         0.343583   
      9. B(O   6,Zr  5)                  2.1205         0.386824   
     10. B(O   7,Zr  4)                  2.1624         0.331599   
     11. B(O   7,Zr  1)                  2.1110         0.400584   
     12. B(O   7,Zr  2)                  2.1947         0.294500   
     13. B(O   8,Zr  1)                  2.0832         0.443651   
     14. B(O   8,Zr  5)                  2.1190         0.388964   
     15. B(O   8,Zr  2)                  2.1337         0.368541   
     16. B(O   9,Zr  4)                  2.0768         0.454260   
     17. B(O   9,Zr  3)                  2.1329         0.369600   
     18. B(O   9,Zr  0)                  2.1138         0.396552   
     19. B(O  10,Zr  3)                  2.1947         0.294598   
     20. B(O  10,Zr  4)                  2.1033         0.412053   
     21. B(O  10,Zr  1)                  2.1610         0.333422   
     22. B(O  11,Zr  5)                  2.0947         0.425299   
     23. B(O  11,Zr  2)                  2.1492         0.348184   
     24. B(O  11,Zr  0)                  2.1132         0.397298   
     25. B(O  12,Zr  0)                  1.9912         0.622135   
     26. B(O  13,Zr  0)                  1.9861         0.633839   
     27. B(O  14,Zr  0)                  2.0443         0.511789   
     28. B(O  15,Zr  0)                  2.0534         0.495065   
     29. B(O  16,Zr  1)                  2.0702         0.465367   
     30. B(O  17,Zr  1)                  1.9934         0.616979   
     31. B(O  18,Zr  1)                  1.9828         0.641469   
     32. B(O  19,Zr  1)                  1.9884         0.628583   
     33. B(O  20,Zr  2)                  1.9850         0.636300   
     34. B(O  21,Zr  2)                  2.0716         0.462922   
     35. B(O  22,Zr  2)                  1.9740         0.662611   
     36. B(O  23,Zr  2)                  2.0353         0.528931   
     37. B(O  24,Zr  3)                  2.0666         0.471614   
     38. B(O  25,Zr  3)                  1.9831         0.640814   
     39. B(O  26,Zr  3)                  2.0449         0.510765   
     40. B(O  27,Zr  3)                  1.9761         0.657504   
     41. B(O  28,Zr  4)                  1.9837         0.639492   
     42. B(O  29,Zr  4)                  2.0705         0.464851   
     43. B(O  30,Zr  4)                  1.9855         0.635248   
     44. B(O  31,Zr  4)                  1.9892         0.626607   
     45. B(O  32,Zr  5)                  2.0372         0.525347   
     46. B(O  33,Zr  5)                  1.9918         0.620667   
     47. B(O  34,Zr  5)                  2.0509         0.499634   
     48. B(O  35,Zr  5)                  1.9912         0.621976   
     49. B(C  36,O  33)                  1.3014         0.774796   
     50. B(C  36,O  12)                  1.3014         0.774790   
     51. B(C  37,O  25)                  1.3014         0.774898   
     52. B(C  37,O  13)                  1.3004         0.777700   
     53. B(C  38,O  21)                  1.3000         0.778903   
     54. B(C  38,O  14)                  1.3021         0.772778   
     55. B(C  39,O  29)                  1.2967         0.788393   
     56. B(C  39,O  15)                  1.2974         0.786323   
     57. B(C  40,O  34)                  1.2969         0.787726   
     58. B(C  40,O  16)                  1.2966         0.788609   
     59. B(C  41,O  26)                  1.2956         0.791647   
     60. B(C  41,O  17)                  1.2945         0.794760   
     61. B(C  42,O  22)                  1.2989         0.782095   
     62. B(C  42,O  18)                  1.2989         0.782066   
     63. B(C  43,O  19)                  1.3017         0.773986   
     64. B(C  43,O  30)                  1.3017         0.773988   
     65. B(C  44,O  35)                  1.3008         0.776718   
     66. B(C  44,O  20)                  1.3018         0.773700   
     67. B(C  45,O  31)                  1.2945         0.794802   
     68. B(C  45,O  23)                  1.2949         0.793514   
     69. B(C  46,O  32)                  1.3020         0.773045   
     70. B(C  46,O  24)                  1.3000         0.778992   
     71. B(C  47,O  28)                  1.2988         0.782267   
     72. B(C  47,O  27)                  1.2989         0.782056   
     73. B(H  48,C  41)                  1.0855         0.366134   
     74. B(H  49,C  42)                  1.0902         0.359861   
     75. B(H  50,C  38)                  1.0880         0.362804   
     76. B(H  51,C  37)                  1.0915         0.358060   
     77. B(H  52,C  43)                  1.0917         0.357822   
     78. B(H  53,C  47)                  1.0900         0.360060   
     79. B(H  54,C  39)                  1.0850         0.366842   
     80. B(H  55,C  45)                  1.0855         0.366166   
     81. B(H  56,C  40)                  1.0848         0.367066   
     82. B(H  57,C  46)                  1.0881         0.362643   
     83. B(H  58,C  36)                  1.0913         0.358375   
     84. B(H  59,C  44)                  1.0918         0.357683   
     85. B(Al 61,Al 60)                  2.7065         0.243535   
     86. B(H  62,Al 61)                  1.6774         0.291680   
     87. B(H  63,Al 61)                  1.6083         0.375879   
     88. B(H  64,Al 61)                  1.6772         0.291853   
     89. B(H  64,Al 60)                  1.6686         0.301269   
     90. B(H  65,Al 60)                  1.6037         0.382334   
     91. B(H  66,Al 60)                  1.6742         0.295049   
     92. B(H  67,H  55)                  2.5140         0.010000   
     93. B(H  67,Al 61)                  1.6152         0.366536   
     94. B(Al 68,H  62)                  1.6661         0.304010   
     95. B(Al 68,Al 61)                  2.6858         0.262708   
     96. B(H  69,O  30)                  2.8659         0.010000   
     97. B(H  69,O  31)                  2.8021         0.010000   
     98. B(H  69,Al 68)                  1.6773         0.291763   
     99. B(H  70,Al 68)                  1.6036         0.382415   
    100. B(H  71,Al 60)                  1.6040         0.381875   
    101. B(Al 72,H  69)                  1.6909         0.277504   
    102. B(Al 72,Al 68)                  3.3539         0.022574   
    103. B(Al 72,H  66)                  1.6897         0.278747   
    104. B(Al 72,Al 60)                  3.3583         0.022213   
    105. B(H  73,Al 72)                  1.6877         0.280827   
    106. B(H  74,H  55)                  2.8961         0.010000   
    107. B(H  74,O  31)                  2.8041         0.010000   
    108. B(H  74,Al 72)                  1.6161         0.365336   
    109. B(H  75,C  43)                  2.9710         0.010000   
    110. B(H  75,O  23)                  2.9188         0.010000   
    111. B(H  75,O  18)                  2.8605         0.010000   
    112. B(H  75,O  22)                  2.8560         0.010000   
    113. B(H  75,O  31)                  2.8259         0.010000   
    114. B(H  75,C  45)                  2.7768         0.010000   
    115. B(H  75,C  42)                  2.6636         0.010000   
    116. B(H  75,O  30)                  2.5610         0.010000   
    117. B(H  75,O   7)                  2.4691         0.010000   
    118. B(H  75,Al 68)                  1.6009         0.386230   
    119. B(Al 76,H  73)                  1.6728         0.296657   
    120. B(Al 76,Al 72)                  2.6569         0.292167   
    121. B(H  77,Al 76)                  1.6021         0.384542   
    122. B(H  78,O  31)                  2.8919         0.010000   
    123. B(H  78,O  30)                  2.3247         0.010000   
    124. B(H  78,Al 76)                  1.6674         0.302558   
    125. B(H  78,Al 72)                  1.6877         0.280799   
    126. B(H  79,Al 76)                  1.6023         0.384234   
    127. A(Zr  3,Zr  0,O   6)           36.8744         0.333607   
    128. A(Zr  5,Zr  0,O  12)           72.1922         0.356526   
    129. A(Zr  3,Zr  0,Zr  5)           68.1325         0.246310   
    130. A(O   9,Zr  0,O  13)           99.4985         0.502211   
    131. A(Zr  5,Zr  0,O  13)          108.7832         0.357657   
    132. A(Zr  3,Zr  0,O  11)           90.9122         0.331056   
    133. A(Zr  5,Zr  0,O  15)          154.1875         0.343044   
    134. A(O   6,Zr  0,O  11)           68.4894         0.464833   
    135. A(Zr  3,Zr  0,O   9)           36.4201         0.330953   
    136. A(O   9,Zr  0,O  15)           71.2993         0.479735   
    137. A(O   9,Zr  0,O  14)          110.3842         0.482684   
    138. A(Zr  5,Zr  0,O   9)           83.2578         0.330601   
    139. A(Zr  3,Zr  0,O  13)           74.1550         0.358049   
    140. A(O  12,Zr  0,O  13)           82.6266         0.546552   
    141. A(Zr  5,Zr  0,O  14)          106.0839         0.344961   
    142. A(O   6,Zr  0,O  12)           89.3941         0.504985   
    143. A(O  12,Zr  0,O  15)          133.5799         0.521664   
    144. A(O   9,Zr  0,O  12)          154.5491         0.500472   
    145. A(O   9,Zr  0,O  11)           85.8255         0.460755   
    146. A(O  11,Zr  0,O  13)          143.2511         0.502387   
    147. A(O  14,Zr  0,O  15)           79.6886         0.502960   
    148. A(Zr  5,Zr  0,O  11)           35.2839         0.330703   
    149. A(O  11,Zr  0,O  12)           78.0800         0.500647   
    150. A(O  13,Zr  0,O  14)          136.1033         0.526772   
    151. A(O   6,Zr  0,O  15)          129.2190         0.484021   
    152. A(O   6,Zr  0,O  14)          140.7468         0.487003   
    153. A(O  12,Zr  0,O  14)           83.4696         0.524929   
    154. A(Zr  5,Zr  0,O   6)           35.9086         0.333251   
    155. A(Zr  3,Zr  0,O  15)           92.5521         0.343414   
    156. A(Zr  3,Zr  0,O  12)          123.4709         0.356916   
    157. A(O  13,Zr  0,O  15)           80.4166         0.523493   
    158. A(O  11,Zr  0,O  14)           72.2691         0.482852   
    159. A(O   6,Zr  0,O  13)           80.4212         0.506744   
    160. A(O  11,Zr  0,O  15)          134.6470         0.479901   
    161. A(Zr  3,Zr  0,O  14)          145.2427         0.345335   
    162. A(O   6,Zr  0,O   9)           66.2280         0.464673   
    163. A(Zr  2,Zr  1,O  17)          140.7914         0.372986   
    164. A(O   8,Zr  1,O  16)           70.5511         0.484215   
    165. A(O   7,Zr  1,O  17)          143.6339         0.500639   
    166. A(O   8,Zr  1,O  18)          105.2434         0.513992   
    167. A(Zr  4,Zr  1,O   8)           84.6638         0.337861   
    168. A(Zr  4,Zr  1,O  17)          109.0748         0.357148   
    169. A(O  16,Zr  1,O  18)           80.7103         0.518613   
    170. A(O   7,Zr  1,O   8)           68.0418         0.471031   
    171. A(Zr  2,Zr  1,Zr  4)           72.5484         0.256764   
    172. A(O  10,Zr  1,O  18)          142.9053         0.487386   
    173. A(O  10,Zr  1,O  16)          134.9045         0.459473   
    174. A(O  16,Zr  1,O  17)           76.6949         0.514845   
    175. A(Zr  2,Zr  1,O  18)           75.2462         0.375499   
    176. A(O   8,Zr  1,O  10)           83.2251         0.455488   
    177. A(O  17,Zr  1,O  18)          135.0695         0.546929   
    178. A(Zr  2,Zr  1,O  19)          129.1531         0.374186   
    179. A(O   7,Zr  1,O  19)           92.1527         0.502379   
    180. A(Zr  4,Zr  1,O  16)          155.1943         0.340567   
    181. A(O   8,Zr  1,O  19)          156.6678         0.512044   
    182. A(O  10,Zr  1,O  19)           78.1581         0.485560   
    183. A(O  17,Zr  1,O  19)           85.4304         0.544831   
    184. A(O  10,Zr  1,O  17)           74.3315         0.483891   
    185. A(Zr  4,Zr  1,O  18)          107.6903         0.359521   
    186. A(O   7,Zr  1,O  18)           80.0478         0.504282   
    187. A(Zr  2,Zr  1,O  16)           87.7748         0.355426   
    188. A(O   7,Zr  1,O  10)           69.6820         0.447114   
    189. A(O   8,Zr  1,O  17)          103.0328         0.510264   
    190. A(Zr  2,Zr  1,O   7)           39.7572         0.346538   
    191. A(Zr  4,Zr  1,O   7)           37.3105         0.332175   
    192. A(Zr  2,Zr  1,O   8)           37.8529         0.352560   
    193. A(Zr  4,Zr  1,O  10)           36.0545         0.322281   
    194. A(Zr  4,Zr  1,O  19)           72.0069         0.358281   
    195. A(O  18,Zr  1,O  19)           82.1817         0.548865   
    196. A(Zr  2,Zr  1,O  10)           93.3943         0.336060   
    197. A(O  16,Zr  1,O  19)          132.7810         0.516645   
    198. A(O   7,Zr  1,O  16)          127.1987         0.475185   
    199. A(Zr  1,Zr  2,O  20)          102.3836         0.374975   
    200. A(Zr  1,Zr  2,Zr  5)           73.1595         0.257427   
    201. A(O  20,Zr  2,O  22)           82.5386         0.553533   
    202. A(Zr  1,Zr  2,O   7)           37.9615         0.329215   
    203. A(Zr  5,Zr  2,O   7)           96.1408         0.316715   
    204. A(Zr  1,Zr  2,O  22)           74.7695         0.377610   
    205. A(O  22,Zr  2,O  23)           83.4471         0.534503   
    206. A(O  21,Zr  2,O  23)           73.2190         0.499769   
    207. A(O   8,Zr  2,O  21)          131.8657         0.467515   
    208. A(O  11,Zr  2,O  20)           89.8093         0.490575   
    209. A(O   8,Zr  2,O  20)           84.3789         0.495773   
    210. A(O   7,Zr  2,O  21)          136.4054         0.448780   
    211. A(Zr  5,Zr  2,O  22)          131.3163         0.362591   
    212. A(O   8,Zr  2,O  11)           64.9065         0.443883   
    213. A(O  20,Zr  2,O  23)          141.6733         0.530436   
    214. A(O  11,Zr  2,O  23)          108.7454         0.474124   
    215. A(O   8,Zr  2,O  23)          133.7031         0.479109   
    216. A(O  20,Zr  2,O  21)           83.6286         0.517316   
    217. A(Zr  5,Zr  2,O  23)          141.3319         0.348988   
    218. A(O  21,Zr  2,O  22)          120.3867         0.521262   
    219. A(O  11,Zr  2,O  22)          167.1389         0.494275   
    220. A(O   8,Zr  2,O  22)          103.8842         0.499521   
    221. A(O   7,Zr  2,O  22)           79.4976         0.479202   
    222. A(Zr  5,Zr  2,O   8)           36.3776         0.328573   
    223. A(O  11,Zr  2,O  21)           68.6155         0.462678   
    224. A(O   7,Zr  2,O  11)          100.1941         0.426318   
    225. A(O   7,Zr  2,O  23)           71.1936         0.459801   
    226. A(Zr  5,Zr  2,O  21)           96.1298         0.341261   
    227. A(Zr  1,Zr  2,O  21)          164.5724         0.355108   
    228. A(Zr  1,Zr  2,O  11)           96.9680         0.338494   
    229. A(Zr  1,Zr  2,O  23)          107.9943         0.363259   
    230. A(O   7,Zr  2,O  20)          139.6862         0.475640   
    231. A(Zr  5,Zr  2,O  20)           69.8963         0.360093   
    232. A(O   7,Zr  2,O   8)           65.6453         0.430684   
    233. A(Zr  1,Zr  2,O   8)           36.8065         0.341724   
    234. A(Zr  5,Zr  2,O  11)           35.8244         0.325511   
    235. A(Zr  4,Zr  3,O  24)          164.4404         0.358292   
    236. A(O   9,Zr  3,O  10)           65.6696         0.430932   
    237. A(O   6,Zr  3,O   9)           64.9876         0.443046   
    238. A(Zr  0,Zr  3,O  10)           95.8245         0.315213   
    239. A(Zr  4,Zr  3,O  10)           37.9453         0.331086   
    240. A(O   6,Zr  3,O  24)           68.7624         0.463126   
    241. A(Zr  4,Zr  3,O  25)          102.9539         0.377642   
    242. A(O  26,Zr  3,O  27)           82.6561         0.530219   
    243. A(O   9,Zr  3,O  25)           84.6157         0.496689   
    244. A(O  24,Zr  3,O  27)          120.4727         0.522327   
    245. A(O   9,Zr  3,O  27)          103.4733         0.499069   
    246. A(Zr  4,Zr  3,O  27)           74.6075         0.379327   
    247. A(O   6,Zr  3,O  26)          110.4468         0.469941   
    248. A(O  24,Zr  3,O  25)           83.9976         0.519812   
    249. A(O  25,Zr  3,O  26)          141.3413         0.527659   
    250. A(O  10,Zr  3,O  26)           70.5636         0.456907   
    251. A(O  24,Zr  3,O  26)           73.3546         0.498252   
    252. A(Zr  4,Zr  3,O   6)           97.1777         0.339663   
    253. A(Zr  4,Zr  3,O  26)          107.1232         0.363197   
    254. A(Zr  0,Zr  3,O  26)          142.4623         0.345218   
    255. A(O  10,Zr  3,O  25)          140.2896         0.476288   
    256. A(O   6,Zr  3,O  25)           88.9367         0.490009   
    257. A(O   6,Zr  3,O  27)          166.3612         0.492350   
    258. A(Zr  0,Zr  3,O  25)           69.9487         0.358716   
    259. A(O  10,Zr  3,O  24)          135.4430         0.450325   
    260. A(O   9,Zr  3,O  24)          132.4259         0.469359   
    261. A(Zr  0,Zr  3,O   9)           36.0413         0.327129   
    262. A(O   9,Zr  3,O  26)          133.6321         0.476286   
    263. A(Zr  0,Zr  3,O   6)           35.8402         0.323227   
    264. A(Zr  0,Zr  3,O  24)           97.1195         0.340635   
    265. A(O  10,Zr  3,O  27)           79.7675         0.478549   
    266. A(O  25,Zr  3,O  27)           82.4952         0.553463   
    267. A(Zr  0,Zr  3,O  27)          130.5611         0.360290   
    268. A(Zr  0,Zr  3,Zr  4)           72.8372         0.257594   
    269. A(O   6,Zr  3,O  10)          100.6014         0.425329   
    270. A(Zr  4,Zr  3,O   9)           36.8247         0.343838   
    271. A(O   9,Zr  4,O  10)           68.3139         0.475541   
    272. A(Zr  3,Zr  4,O  10)           39.9121         0.350188   
    273. A(O   7,Zr  4,O   9)           84.0791         0.456996   
    274. A(O   9,Zr  4,O  28)          105.7928         0.515972   
    275. A(Zr  1,Zr  4,O  28)          107.2833         0.359332   
    276. A(O   7,Zr  4,O  30)           77.8222         0.486015   
    277. A(O  30,Zr  4,O  31)           87.2082         0.547524   
    278. A(O   9,Zr  4,O  31)          101.6724         0.514010   
    279. A(O   7,Zr  4,O  31)           74.4103         0.484786   
    280. A(Zr  1,Zr  4,O  10)           37.2060         0.333733   
    281. A(O  29,Zr  4,O  30)          132.1121         0.517559   
    282. A(O   7,Zr  4,O  29)          136.1302         0.458921   
    283. A(Zr  1,Zr  4,Zr  3)           72.8205         0.258058   
    284. A(O   7,Zr  4,O  10)           69.7933         0.448963   
    285. A(O  28,Zr  4,O  30)           81.1305         0.549642   
    286. A(Zr  1,Zr  4,O  31)          109.6486         0.358089   
    287. A(Zr  3,Zr  4,O  28)           75.6848         0.377507   
    288. A(Zr  1,Zr  4,O  30)           71.6270         0.358925   
    289. A(Zr  3,Zr  4,O   9)           37.9935         0.356017   
    290. A(Zr  3,Zr  4,O  31)          139.5926         0.376181   
    291. A(Zr  3,Zr  4,O  29)           87.9161         0.357413   
    292. A(Zr  1,Zr  4,O  29)          156.2605         0.340504   
    293. A(O  10,Zr  4,O  30)           91.8486         0.506023   
    294. A(O  29,Zr  4,O  31)           76.1042         0.516233   
    295. A(O  28,Zr  4,O  31)          135.1898         0.548216   
    296. A(Zr  1,Zr  4,O   7)           36.2787         0.321992   
    297. A(O  10,Zr  4,O  31)          143.5365         0.504732   
    298. A(O  10,Zr  4,O  29)          127.4270         0.477563   
    299. A(O   9,Zr  4,O  29)           70.9399         0.486235   
    300. A(O  10,Zr  4,O  28)           80.3060         0.506652   
    301. A(O  28,Zr  4,O  29)           80.2802         0.518205   
    302. A(O   9,Zr  4,O  30)          156.9358         0.515329   
    303. A(Zr  1,Zr  4,O   9)           85.3214         0.339195   
    304. A(O   7,Zr  4,O  28)          142.4881         0.486614   
    305. A(Zr  3,Zr  4,O   7)           94.0062         0.337657   
    306. A(Zr  3,Zr  4,O  30)          128.8305         0.377073   
    307. A(Zr  0,Zr  5,O  33)           72.4852         0.356383   
    308. A(Zr  2,Zr  5,O  35)           73.8361         0.358700   
    309. A(O  11,Zr  5,O  33)           90.2844         0.506818   
    310. A(O  34,Zr  5,O  35)           80.2093         0.522539   
    311. A(O  33,Zr  5,O  35)           82.3058         0.544356   
    312. A(O   8,Zr  5,O  35)           99.9099         0.498653   
    313. A(Zr  0,Zr  5,O  35)          107.7774         0.356511   
    314. A(O  32,Zr  5,O  34)           79.7768         0.506284   
    315. A(O  11,Zr  5,O  32)          140.8941         0.491344   
    316. A(O  32,Zr  5,O  33)           83.8098         0.527282   
    317. A(O   6,Zr  5,O  34)          136.0173         0.478353   
    318. A(O   8,Zr  5,O  34)           71.1921         0.478840   
    319. A(Zr  0,Zr  5,O  34)          154.5145         0.343573   
    320. A(O  11,Zr  5,O  34)          128.5417         0.486800   
    321. A(O   8,Zr  5,O  33)          155.2480         0.498457   
    322. A(O   6,Zr  5,O  33)           77.4963         0.497946   
    323. A(Zr  2,Zr  5,O  33)          124.1694         0.358572   
    324. A(O   8,Zr  5,O  32)          109.4348         0.483293   
    325. A(Zr  2,Zr  5,O   6)           91.6973         0.331213   
    326. A(Zr  2,Zr  5,O  32)          144.7905         0.348588   
    327. A(O   6,Zr  5,O  35)          142.2545         0.498141   
    328. A(Zr  2,Zr  5,O  34)           91.8396         0.345656   
    329. A(O  11,Zr  5,O  35)           80.2014         0.507017   
    330. A(O  32,Zr  5,O  35)          136.4975         0.527491   
    331. A(Zr  0,Zr  5,O   6)           35.5205         0.329246   
    332. A(Zr  0,Zr  5,Zr  2)           68.3390         0.247367   
    333. A(O   6,Zr  5,O  32)           72.5216         0.482801   
    334. A(Zr  0,Zr  5,O  32)          106.8565         0.346480   
    335. A(O  33,Zr  5,O  34)          132.9989         0.522333   
    336. A(O   8,Zr  5,O  11)           66.1045         0.464883   
    337. A(O   6,Zr  5,O  11)           68.4621         0.464413   
    338. A(Zr  2,Zr  5,O  11)           36.9072         0.336467   
    339. A(Zr  0,Zr  5,O  11)           35.6435         0.334458   
    340. A(O   6,Zr  5,O   8)           86.4995         0.456901   
    341. A(Zr  2,Zr  5,O   8)           36.6706         0.331515   
    342. A(Zr  0,Zr  5,O   8)           83.4926         0.329546   
    343. A(Zr  3,O   6,Zr  5)          127.8662         0.446715   
    344. A(Zr  0,O   6,Zr  5)          108.5709         0.462567   
    345. A(Zr  0,O   6,Zr  3)          107.2853         0.452677   
    346. A(Zr  4,O   7,H  75)           98.1947         0.169542   
    347. A(Zr  1,O   7,H  75)          108.8542         0.173062   
    348. A(Zr  2,O   7,Zr  4)          133.8843         0.422612   
    349. A(Zr  1,O   7,Zr  4)          106.4107         0.446670   
    350. A(Zr  1,O   7,Zr  2)          102.2813         0.437193   
    351. A(Zr  2,O   7,H  75)          105.7537         0.167408   
    352. A(Zr  1,O   8,Zr  2)          105.3406         0.463889   
    353. A(Zr  2,O   8,Zr  5)          106.9518         0.452892   
    354. A(Zr  1,O   8,Zr  5)          147.5931         0.468494   
    355. A(Zr  3,O   9,Zr  4)          105.1819         0.466145   
    356. A(Zr  0,O   9,Zr  4)          147.1473         0.472201   
    357. A(Zr  0,O   9,Zr  3)          107.5386         0.454724   
    358. A(Zr  3,O  10,Zr  4)          102.1425         0.439451   
    359. A(Zr  1,O  10,Zr  4)          106.7395         0.449410   
    360. A(Zr  1,O  10,Zr  3)          134.4954         0.423052   
    361. A(Zr  2,O  11,Zr  5)          107.2684         0.455577   
    362. A(Zr  0,O  11,Zr  5)          109.0727         0.466691   
    363. A(Zr  0,O  11,Zr  2)          128.8222         0.449970   
    364. A(Zr  0,O  12,C  36)          128.5139         0.502594   
    365. A(Zr  0,O  13,C  37)          126.1704         0.504695   
    366. A(Zr  0,O  14,C  38)          135.9191         0.484482   
    367. A(Zr  0,O  15,C  39)          140.5237         0.483066   
    368. A(Zr  1,O  16,C  40)          136.2908         0.477842   
    369. A(Zr  1,O  17,C  41)          137.7826         0.504201   
    370. A(Zr  1,O  18,C  42)          130.6551         0.506351   
    371. A(C  42,O  18,H  75)           68.0743         0.150012   
    372. A(Zr  1,O  18,H  75)           99.1683         0.156537   
    373. A(Zr  1,O  19,C  43)          127.5498         0.503463   
    374. A(Zr  2,O  20,C  44)          129.4546         0.504575   
    375. A(Zr  2,O  21,C  38)          126.2294         0.476292   
    376. A(Zr  2,O  22,C  42)          131.7705         0.509429   
    377. A(C  42,O  22,H  75)           68.2534         0.150243   
    378. A(Zr  2,O  22,H  75)           99.1996         0.157292   
    379. A(C  45,O  23,H  75)           70.8012         0.147316   
    380. A(Zr  2,O  23,H  75)           95.7662         0.150591   
    381. A(Zr  2,O  23,C  45)          141.6362         0.489837   
    382. A(Zr  3,O  24,C  46)          126.3376         0.477936   
    383. A(Zr  3,O  25,C  37)          130.4459         0.505386   
    384. A(Zr  3,O  26,C  41)          142.0414         0.486467   
    385. A(Zr  3,O  27,C  47)          132.0641         0.508689   
    386. A(Zr  4,O  28,C  47)          130.1340         0.506084   
    387. A(Zr  4,O  29,C  39)          134.8630         0.477721   
    388. A(H  69,O  30,H  78)           47.7292         0.104347   
    389. A(Zr  4,O  30,H  69)          104.7512         0.156090   
    390. A(C  43,O  30,H  69)          123.8057         0.149600   
    391. A(H  69,O  30,H  75)           52.8335         0.101610   
    392. A(H  75,O  30,H  78)           99.7178         0.108775   
    393. A(C  43,O  30,H  75)           94.9380         0.167085   
    394. A(Zr  4,O  30,H  75)          100.1613         0.175448   
    395. A(C  43,O  30,H  78)          136.5738         0.184036   
    396. A(Zr  4,O  30,H  78)           89.6034         0.194214   
    397. A(Zr  4,O  30,C  43)          127.6587         0.504454   
    398. A(H  75,O  31,H  78)           81.6402         0.098900   
    399. A(H  69,O  31,H  78)           44.4975         0.099098   
    400. A(C  45,O  31,H  78)          138.4625         0.148658   
    401. A(Zr  4,O  31,H  78)           74.6909         0.154448   
    402. A(H  74,O  31,H  78)           55.7852         0.099081   
    403. A(H  74,O  31,H  75)          108.9729         0.099650   
    404. A(H  69,O  31,H  75)           51.1529         0.099668   
    405. A(C  45,O  31,H  75)           74.5349         0.152024   
    406. A(Zr  4,O  31,H  75)           91.7945         0.158141   
    407. A(H  69,O  31,H  74)           59.1242         0.099863   
    408. A(C  45,O  31,H  74)          100.7687         0.153177   
    409. A(Zr  4,O  31,H  74)          120.8431         0.159406   
    410. A(C  45,O  31,H  69)           94.7711         0.153287   
    411. A(Zr  4,O  31,H  69)          106.9206         0.159527   
    412. A(Zr  4,O  31,C  45)          138.3691         0.505663   
    413. A(Zr  5,O  32,C  46)          136.1403         0.486861   
    414. A(Zr  5,O  33,C  36)          128.0637         0.502374   
    415. A(Zr  5,O  34,C  40)          140.3299         0.484046   
    416. A(Zr  5,O  35,C  44)          125.6434         0.502803   
    417. A(O  12,C  36,O  33)          127.6565         0.464441   
    418. A(O  33,C  36,H  58)          116.1709         0.363981   
    419. A(O  12,C  36,H  58)          116.1727         0.363980   
    420. A(O  13,C  37,O  25)          126.9943         0.464771   
    421. A(O  25,C  37,H  51)          116.5363         0.363934   
    422. A(O  13,C  37,H  51)          116.4643         0.364159   
    423. A(O  14,C  38,O  21)          129.6619         0.464669   
    424. A(O  21,C  38,H  50)          115.0675         0.365076   
    425. A(O  14,C  38,H  50)          115.2642         0.364584   
    426. A(O  15,C  39,O  29)          130.0248         0.467185   
    427. A(O  29,C  39,H  54)          115.0031         0.366529   
    428. A(O  15,C  39,H  54)          114.9640         0.366363   
    429. A(O  16,C  40,O  34)          130.0727         0.467361   
    430. A(O  34,C  40,H  56)          114.9865         0.366514   
    431. A(O  16,C  40,H  56)          114.9338         0.366584   
    432. A(O  17,C  41,O  26)          129.1048         0.468453   
    433. A(O  26,C  41,H  48)          115.4228         0.366666   
    434. A(O  17,C  41,H  48)          115.4692         0.366913   
    435. A(O  18,C  42,O  22)          127.4897         0.466035   
    436. A(H  49,C  42,H  75)          100.9163         0.143537   
    437. A(O  22,C  42,H  75)           84.8148         0.163550   
    438. A(O  18,C  42,H  75)           85.0302         0.163549   
    439. A(O  22,C  42,H  49)          116.2270         0.364823   
    440. A(O  18,C  42,H  49)          116.2800         0.364821   
    441. A(O  30,C  43,H  75)           59.1806         0.146600   
    442. A(O  19,C  43,H  75)          102.6096         0.146600   
    443. A(H  52,C  43,H  75)          108.8762         0.131183   
    444. A(O  30,C  43,H  52)          116.4829         0.363820   
    445. A(O  19,C  43,H  52)          116.4610         0.363820   
    446. A(O  19,C  43,O  30)          127.0546         0.464264   
    447. A(O  35,C  44,H  59)          116.5226         0.364015   
    448. A(O  20,C  44,H  59)          116.5986         0.363772   
    449. A(O  20,C  44,O  35)          126.8737         0.464532   
    450. A(H  55,C  45,H  75)          111.5114         0.138835   
    451. A(O  31,C  45,H  75)           78.7662         0.157103   
    452. A(O  23,C  45,H  75)           83.0693         0.157078   
    453. A(O  31,C  45,H  55)          115.5895         0.366921   
    454. A(O  23,C  45,H  55)          115.4312         0.366820   
    455. A(O  23,C  45,O  31)          128.9793         0.468660   
    456. A(O  32,C  46,H  57)          115.2375         0.364577   
    457. A(O  24,C  46,H  57)          115.1655         0.365056   
    458. A(O  24,C  46,O  32)          129.5919         0.464708   
    459. A(O  28,C  47,H  53)          116.2735         0.364871   
    460. A(O  27,C  47,H  53)          116.2709         0.364854   
    461. A(O  27,C  47,O  28)          127.4553         0.466053   
    462. A(H  67,H  55,H  74)           82.3219         0.093163   
    463. A(C  45,H  55,H  74)          102.2105         0.113822   
    464. A(C  45,H  55,H  67)          143.7118         0.123105   
    465. A(H  71,Al 60,Al 72)           95.1763         0.274266   
    466. A(H  65,Al 60,Al 72)           93.2221         0.274317   
    467. A(H  64,Al 60,Al 72)          110.0500         0.264587   
    468. A(Al 61,Al 60,Al 72)           74.4020         0.293113   
    469. A(H  66,Al 60,H  71)           93.7573         0.361739   
    470. A(H  65,Al 60,H  71)          156.3932         0.378215   
    471. A(H  64,Al 60,H  71)           99.5835         0.363030   
    472. A(Al 61,Al 60,H  71)           97.4241         0.407550   
    473. A(H  65,Al 60,H  66)           93.3897         0.361813   
    474. A(H  64,Al 60,H  66)          113.2985         0.347489   
    475. A(Al 61,Al 60,H  66)           77.5613         0.389484   
    476. A(H  64,Al 60,H  65)           98.1661         0.363104   
    477. A(Al 61,Al 60,H  65)          106.0822         0.407637   
    478. A(Al 61,Al 60,H  64)           36.1166         0.390907   
    479. A(H  67,Al 61,Al 68)          121.2847         0.410068   
    480. A(H  64,Al 61,Al 68)          110.0175         0.393930   
    481. A(H  63,Al 61,Al 68)          123.7594         0.411902   
    482. A(H  62,Al 61,Al 68)           36.4094         0.393889   
    483. A(Al 60,Al 61,Al 68)           94.8688         0.446028   
    484. A(H  64,Al 61,H  67)          119.6594         0.358554   
    485. A(H  63,Al 61,H  67)           87.6154         0.374441   
    486. A(H  62,Al 61,H  67)          118.3249         0.358518   
    487. A(Al 60,Al 61,H  67)          107.1234         0.404608   
    488. A(H  63,Al 61,H  64)           88.9922         0.360094   
    489. A(H  62,Al 61,H  64)          121.7448         0.344971   
    490. A(Al 60,Al 61,H  64)           35.9015         0.388745   
    491. A(H  62,Al 61,H  63)           88.1833         0.360058   
    492. A(Al 60,Al 61,H  63)          123.4411         0.406411   
    493. A(Al 60,Al 61,H  62)          125.5480         0.388704   
    494. A(Al 61,H  62,Al 68)          106.8948         0.347347   
    495. A(Al 60,H  64,Al 61)          107.9819         0.346852   
    496. A(Al 60,H  66,Al 72)          173.3621         0.342983   
    497. A(H  55,H  67,Al 61)          107.3241         0.129290   
    498. A(Al 72,Al 68,H  75)          100.9345         0.275421   
    499. A(H  70,Al 68,H  75)          148.4764         0.378972   
    500. A(H  69,Al 68,H  75)           95.6374         0.361747   
    501. A(H  62,Al 68,H  75)           94.7578         0.364298   
    502. A(Al 61,Al 68,H  75)          114.8758         0.413894   
    503. A(H  70,Al 68,Al 72)           94.2598         0.275003   
    504. A(H  69,Al 68,Al 72)            5.3020         0.263954   
    505. A(H  62,Al 68,Al 72)          108.6681         0.265590   
    506. A(Al 61,Al 68,Al 72)           74.7223         0.297403   
    507. A(H  69,Al 68,H  70)           99.0492         0.361135   
    508. A(H  62,Al 68,H  70)          106.3633         0.363680   
    509. A(Al 61,Al 68,H  70)           95.6582         0.413165   
    510. A(H  62,Al 68,H  69)          109.1778         0.347363   
    511. A(Al 61,Al 68,H  69)           76.6412         0.393909   
    512. A(Al 61,Al 68,H  62)           36.6958         0.396760   
    513. A(O  30,H  69,O  31)           57.8338         0.099319   
    514. A(O  30,H  69,Al 72)          101.9660         0.138485   
    515. A(O  30,H  69,Al 68)           85.4699         0.139049   
    516. A(O  31,H  69,Al 72)           85.4711         0.141181   
    517. A(O  31,H  69,Al 68)          104.9291         0.141776   
    518. A(Al 68,H  69,Al 72)          169.4390         0.342083   
    519. A(Al 76,Al 72,H  78)           37.3699         0.398637   
    520. A(H  74,Al 72,H  78)          107.5690         0.356011   
    521. A(H  73,Al 72,H  78)           74.9124         0.340576   
    522. A(H  69,Al 72,H  78)           79.3712         0.339899   
    523. A(Al 68,Al 72,H  78)           82.2101         0.262444   
    524. A(H  66,Al 72,H  78)          142.1791         0.340153   
    525. A(Al 60,Al 72,H  78)          141.4075         0.261812   
    526. A(H  74,Al 72,Al 76)          122.6926         0.417641   
    527. A(H  73,Al 72,Al 76)           37.5577         0.398644   
    528. A(H  69,Al 72,Al 76)          102.3941         0.397811   
    529. A(Al 68,Al 72,Al 76)          102.5842         0.302478   
    530. A(H  66,Al 72,Al 76)          119.4809         0.398123   
    531. A(Al 60,Al 72,Al 76)          121.0417         0.301700   
    532. A(H  73,Al 72,H  74)          122.5177         0.356017   
    533. A(H  69,Al 72,H  74)          113.4998         0.355298   
    534. A(Al 68,Al 72,H  74)          117.0283         0.273089   
    535. A(H  66,Al 72,H  74)          109.7232         0.355568   
    536. A(Al 60,Al 72,H  74)          109.7724         0.272419   
    537. A(H  69,Al 72,H  73)          122.9695         0.339905   
    538. A(Al 68,Al 72,H  73)          120.0937         0.262448   
    539. A(H  66,Al 72,H  73)           90.1626         0.340158   
    540. A(Al 60,Al 72,H  73)           92.8231         0.261816   
    541. A(Al 68,Al 72,H  69)            5.2591         0.261981   
    542. A(H  66,Al 72,H  69)           80.3329         0.339483   
    543. A(Al 60,Al 72,H  69)           77.2343         0.261351   
    544. A(H  66,Al 72,Al 68)           75.6001         0.262156   
    545. A(Al 60,Al 72,Al 68)           72.5525         0.208145   
    546. A(Al 72,H  73,Al 76)          104.4904         0.343724   
    547. A(O  31,H  74,H  55)           41.4032         0.094732   
    548. A(H  55,H  74,Al 72)          102.3517         0.118302   
    549. A(O  31,H  74,Al 72)           86.7601         0.144437   
    550. A(O  23,H  75,C  43)          118.2185         0.097901   
    551. A(O  18,H  75,C  43)           68.0710         0.098343   
    552. A(O  22,H  75,C  43)          111.1382         0.098378   
    553. A(O  31,H  75,C  43)           85.5058         0.098616   
    554. A(C  43,H  75,C  45)          110.7463         0.099391   
    555. A(O  30,H  75,C  43)           25.8814         0.100985   
    556. A(O   7,H  75,C  43)           67.6713         0.101937   
    557. A(C  43,H  75,Al 68)           99.7308         0.139690   
    558. A(O  18,H  75,O  23)           94.1116         0.098406   
    559. A(O  23,H  75,O  31)           47.9742         0.098680   
    560. A(O  23,H  75,C  45)           26.1295         0.099461   
    561. A(O  23,H  75,C  42)           81.3826         0.100493   
    562. A(O  23,H  75,O  30)          101.4613         0.101066   
    563. A(O   7,H  75,O  23)           53.6824         0.102024   
    564. A(O  23,H  75,Al 68)          127.3492         0.140031   
    565. A(O  18,H  75,O  22)           48.1017         0.098911   
    566. A(O  18,H  75,O  31)          114.8542         0.099161   
    567. A(O  18,H  75,C  45)          115.6007         0.099980   
    568. A(O  18,H  75,C  42)           26.8955         0.101064   
    569. A(O  18,H  75,O  30)           87.5807         0.101666   
    570. A(O   7,H  75,O  18)           58.7031         0.102671   
    571. A(O  18,H  75,Al 68)          135.3272         0.142567   
    572. A(O  22,H  75,O  31)           98.2627         0.099200   
    573. A(O  22,H  75,C  45)           81.1318         0.100022   
    574. A(O  22,H  75,C  42)           26.9317         0.101109   
    575. A(O  22,H  75,O  30)          119.5819         0.101714   
    576. A(O   7,H  75,O  22)           59.6839         0.102723   
    577. A(O  22,H  75,Al 68)          141.7958         0.142769   
    578. A(O  31,H  75,C  45)           26.6988         0.100301   
    579. A(O  31,H  75,C  42)          119.5587         0.101416   
    580. A(O  30,H  75,O  31)           60.9421         0.102035   
    581. A(O   7,H  75,O  31)           56.2091         0.103070   
    582. A(O  31,H  75,Al 68)          106.2871         0.144131   
    583. A(C  42,H  75,C  45)          107.1610         0.102416   
    584. A(O  30,H  75,C  45)           87.2908         0.103086   
    585. A(O   7,H  75,C  45)           62.4324         0.104204   
    586. A(C  45,H  75,Al 68)          108.9366         0.148573   
    587. A(O  30,H  75,C  42)          113.2451         0.104476   
    588. A(O   7,H  75,C  42)           68.3411         0.105704   
    589. A(C  42,H  75,Al 68)          132.7133         0.154451   
    590. A(O   7,H  75,O  30)           62.4559         0.106538   
    591. A(O  30,H  75,Al 68)           98.0308         0.157717   
    592. A(O   7,H  75,Al 68)          157.8366         0.163171   
    593. A(C  42,H  75,C  43)           94.9655         0.100416   
    594. A(O  22,H  75,O  23)           55.0370         0.098441   
    595. A(H  78,Al 76,H  79)           93.2361         0.363677   
    596. A(H  77,Al 76,H  79)          168.5756         0.378996   
    597. A(H  73,Al 76,H  79)           95.6708         0.362455   
    598. A(Al 72,Al 76,H  79)           94.8163         0.421414   
    599. A(H  77,Al 76,H  78)           92.1052         0.363727   
    600. A(H  73,Al 76,H  78)           75.8414         0.348057   
    601. A(Al 72,Al 76,H  78)           37.9049         0.403912   
    602. A(H  73,Al 76,H  77)           95.4250         0.362505   
    603. A(Al 72,Al 76,H  77)           95.6018         0.421475   
    604. A(Al 72,Al 76,H  73)           37.9519         0.402511   
    605. A(O  30,H  78,O  31)           62.2857         0.104018   
    606. A(O  31,H  78,Al 76)          166.5487         0.138381   
    607. A(O  31,H  78,Al 72)           82.6479         0.137553   
    608. A(O  30,H  78,Al 76)          118.1775         0.168138   
    609. A(O  30,H  78,Al 72)          127.9832         0.166812   
    610. A(Al 72,H  78,Al 76)          104.7252         0.344856   
    611. D(O   7,Zr  2,Zr  1,Zr  4)    -22.2152         0.010000   
    612. D(Zr  5,Zr  2,Zr  1,Zr  4)    102.5109         0.010000   
    613. D(Zr  5,Zr  2,Zr  1,O   7)    124.7261         0.010000   
    614. D(O   6,Zr  3,Zr  0,Zr  5)     23.1615         0.010000   
    615. D(Zr  4,Zr  3,Zr  0,O   6)   -130.6111         0.010000   
    616. D(Zr  4,Zr  3,Zr  0,Zr  5)   -107.4496         0.010000   
    617. D(Zr  3,Zr  4,Zr  1,Zr  2)    -99.4990         0.010000   
    618. D(Zr  1,Zr  4,Zr  3,Zr  0)    103.0598         0.010000   
    619. D(Zr  1,Zr  4,Zr  3,O   6)     76.4437         0.010000   
    620. D(O   7,Zr  4,Zr  3,Zr  0)     73.2308         0.010000   
    621. D(Zr  3,Zr  4,Zr  1,O   7)   -123.0098         0.010000   
    622. D(O   7,Zr  4,Zr  1,Zr  2)     23.5107         0.010000   
    623. D(Zr  2,Zr  5,Zr  0,O   6)    127.6783         0.010000   
    624. D(Zr  2,Zr  5,Zr  0,Zr  3)    103.9485         0.010000   
    625. D(O   6,Zr  5,Zr  0,Zr  3)    -23.7298         0.010000   
    626. D(O   6,Zr  5,Zr  2,Zr  1)    -80.1055         0.010000   
    627. D(Zr  0,Zr  5,Zr  2,O   7)    -76.9317         0.010000   
    628. D(Zr  0,Zr  5,Zr  2,Zr  1)   -107.4947         0.010000   
    629. D(Zr  3,O   6,Zr  5,Zr  0)    131.1689         0.010000   
    630. D(Zr  0,O   6,Zr  5,Zr  2)    -47.3824         0.010000   
    631. D(Zr  0,O   6,Zr  5,O   8)    -83.6999         0.010000   
    632. D(Zr  0,O   6,Zr  3,Zr  4)     46.9762         0.010000   
    633. D(Zr  5,O   6,Zr  3,Zr  0)   -131.6407         0.010000   
    634. D(Zr  5,O   6,Zr  0,Zr  3)    141.5097         0.010000   
    635. D(Zr  3,O   6,Zr  0,Zr  5)   -141.5097         0.010000   
    636. D(Zr  0,O   6,Zr  3,O   9)     28.6075         0.010000   
    637. D(Zr  3,O   6,Zr  0,O   9)    -28.5827         0.010000   
    638. D(Zr  1,O   7,Zr  2,Zr  5)    -52.2957         0.010000   
    639. D(Zr  2,O   7,Zr  1,O   8)     32.1612         0.010000   
    640. D(Zr  4,O   7,Zr  1,Zr  2)   -143.4834         0.010000   
    641. D(Zr  2,O   7,Zr  1,Zr  4)    143.4834         0.010000   
    642. D(Zr  1,O   7,Zr  4,O   9)     90.1549         0.010000   
    643. D(Zr  1,O   7,Zr  4,Zr  3)     53.4297         0.010000   
    644. D(Zr  4,O   7,Zr  2,Zr  1)    127.6289         0.010000   
    645. D(Zr  1,O   7,Zr  2,O   8)    -31.9439         0.010000   
    646. D(Zr  2,O   7,Zr  4,Zr  1)   -126.2230         0.010000   
    647. D(Zr  2,O   8,Zr  5,Zr  0)     62.0389         0.010000   
    648. D(Zr  5,O   8,Zr  2,Zr  1)   -177.2412         0.010000   
    649. D(Zr  1,O   8,Zr  5,Zr  0)   -112.9925         0.010000   
    650. D(Zr  1,O   8,Zr  2,O   7)     32.9041         0.010000   
    651. D(Zr  1,O   8,Zr  5,Zr  2)   -175.0314         0.010000   
    652. D(Zr  5,O   8,Zr  1,Zr  2)    175.0718         0.010000   
    653. D(Zr  2,O   8,Zr  1,O   7)    -33.6948         0.010000   
    654. D(Zr  2,O   8,Zr  1,Zr  4)    -68.2432         0.010000   
    655. D(Zr  1,O   8,Zr  2,Zr  5)    177.2412         0.010000   
    656. D(Zr  3,O   9,Zr  4,Zr  1)    -67.8735         0.010000   
    657. D(Zr  4,O   9,Zr  3,Zr  0)    177.0136         0.010000   
    658. D(Zr  0,O   9,Zr  4,Zr  1)    106.8723         0.010000   
    659. D(Zr  0,O   9,Zr  3,O   6)    -28.4567         0.010000   
    660. D(Zr  0,O   9,Zr  3,Zr  4)   -177.0136         0.010000   
    661. D(Zr  0,O   9,Zr  4,Zr  3)    174.7458         0.010000   
    662. D(Zr  4,O   9,Zr  0,Zr  3)   -174.6818         0.010000   
    663. D(Zr  3,O   9,Zr  0,Zr  5)     61.8688         0.010000   
    664. D(Zr  3,O   9,Zr  0,O   6)     28.9177         0.010000   
    665. D(Zr  1,O  10,Zr  3,Zr  4)    128.6400         0.010000   
    666. D(Zr  1,O  10,Zr  4,Zr  3)   -144.4222         0.010000   
    667. D(Zr  4,O  10,Zr  3,Zr  0)    -52.1787         0.010000   
    668. D(Zr  1,O  10,Zr  3,Zr  0)     76.4613         0.010000   
    669. D(Zr  4,O  10,Zr  1,Zr  2)     53.7065         0.010000   
    670. D(Zr  3,O  10,Zr  1,Zr  2)    -73.4109         0.010000   
    671. D(Zr  1,O  10,Zr  4,O   7)    -20.6400         0.010000   
    672. D(Zr  3,O  10,Zr  4,Zr  1)    144.4222         0.010000   
    673. D(Zr  3,O  10,Zr  1,Zr  4)   -127.1174         0.010000   
    674. D(Zr  2,O  11,Zr  5,Zr  0)   -143.3320         0.010000   
    675. D(Zr  0,O  11,Zr  5,Zr  2)    143.3320         0.010000   
    676. D(Zr  5,O  11,Zr  2,Zr  1)     48.0900         0.010000   
    677. D(Zr  0,O  11,Zr  2,Zr  5)   -133.5789         0.010000   
    678. D(Zr  0,O  11,Zr  2,Zr  1)    -85.4889         0.010000   
    679. D(Zr  5,O  11,Zr  0,Zr  3)    -48.1336         0.010000   
    680. D(Zr  0,O  11,Zr  5,O   6)     17.9839         0.010000   
    681. D(Zr  2,O  11,Zr  0,Zr  5)    132.9497         0.010000   
    682. D(Zr  2,O  11,Zr  0,Zr  3)     84.8161         0.010000   
    683. D(C  36,O  12,Zr  0,Zr  5)    -27.3677         0.010000   
    684. D(C  36,O  12,Zr  0,Zr  3)     19.6830         0.010000   
    685. D(C  37,O  13,Zr  0,Zr  5)    -84.1945         0.010000   
    686. D(C  37,O  13,Zr  0,Zr  3)    -24.5577         0.010000   
    687. D(C  38,O  14,Zr  0,Zr  5)     -1.4736         0.010000   
    688. D(C  38,O  14,Zr  0,Zr  3)    -76.1407         0.010000   
    689. D(C  39,O  15,Zr  0,Zr  5)      5.4644         0.010000   
    690. D(C  39,O  15,Zr  0,Zr  3)    -34.7095         0.010000   
    691. D(C  40,O  16,Zr  1,Zr  4)     28.8901         0.010000   
    692. D(C  40,O  16,Zr  1,Zr  2)     65.8138         0.010000   
    693. D(C  41,O  17,Zr  1,Zr  4)    -30.0615         0.010000   
    694. D(C  41,O  17,Zr  1,Zr  2)     55.4574         0.010000   
    695. D(H  75,O  18,Zr  1,Zr  2)    -67.0378         0.010000   
    696. D(C  42,O  18,Zr  1,Zr  4)     67.6898         0.010000   
    697. D(C  42,O  18,Zr  1,Zr  2)      1.8641         0.010000   
    698. D(C  43,O  19,Zr  1,Zr  4)     29.6473         0.010000   
    699. D(C  43,O  19,Zr  1,Zr  2)    -18.2029         0.010000   
    700. D(C  44,O  20,Zr  2,Zr  5)    -34.5155         0.010000   
    701. D(C  44,O  20,Zr  2,Zr  1)   -101.1735         0.010000   
    702. D(C  38,O  21,Zr  2,Zr  5)    -75.5603         0.010000   
    703. D(C  38,O  21,Zr  2,Zr  1)    -30.4822         0.010000   
    704. D(H  75,O  22,Zr  2,Zr  1)     67.7889         0.010000   
    705. D(C  42,O  22,Zr  2,Zr  5)     49.0781         0.010000   
    706. D(C  42,O  22,Zr  2,Zr  1)     -1.1976         0.010000   
    707. D(H  75,O  23,Zr  2,Zr  1)    -30.2400         0.010000   
    708. D(C  45,O  23,Zr  2,Zr  5)    -49.4465         0.010000   
    709. D(C  45,O  23,Zr  2,Zr  1)     35.8712         0.010000   
    710. D(C  46,O  24,Zr  3,Zr  4)    -26.0660         0.010000   
    711. D(C  46,O  24,Zr  3,Zr  0)    -74.7613         0.010000   
    712. D(C  37,O  25,Zr  3,Zr  4)    -98.3954         0.010000   
    713. D(C  37,O  25,Zr  3,Zr  0)    -32.3671         0.010000   
    714. D(C  41,O  26,Zr  3,Zr  4)     31.5417         0.010000   
    715. D(C  41,O  26,Zr  3,Zr  0)    -52.3835         0.010000   
    716. D(C  47,O  27,Zr  3,Zr  4)      0.4315         0.010000   
    717. D(C  47,O  27,Zr  3,Zr  0)     50.7506         0.010000   
    718. D(C  47,O  28,Zr  4,Zr  3)      2.3438         0.010000   
    719. D(C  47,O  28,Zr  4,Zr  1)     68.8505         0.010000   
    720. D(C  39,O  29,Zr  4,Zr  3)     69.2661         0.010000   
    721. D(C  39,O  29,Zr  4,Zr  1)     34.0425         0.010000   
    722. D(H  78,O  30,Zr  4,Zr  1)   -172.6580         0.010000   
    723. D(C  43,O  30,Zr  4,Zr  3)    -16.6255         0.010000   
    724. D(C  43,O  30,Zr  4,Zr  1)     31.5497         0.010000   
    725. D(H  69,O  31,Zr  4,Zr  1)     84.9872         0.010000   
    726. D(C  45,O  31,Zr  4,Zr  3)     53.0552         0.010000   
    727. D(C  45,O  31,Zr  4,Zr  1)    -33.2513         0.010000   
    728. D(C  46,O  32,Zr  5,Zr  2)    -77.7410         0.010000   
    729. D(C  46,O  32,Zr  5,Zr  0)     -1.6017         0.010000   
    730. D(C  36,O  33,Zr  5,Zr  2)     19.7348         0.010000   
    731. D(C  36,O  33,Zr  5,Zr  0)    -27.2623         0.010000   
    732. D(C  40,O  34,Zr  5,Zr  2)    -37.5793         0.010000   
    733. D(C  40,O  34,Zr  5,Zr  0)      0.1506         0.010000   
    734. D(C  44,O  35,Zr  5,Zr  0)    -86.8388         0.010000   
    735. D(C  44,O  35,Zr  5,Zr  2)    -26.6081         0.010000   
    736. D(H  58,C  36,O  12,Zr  0)   -159.9421         0.045923   
    737. D(O  33,C  36,O  12,Zr  0)     20.0607         0.045923   
    738. D(H  58,C  36,O  33,Zr  5)   -159.9737         0.045923   
    739. D(O  12,C  36,O  33,Zr  5)     20.0235         0.045923   
    740. D(H  51,C  37,O  25,Zr  3)   -152.2464         0.045937   
    741. D(O  13,C  37,O  25,Zr  3)     28.6129         0.045937   
    742. D(H  51,C  37,O  13,Zr  0)   -165.6804         0.046308   
    743. D(O  25,C  37,O  13,Zr  0)     13.4608         0.046308   
    744. D(H  50,C  38,O  21,Zr  2)   -164.4485         0.046468   
    745. D(O  14,C  38,O  21,Zr  2)     14.5816         0.046468   
    746. D(H  50,C  38,O  14,Zr  0)   -144.6881         0.045657   
    747. D(O  21,C  38,O  14,Zr  0)     36.2835         0.045657   
    748. D(H  54,C  39,O  29,Zr  4)    161.8765         0.047740   
    749. D(O  15,C  39,O  29,Zr  4)    -19.2266         0.047740   
    750. D(O  29,C  39,O  15,Zr  0)     -4.4712         0.047461   
    751. D(H  54,C  39,O  15,Zr  0)    174.4260         0.047461   
    752. D(H  56,C  40,O  34,Zr  5)    175.3408         0.047650   
    753. D(O  16,C  40,O  34,Zr  5)     -3.6387         0.047650   
    754. D(H  56,C  40,O  16,Zr  1)    165.0861         0.047769   
    755. D(O  34,C  40,O  16,Zr  1)    -15.9340         0.047769   
    756. D(H  48,C  41,O  26,Zr  3)   -175.6103         0.048182   
    757. D(O  17,C  41,O  26,Zr  3)      5.0825         0.048182   
    758. D(H  48,C  41,O  17,Zr  1)    175.0683         0.048606   
    759. D(O  26,C  41,O  17,Zr  1)     -5.6248         0.048606   
    760. D(H  49,C  42,O  22,Zr  2)   -177.5801         0.056490   
    761. D(O  18,C  42,O  22,H  75)    -79.6748         0.056490   
    762. D(O  18,C  42,O  22,Zr  2)      3.1159         0.056490   
    763. D(H  49,C  42,O  18,Zr  1)    177.1167         0.056485   
    764. D(O  22,C  42,O  18,H  75)     79.5703         0.056485   
    765. D(O  22,C  42,O  18,Zr  1)     -3.5796         0.056485   
    766. D(H  52,C  43,O  30,Zr  4)    156.0172         0.063455   
    767. D(O  19,C  43,O  30,H  78)   -167.8410         0.063455   
    768. D(O  19,C  43,O  30,Zr  4)    -24.4596         0.063455   
    769. D(H  52,C  43,O  19,Zr  1)    159.1238         0.050670   
    770. D(O  30,C  43,O  19,Zr  1)    -20.3995         0.050670   
    771. D(H  59,C  44,O  35,Zr  5)   -164.3921         0.046178   
    772. D(O  20,C  44,O  35,Zr  5)     14.7584         0.046178   
    773. D(H  59,C  44,O  20,Zr  2)   -150.6616         0.045779   
    774. D(O  35,C  44,O  20,Zr  2)     30.1885         0.045779   
    775. D(H  55,C  45,O  31,Zr  4)   -176.5847         0.071439   
    776. D(O  23,C  45,O  31,H  69)   -118.8544         0.071439   
    777. D(O  23,C  45,O  31,Zr  4)      3.3903         0.071439   
    778. D(H  55,C  45,O  23,Zr  2)    175.0129         0.058359   
    779. D(O  31,C  45,O  23,H  75)     69.4631         0.058359   
    780. D(O  31,C  45,O  23,Zr  2)     -4.9621         0.058359   
    781. D(H  57,C  46,O  32,Zr  5)   -145.0491         0.045692   
    782. D(O  24,C  46,O  32,Zr  5)     35.8124         0.045692   
    783. D(H  57,C  46,O  24,Zr  3)   -164.5985         0.046479   
    784. D(O  32,C  46,O  24,Zr  3)     14.5404         0.046479   
    785. D(H  53,C  47,O  28,Zr  4)    177.1295         0.046916   
    786. D(O  27,C  47,O  28,Zr  4)     -3.1045         0.046916   
    787. D(H  53,C  47,O  27,Zr  3)   -179.1170         0.046888   
    788. D(O  28,C  47,O  27,Zr  3)      1.1169         0.046888   
    789. D(H  74,H  55,C  45,O  23)    178.3451         0.137999   
    790. D(H  67,H  55,C  45,O  31)    -95.3315         0.137999   
    791. D(H  67,H  55,C  45,O  23)     84.6900         0.137999   
    792. D(H  63,Al 61,Al 60,H  64)     18.5199         0.010000   
    793. D(H  62,Al 61,Al 60,H  65)    -14.9415         0.010000   
    794. D(H  62,Al 61,Al 60,H  64)    -96.6438         0.010000   
    795. D(Al 68,H  62,Al 61,H  63)   -168.4405         0.010000   
    796. D(Al 68,H  62,Al 61,Al 60)    -37.5218         0.010000   
    797. D(Al 60,H  64,Al 61,H  63)   -164.6276         0.010000   
    798. D(Al 60,H  64,Al 61,H  62)    108.1333         0.010000   
    799. D(Al 61,H  64,Al 60,H  66)     -8.8615         0.010000   
    800. D(Al 61,H  64,Al 60,H  65)   -106.1481         0.010000   
    801. D(Al 72,H  66,Al 60,H  64)    -13.1796         0.010000   
    802. D(Al 72,H  66,Al 60,Al 61)    -18.5148         0.010000   
    803. D(H  55,H  67,Al 61,H  62)    -37.0837         0.010000   
    804. D(H  55,H  67,Al 61,Al 60)    111.9151         0.010000   
    805. D(Al 61,H  67,H  55,H  74)    -85.2543         0.010000   
    806. D(Al 61,H  67,H  55,C  45)     14.9401         0.010000   
    807. D(H  70,Al 68,H  62,Al 61)     77.1721         0.010000   
    808. D(H  69,Al 68,H  62,Al 61)    -28.8302         0.010000   
    809. D(H  69,Al 68,Al 61,Al 60)    -57.7369         0.010000   
    810. D(H  62,Al 68,Al 61,H  63)     13.9401         0.010000   
    811. D(H  62,Al 68,Al 61,Al 60)    150.1754         0.010000   
    812. D(O  31,H  69,Al 68,Al 61)   -101.6338         0.010000   
    813. D(Al 72,H  69,Al 68,H  62)     85.3932         0.010000   
    814. D(Al 72,H  69,Al 68,Al 61)     68.1656         0.010000   
    815. D(Al 72,H  69,O  31,Zr  4)     94.4668         0.010000   
    816. D(Al 68,H  69,O  31,C  45)     56.6353         0.010000   
    817. D(Al 68,H  69,O  31,Zr  4)    -87.3991         0.010000   
    818. D(Al 72,H  69,O  30,Zr  4)    -64.1759         0.010000   
    819. D(Al 68,H  69,O  30,C  43)    -36.0854         0.010000   
    820. D(Al 68,H  69,O  30,Zr  4)    123.4077         0.010000   
    821. D(H  66,Al 72,H  69,Al 68)    -25.6229         0.010000   
    822. D(Al 60,Al 72,H  69,O  31)    143.3248         0.010000   
    823. D(Al 60,Al 72,H  69,Al 68)    -26.7912         0.010000   
    824. D(H  66,Al 72,Al 68,Al 61)     43.3158         0.010000   
    825. D(Al 60,Al 72,Al 68,H  62)     56.1439         0.010000   
    826. D(Al 60,Al 72,Al 68,Al 61)     41.9894         0.010000   
    827. D(H  69,Al 72,H  66,Al 60)    -20.1857         0.010000   
    828. D(Al 68,Al 72,H  66,Al 60)    -22.5311         0.010000   
    829. D(H  69,Al 72,Al 60,Al 61)    -39.1941         0.010000   
    830. D(Al 68,Al 72,Al 60,H  64)    -35.7759         0.010000   
    831. D(Al 68,Al 72,Al 60,Al 61)    -41.6762         0.010000   
    832. D(Al 76,H  73,Al 72,H  66)    143.4820         0.010000   
    833. D(Al 76,H  73,Al 72,Al 60)    141.5227         0.010000   
    834. D(H  55,H  74,Al 72,Al 60)    -82.6553         0.010000   
    835. D(O  31,H  74,Al 72,H  66)   -124.7694         0.010000   
    836. D(O  31,H  74,Al 72,Al 60)   -121.2596         0.010000   
    837. D(O  31,H  74,H  55,C  45)      1.0553         0.010000   
    838. D(Al 72,H  74,H  55,H  67)     74.0959         0.010000   
    839. D(Al 72,H  74,H  55,C  45)    -69.3211         0.010000   
    840. D(H  55,H  74,O  31,Zr  4)    177.8100         0.010000   
    841. D(Al 72,H  74,O  31,C  45)    111.9601         0.010000   
    842. D(Al 72,H  74,O  31,Zr  4)    -69.3496         0.010000   
    843. D(Al 68,H  75,C  43,O  19)    145.8049         0.010000   
    844. D(O   7,H  75,C  42,O  18)     63.0848         0.010000   
    845. D(Al 68,H  75,C  42,O  22)    122.9583         0.010000   
    846. D(O   7,H  75,O  31,Zr  4)    -44.8707         0.010000   
    847. D(Al 68,H  75,O  31,C  45)    -99.8763         0.010000   
    848. D(Al 68,H  75,O  31,Zr  4)    120.0177         0.010000   
    849. D(Al 68,H  75,O  30,C  43)     95.7529         0.010000   
    850. D(Al 68,H  75,O  30,Zr  4)   -134.5678         0.010000   
    851. D(O   7,H  75,O  23,Zr  2)     41.8633         0.010000   
    852. D(Al 68,H  75,O  23,C  45)     51.0370         0.010000   
    853. D(Al 68,H  75,O  23,Zr  2)   -165.8977         0.010000   
    854. D(O   7,H  75,O  22,Zr  2)    -29.4992         0.010000   
    855. D(Al 68,H  75,O  22,C  42)    -85.4425         0.010000   
    856. D(O   7,H  75,O  30,Zr  4)     34.3228         0.010000   
    857. D(Al 68,H  75,O  22,Zr  2)    143.1101         0.010000   
    858. D(O   7,H  75,O  18,Zr  1)     26.1672         0.010000   
    859. D(Al 68,H  75,O  18,C  42)     97.9737         0.010000   
    860. D(Al 68,H  75,C  42,O  18)   -108.6293         0.010000   
    861. D(Al 68,H  75,O  18,Zr  1)   -131.7537         0.010000   
    862. D(O  30,H  75,O   7,Zr  1)     79.5487         0.010000   
    863. D(Al 68,H  75,O   7,Zr  2)   -140.8090         0.010000   
    864. D(Al 68,H  75,C  43,O  30)    -88.3536         0.010000   
    865. D(Al 68,H  75,O   7,Zr  1)    109.9298         0.010000   
    866. D(O  30,H  75,Al 68,Al 61)    127.2377         0.011741   
    867. D(O   7,H  75,Al 68,H  62)    132.2846         0.011741   
    868. D(O   7,H  75,Al 68,Al 61)    100.3100         0.011741   
    869. D(O   7,H  75,C  45,O  23)     63.0783         0.010000   
    870. D(Al 68,H  75,C  45,O  31)     88.7231         0.010000   
    871. D(Al 68,H  75,C  45,O  23)   -139.1951         0.010000   
    872. D(O   7,H  75,C  43,O  19)    -53.2225         0.010000   
    873. D(H  78,Al 76,H  73,Al 72)      1.3512         0.010000   
    874. D(H  77,Al 76,H  73,Al 72)     92.1590         0.010000   
    875. D(H  77,Al 76,Al 72,Al 60)   -138.1407         0.010000   
    876. D(H  73,Al 76,Al 72,H  66)    -43.1242         0.010000   
    877. D(H  73,Al 76,Al 72,Al 60)    -46.4956         0.010000   
    878. D(Al 72,H  78,Al 76,H  77)    -96.4182         0.010000   
    879. D(Al 72,H  78,Al 76,H  73)     -1.3526         0.010000   
    880. D(O  30,H  78,Al 72,Al 60)     71.7338         0.010000   
    881. D(Al 76,H  78,Al 72,H  66)    -68.6246         0.010000   
    882. D(Al 76,H  78,Al 72,Al 60)    -73.8196         0.010000   
    883. D(Al 76,H  78,O  31,Zr  4)     50.9882         0.010000   
    884. D(Al 72,H  78,O  31,C  45)    -35.5199         0.010000   
    885. D(Al 72,H  78,O  31,Zr  4)    175.2034         0.010000   
    886. D(Al 76,H  78,O  30,Zr  4)   -122.0841         0.010000   
    887. D(Al 72,H  78,O  30,C  43)   -111.9024         0.010000   
    888. D(O  30,H  78,Al 76,Al 72)   -149.6174         0.010000   
    889. D(Al 72,H  78,O  30,Zr  4)     96.2766         0.010000   
    -----------------------------------------------------------------

Number of atoms                         .... 80
Number of degrees of freedom            .... 889


         *************************************************************
         *                GEOMETRY OPTIMIZATION CYCLE   1            *
         *************************************************************
---------------------------------
CARTESIAN COORDINATES (ANGSTROEM)
---------------------------------
  Zr    -0.099933    2.065882    1.338228
  Zr     0.200357   -2.122315   -1.879933
  Zr     1.804429   -1.248885    0.932238
  Zr    -1.912029    1.267803   -1.457100
  Zr     1.321032    1.084951   -2.291505
  Zr    -1.541602   -1.033001    1.593196
  O     -1.671517    0.858046    0.642595
  O      1.655048   -0.751833   -1.200253
  O     -0.134971   -1.545190    0.093443
  O      0.063979    1.547113   -0.704309
  O     -0.418831   -0.096795   -2.308412
  O      0.263670    0.020897    1.727603
  O     -0.798198    1.869818    3.192605
  O     -1.536783    3.431492    1.215255
  O      1.720084    1.921229    2.257909
  O      0.924727    3.553204    0.361394
  O     -0.614246   -3.707720   -0.827027
  O     -1.642849   -2.268977   -2.624804
  O      1.786147   -3.310776   -1.813233
  O      0.776513   -1.910953   -3.771209
  O      1.264158   -2.683317    2.193536
  O      2.432962   -0.287703    2.656394
  O      2.886831   -2.701261    0.147572
  O      3.399550   -0.095799    0.413978
  O     -3.742245    1.050235   -0.522404
  O     -2.149866    3.186918   -1.017609
  O     -2.862000   -0.287641   -2.384237
  O     -1.805728    1.969990   -3.301184
  O      0.437186    1.814878   -3.910447
  O      1.462813    3.110028   -1.884184
  O      2.190939   -0.062242   -3.658750
  O      3.114845    1.279345   -1.454000
[...]
  (5) All vibrations are strictly harmonic

freq.      16.79  E(vib)   ...       0.57 
freq.      21.68  E(vib)   ...       0.56 
freq.      24.96  E(vib)   ...       0.56 
freq.      30.81  E(vib)   ...       0.55 
freq.      35.43  E(vib)   ...       0.54 
freq.      37.84  E(vib)   ...       0.54 
freq.      45.20  E(vib)   ...       0.53 
freq.      50.82  E(vib)   ...       0.52 
freq.      57.07  E(vib)   ...       0.51 
freq.      58.99  E(vib)   ...       0.51 
freq.      65.23  E(vib)   ...       0.50 
freq.      71.56  E(vib)   ...       0.50 
freq.      77.55  E(vib)   ...       0.49 
freq.      78.41  E(vib)   ...       0.49 
freq.      84.45  E(vib)   ...       0.48 
freq.      86.83  E(vib)   ...       0.48 
freq.      91.89  E(vib)   ...       0.47 
freq.      96.83  E(vib)   ...       0.46 
freq.      98.87  E(vib)   ...       0.46 
freq.     102.88  E(vib)   ...       0.46 
freq.     103.44  E(vib)   ...       0.46 
freq.     106.66  E(vib)   ...       0.45 
freq.     107.04  E(vib)   ...       0.45 
freq.     110.73  E(vib)   ...       0.45 
freq.     113.14  E(vib)   ...       0.45 
freq.     116.45  E(vib)   ...       0.44 
freq.     120.31  E(vib)   ...       0.44 
freq.     128.69  E(vib)   ...       0.43 
freq.     142.08  E(vib)   ...       0.41 
freq.     147.63  E(vib)   ...       0.41 
freq.     149.95  E(vib)   ...       0.40 
freq.     150.46  E(vib)   ...       0.40 
freq.     152.75  E(vib)   ...       0.40 
freq.     154.03  E(vib)   ...       0.40 
freq.     156.50  E(vib)   ...       0.40 
freq.     161.75  E(vib)   ...       0.39 
freq.     162.57  E(vib)   ...       0.39 
freq.     164.29  E(vib)   ...       0.39 
freq.     167.33  E(vib)   ...       0.39 
freq.     168.18  E(vib)   ...       0.38 
freq.     170.34  E(vib)   ...       0.38 
freq.     173.70  E(vib)   ...       0.38 
freq.     176.45  E(vib)   ...       0.38 
freq.     185.09  E(vib)   ...       0.37 
freq.     187.56  E(vib)   ...       0.36 
freq.     188.95  E(vib)   ...       0.36 
freq.     190.63  E(vib)   ...       0.36 
freq.     193.34  E(vib)   ...       0.36 
freq.     196.43  E(vib)   ...       0.36 
freq.     198.58  E(vib)   ...       0.35 
freq.     203.12  E(vib)   ...       0.35 
freq.     209.57  E(vib)   ...       0.34 
freq.     213.03  E(vib)   ...       0.34 
freq.     213.39  E(vib)   ...       0.34 
freq.     222.16  E(vib)   ...       0.33 
freq.     229.15  E(vib)   ...       0.32 
freq.     230.97  E(vib)   ...       0.32 
freq.     235.39  E(vib)   ...       0.32 
freq.     237.72  E(vib)   ...       0.32 
freq.     240.82  E(vib)   ...       0.31 
freq.     244.60  E(vib)   ...       0.31 
freq.     257.36  E(vib)   ...       0.30 
freq.     259.12  E(vib)   ...       0.30 
freq.     262.91  E(vib)   ...       0.29 
freq.     264.40  E(vib)   ...       0.29 
freq.     265.26  E(vib)   ...       0.29 
freq.     266.86  E(vib)   ...       0.29 
freq.     267.72  E(vib)   ...       0.29 
freq.     270.39  E(vib)   ...       0.29 
freq.     270.69  E(vib)   ...       0.29 
freq.     274.22  E(vib)   ...       0.28 
freq.     275.55  E(vib)   ...       0.28 
freq.     276.30  E(vib)   ...       0.28 
freq.     278.40  E(vib)   ...       0.28 
freq.     280.63  E(vib)   ...       0.28 
freq.     284.31  E(vib)   ...       0.28 
freq.     286.54  E(vib)   ...       0.27 
freq.     292.75  E(vib)   ...       0.27 
freq.     294.38  E(vib)   ...       0.27 
freq.     296.67  E(vib)   ...       0.27 
freq.     301.60  E(vib)   ...       0.26 
freq.     305.31  E(vib)   ...       0.26 
freq.     306.14  E(vib)   ...       0.26 
freq.     309.03  E(vib)   ...       0.26 
freq.     311.52  E(vib)   ...       0.25 
freq.     312.88  E(vib)   ...       0.25 
freq.     315.23  E(vib)   ...       0.25 
freq.     316.82  E(vib)   ...       0.25 
freq.     321.01  E(vib)   ...       0.25 
freq.     322.99  E(vib)   ...       0.25 
freq.     324.97  E(vib)   ...       0.24 
freq.     328.92  E(vib)   ...       0.24 
freq.     338.32  E(vib)   ...       0.23 
freq.     340.60  E(vib)   ...       0.23 
freq.     347.74  E(vib)   ...       0.23 
freq.     348.73  E(vib)   ...       0.23 
freq.     352.50  E(vib)   ...       0.22 
freq.     353.44  E(vib)   ...       0.22 
freq.     363.48  E(vib)   ...       0.22 
freq.     370.27  E(vib)   ...       0.21 
freq.     373.00  E(vib)   ...       0.21 
freq.     387.26  E(vib)   ...       0.20 
freq.     394.02  E(vib)   ...       0.20 
freq.     398.00  E(vib)   ...       0.20 
freq.     399.72  E(vib)   ...       0.19 
freq.     401.66  E(vib)   ...       0.19 
freq.     403.60  E(vib)   ...       0.19 
freq.     412.80  E(vib)   ...       0.19 
freq.     418.05  E(vib)   ...       0.18 
freq.     420.76  E(vib)   ...       0.18 
freq.     422.77  E(vib)   ...       0.18 
freq.     429.72  E(vib)   ...       0.18 
freq.     470.64  E(vib)   ...       0.15 
freq.     473.36  E(vib)   ...       0.15 
freq.     481.14  E(vib)   ...       0.15 
freq.     482.86  E(vib)   ...       0.15 
freq.     495.57  E(vib)   ...       0.14 
freq.     524.08  E(vib)   ...       0.13 
freq.     526.99  E(vib)   ...       0.13 
freq.     540.79  E(vib)   ...       0.12 
freq.     551.19  E(vib)   ...       0.12 
freq.     573.32  E(vib)   ...       0.11 
freq.     621.13  E(vib)   ...       0.09 
freq.     624.55  E(vib)   ...       0.09 
freq.     653.03  E(vib)   ...       0.08 
freq.     656.47  E(vib)   ...       0.08 
freq.     668.00  E(vib)   ...       0.08 
freq.     679.92  E(vib)   ...       0.08 
freq.     681.33  E(vib)   ...       0.08 
freq.     684.62  E(vib)   ...       0.07 
freq.     689.29  E(vib)   ...       0.07 
freq.     689.98  E(vib)   ...       0.07 
freq.     692.81  E(vib)   ...       0.07 
freq.     695.68  E(vib)   ...       0.07 
freq.     721.06  E(vib)   ...       0.07 
freq.     732.61  E(vib)   ...       0.06 
freq.     733.13  E(vib)   ...       0.06 
freq.     734.97  E(vib)   ...       0.06 
freq.     735.41  E(vib)   ...       0.06 
freq.     736.04  E(vib)   ...       0.06 
freq.     737.44  E(vib)   ...       0.06 
freq.     738.06  E(vib)   ...       0.06 
freq.     738.13  E(vib)   ...       0.06 
freq.     738.18  E(vib)   ...       0.06 
freq.     739.81  E(vib)   ...       0.06 
freq.     740.38  E(vib)   ...       0.06 
freq.     742.43  E(vib)   ...       0.06 
freq.     743.12  E(vib)   ...       0.06 
freq.     751.56  E(vib)   ...       0.06 
freq.     796.26  E(vib)   ...       0.05 
freq.     807.76  E(vib)   ...       0.05 
freq.     892.79  E(vib)   ...       0.03 
freq.     943.21  E(vib)   ...       0.03 
freq.     998.93  E(vib)   ...       0.02 
freq.     998.97  E(vib)   ...       0.02 
freq.     999.79  E(vib)   ...       0.02 
freq.    1000.73  E(vib)   ...       0.02 
freq.    1001.59  E(vib)   ...       0.02 
freq.    1004.71  E(vib)   ...       0.02 
freq.    1005.63  E(vib)   ...       0.02 
freq.    1005.91  E(vib)   ...       0.02 
freq.    1006.26  E(vib)   ...       0.02 
freq.    1006.30  E(vib)   ...       0.02 
freq.    1006.84  E(vib)   ...       0.02 
freq.    1006.98  E(vib)   ...       0.02 
freq.    1161.81  E(vib)   ...       0.01 
freq.    1343.55  E(vib)   ...       0.01 
freq.    1345.15  E(vib)   ...       0.01 
freq.    1350.74  E(vib)   ...       0.01 
freq.    1351.94  E(vib)   ...       0.01 
freq.    1353.41  E(vib)   ...       0.01 
freq.    1354.07  E(vib)   ...       0.01 
freq.    1354.79  E(vib)   ...       0.01 
freq.    1355.65  E(vib)   ...       0.01 
freq.    1356.24  E(vib)   ...       0.01 
freq.    1356.40  E(vib)   ...       0.01 
freq.    1358.72  E(vib)   ...       0.01 
freq.    1359.38  E(vib)   ...       0.01 
freq.    1361.61  E(vib)   ...       0.01 
freq.    1361.87  E(vib)   ...       0.01 
freq.    1363.10  E(vib)   ...       0.01 
freq.    1363.88  E(vib)   ...       0.01 
freq.    1364.51  E(vib)   ...       0.01 
freq.    1364.59  E(vib)   ...       0.01 
freq.    1365.18  E(vib)   ...       0.01 
freq.    1365.74  E(vib)   ...       0.01 
freq.    1366.61  E(vib)   ...       0.01 
freq.    1367.13  E(vib)   ...       0.01 
freq.    1369.94  E(vib)   ...       0.01 
freq.    1371.17  E(vib)   ...       0.01 
freq.    1378.56  E(vib)   ...       0.01 
freq.    1410.25  E(vib)   ...       0.00 
freq.    1537.74  E(vib)   ...       0.00 
freq.    1546.13  E(vib)   ...       0.00 
freq.    1560.66  E(vib)   ...       0.00 
freq.    1564.00  E(vib)   ...       0.00 
freq.    1566.10  E(vib)   ...       0.00 
freq.    1571.55  E(vib)   ...       0.00 
freq.    1575.01  E(vib)   ...       0.00 
freq.    1578.55  E(vib)   ...       0.00 
freq.    1628.50  E(vib)   ...       0.00 
freq.    1630.71  E(vib)   ...       0.00 
freq.    1633.22  E(vib)   ...       0.00 
freq.    1635.40  E(vib)   ...       0.00 
freq.    1637.68  E(vib)   ...       0.00 
freq.    1739.86  E(vib)   ...       0.00 
freq.    1824.89  E(vib)   ...       0.00 
freq.    1831.65  E(vib)   ...       0.00 
freq.    1873.12  E(vib)   ...       0.00 
freq.    1881.03  E(vib)   ...       0.00 
freq.    1888.73  E(vib)   ...       0.00 
freq.    1895.79  E(vib)   ...       0.00 
freq.    1898.60  E(vib)   ...       0.00 
freq.    1905.05  E(vib)   ...       0.00 
freq.    1908.87  E(vib)   ...       0.00 
freq.    1913.02  E(vib)   ...       0.00 
freq.    1933.78  E(vib)   ...       0.00 
freq.    1959.93  E(vib)   ...       0.00 
freq.    2881.61  E(vib)   ...       0.00 
freq.    2883.72  E(vib)   ...       0.00 
freq.    2890.90  E(vib)   ...       0.00 
freq.    2891.99  E(vib)   ...       0.00 
freq.    2894.69  E(vib)   ...       0.00 
freq.    2897.67  E(vib)   ...       0.00 
freq.    2904.46  E(vib)   ...       0.00 
freq.    2905.24  E(vib)   ...       0.00 
freq.    2907.93  E(vib)   ...       0.00 
freq.    2908.98  E(vib)   ...       0.00 
freq.    2909.45  E(vib)   ...       0.00 
freq.    2910.73  E(vib)   ...       0.00 

------------
INNER ENERGY
------------

The inner energy is: U= E(el) + E(ZPE) + E(vib) + E(rot) + E(trans)
    E(el)   - is the total energy from the electronic structure calculation
              = E(kin-el) + E(nuc-el) + E(el-el) + E(nuc-nuc)
    E(ZPE)  - the the zero temperature vibrational energy from the frequency calculation
    E(vib)  - the the finite temperature correction to E(ZPE) due to population
              of excited vibrational states
    E(rot)  - is the rotational thermal energy
    E(trans)- is the translational thermal energy

Summary of contributions to the inner energy U:
Electronic energy                ...  -4220.48720329 Eh
Zero point energy                ...      0.41285205 Eh     259.07 kcal/mol
Thermal vibrational correction   ...      0.06718610 Eh      42.16 kcal/mol
Thermal rotational correction    ...      0.00141627 Eh       0.89 kcal/mol
Thermal translational correction ...      0.00141627 Eh       0.89 kcal/mol
-----------------------------------------------------------------------
Total thermal energy                  -4220.00433259 Eh


Summary of corrections to the electronic energy:
(perhaps to be used in another calculation)
Total thermal correction                  0.07001864 Eh      43.94 kcal/mol
Non-thermal (ZPE) correction              0.41285205 Eh     259.07 kcal/mol
-----------------------------------------------------------------------
Total correction                          0.48287070 Eh     303.01 kcal/mol


--------
ENTHALPY
--------

The enthalpy is H = U + kB*T
                kB is Boltzmann's constant
Total thermal energy              ...  -4220.00433259 Eh 
Thermal Enthalpy correction       ...      0.00094421 Eh       0.59 kcal/mol
-----------------------------------------------------------------------
Total Enthalpy                    ...  -4220.00338838 Eh


Note: Only C1 symmetry has been detected, increase convergence thresholds 
      if your molecule has a higher symmetry. Symmetry factor of 1.0 is   
      used for the rotational entropy correction. 
 

Note: Rotational entropy computed according to Herzberg 
Infrared and Raman Spectra, Chapter V,1, Van Nostrand Reinhold, 1945 
Point Group:  C1, Symmetry Number:   1  
Rotational constants in cm-1:     0.001672     0.001009     0.000953 

Vibrational entropy computed according to the QRRHO of S. Grimme
Chem.Eur.J. 2012 18 9955 using a reference frequency of 100.0 cm-1


-------
ENTROPY
-------

The entropy contributions are T*S = T*(S(el)+S(vib)+S(rot)+S(trans))
     S(el)   - electronic entropy
     S(vib)  - vibrational entropy
     S(rot)  - rotational entropy
     S(trans)- translational entropy
The entropies will be listed as multiplied by the temperature to get
units of energy

Electronic entropy                ...      0.00000000 Eh      0.00 kcal/mol
Vibrational entropy               ...      0.12094835 Eh     75.90 kcal/mol
Rotational entropy                ...      0.01907009 Eh     11.97 kcal/mol
Translational entropy             ...      0.02253999 Eh     14.14 kcal/mol
-----------------------------------------------------------------------
Final entropy term                ...      0.16255843 Eh    102.01 kcal/mol

In case the symmetry of your molecule has not been determined correctly
or in case you have a reason to use a different symmetry number we print 
out the resulting rotational entropy values for sn=1,12:

 non-linear molecules -----------------------------------
|  sn= 1 | S(rot)=       0.01907009 Eh     11.97 kcal/mol|
|  sn= 2 | S(rot)=       0.01841563 Eh     11.56 kcal/mol|
|  sn= 3 | S(rot)=       0.01803280 Eh     11.32 kcal/mol|
|  sn= 4 | S(rot)=       0.01776118 Eh     11.15 kcal/mol|
|  sn= 5 | S(rot)=       0.01755049 Eh     11.01 kcal/mol|
|  sn= 6 | S(rot)=       0.01737835 Eh     10.91 kcal/mol|
|  sn= 7 | S(rot)=       0.01723280 Eh     10.81 kcal/mol|
|  sn= 8 | S(rot)=       0.01710672 Eh     10.73 kcal/mol|
|  sn= 9 | S(rot)=       0.01699551 Eh     10.66 kcal/mol|
|  sn=10 | S(rot)=       0.01689603 Eh     10.60 kcal/mol|
|  sn=11 | S(rot)=       0.01680604 Eh     10.55 kcal/mol|
|  sn=12 | S(rot)=       0.01672389 Eh     10.49 kcal/mol|
 linear molecules ---------------------------------------
|  Dinfh | S(rot)=       0.01189371 Eh      7.46 kcal/mol|
|  Cinfv | S(rot)=       0.01254817 Eh      7.87 kcal/mol|
 --------------------------------------------------------


-------------------
GIBBS FREE ENERGY
-------------------

The Gibbs free energy is G = H - T*S

Total enthalpy                    ...  -4220.00338838 Eh 
Total entropy correction          ...     -0.16255843 Eh   -102.01 kcal/mol
-----------------------------------------------------------------------
Final Gibbs free energy         ...  -4220.16594681 Eh

For completeness - the Gibbs free energy minus the electronic energy
G-E(el)                           ...      0.32125648 Eh    201.59 kcal/mol


Maximum memory used throughout the entire PROP-calculation: 155.4 MB

--------------------------------
SUGGESTED CITATIONS FOR THIS RUN
--------------------------------

Below you find a list of papers that are relevant to this ORCA run
We neither can nor want to force you to cite these papers, but we appreciate if you do
You receive ORCA, which is the product of decades of hard work by many enthusiastic individuals, for free
The only thing we kindly ask in return is that you cite our papers,
We deeply appreciate it, if you show your appreciation for ORCA by not just citing the generic ORCA reference.

Please note that relegating all ORCA citations to the supporting information does *not* help us.
SI sections are not indexed - citations you put there will not count into any citation statistics
But we need these citations in order to attract the funding resources that allow us to do what we are doing

Therefore, if you are a happy ORCA user, please consider citing a few of the papers listed below in the main body of your paper

In addition to the list printed below, the program has created the file run.bibtex that contains the list in bibtex format
You can import this file easily into all common literature databanks and citation aid programs


List of essential papers. We consider these as the minimum necessary citations

  1. Neese, F.
     Software update: the ORCA program system, version 6.0
     WIRES Comput. Molec. Sci. 2025 15(1), e70019
     doi.org/10.1002/wcms.7019

List of papers to cite with high priority. The work reported in these papers was absolutely
necessary for this run to complete.
Our perspective: the developers of density functionals and basis sets usually get cited in chemistry papers
Good! But without the algorithms to do something with them, the functionals or basis sets would not do anything.
Hence, in our opinion, the algorithm design and method developments papers are equally worthy of getting cited

  1. Neese, F.
     An improvement of the resolution of the identity approximation for the formation of the Coulomb matrix
     J. Comp. Chem. 2003 24(14), 1740-1747
     doi.org/10.1002/jcc.10318
  2. Grimme, S.; Antony, J.; Ehrlich, S.; Krieg, H.
     A consistent and accurate ab initio parametrization of density functional dispersion correction (DFT-D) for the 94 elements H-Pu
     J. Chem. Phys. 2010 132 , 154104
     doi.org/10.1063/1.3382344
  3. Grimme, S.; Ehrlich, S.; Goerigk, L.
     Effect of the damping function in dispersion corrected density functional theory
     J. Comput. Chem. 2011 32(7), 1456-1465
     doi.org/10.1002/jcc.21759
  4. Bykov, D.; Petrenko, T.; Izsak, R.; Kossmann, S.; Becker, U.; Valeev, E.; Neese, F.
     Efficient implementation of the analytic second derivatives of Hartree-Fock and hybrid DFT energies: a detailed analysis of different approximations
     Molec. Phys. 2015 113 , 1961-1977
     doi.org/10.1080/00268976.2015.1025114
  5. Helmich-Paris, B.
     A trust-region augmented Hessian implementation for restricted and unrestricted Hartree–Fock and Kohn–Sham methods
     J. Chem. Phys. 2021 154 , 164104
     doi.org/10.1063/5.0040798
  6. Neese, F.
     The SHARK Integral Generation and Digestion System
     J. Comp. Chem. 2022 44(3), 381
     doi.org/10.1002/jcc.26942

List of suggested additional citations. These are papers that are important in the 'surrounding' of 
of this run, or papers that preceded the highly important papers. If you like your results we are grateful for a citation.

  1. Neese, F.
     The ORCA program system
     WIRES Comput. Molec. Sci. 2012 2(1), 73-78
     doi.org/10.1002/wcms.81
  2. Neese, F.
     Software update: the ORCA program system, version 4.0
     WIRES Comput. Molec. Sci. 2018 8(1), 1-6
     doi.org/10.1002/wcms.1327
  3. Neese, F.; Wennmohs, F.; Becker, U.; Riplinger, C.
     The ORCA quantum chemistry program package
     J. Chem. Phys. 2020 152(22), 224108
     doi.org/10.1063/5.0004608
  4. Neese, F.
     Software update: The ORCA program system—Version 5.0
     WIRES Comput. Molec. Sci. 2022 12(1), e1606
     doi.org/10.1002/wcms.1606

List of optional additional citations

  1. Neese, F.
     Approximate second-order SCF convergence for spin unrestricted wavefunctions
     Chem. Phys. Lett. 2000 325(1-3), 93-98
     doi.org/10.1016/s0009-2614(00)00662-x

Timings for individual modules:

Sum of individual times          ...    28507.978 sec (= 475.133 min)
Startup calculation              ...     4202.059 sec (=  70.034 min)  14.7 %
SCF iterations                   ...    10295.978 sec (= 171.600 min)  36.1 %
Property integrals               ...     5813.332 sec (=  96.889 min)  20.4 %
SCF Response                     ...     1836.826 sec (=  30.614 min)   6.4 %
Property calculations            ...     1795.497 sec (=  29.925 min)   6.3 %
SCF Gradient evaluation          ...     4531.674 sec (=  75.528 min)  15.9 %
Geometry relaxation              ...       32.613 sec (=   0.544 min)   0.1 %
                             ****ORCA TERMINATED NORMALLY****
TOTAL RUN TIME: 0 days 9 hours 0 minutes 27 seconds 388 msec
