
                                 *****************
                                 * O   R   C   A *
                                 *****************

                                            #,                                       
                                            ###                                      
                                            ####                                     
                                            #####                                    
                                            ######                                   
                                           ########,                                 
                                     ,,################,,,,,                         
                               ,,#################################,,                 
                          ,,##########################################,,             
                       ,#########################################, ''#####,          
                    ,#############################################,,   '####,        
                  ,##################################################,,,,####,       
                ,###########''''           ''''###############################       
              ,#####''   ,,,,##########,,,,          '''####'''          '####       
            ,##' ,,,,###########################,,,                        '##       
           ' ,,###''''                  '''############,,,                           
         ,,##''                                '''############,,,,        ,,,,,,###''
      ,#''                                            '''#######################'''  
     '                                                          ''''####''''         
             ,#######,   #######,   ,#######,      ##                                
            ,#'     '#,  ##    ##  ,#'     '#,    #''#        ,####,    ,#,          
            ##       ##  ##   ,#'  ##            #'  '#       #'       ,# #          
            ##       ##  #######   ##           ,######,      #####,      #          
            '#,     ,#'  ##    ##  '#,     ,#' ,#      #,     #,   #      #          
             '#######'   ##     ##  '#######'  #'      '#     '####' #    #          



                #########################################################
                #                        -***-                          #
                #          Department of theory and spectroscopy        #
                #                                                       #
                #                      Frank Neese                      #
                #                                                       #
                #     Directorship, Architecture, Infrastructure        #
                #                    SHARK, DRIVERS                     #
                #        Core code/Algorithms in most modules           #
                #                                                       #
                #        Max Planck Institute fuer Kohlenforschung      #
                #                Kaiser Wilhelm Platz 1                 #
                #                 D-45470 Muelheim/Ruhr                 #
                #                      Germany                          #
                #                                                       #
                #                  All rights reserved                  #
                #                        -***-                          #
                #########################################################


                         Program Version 6.1.0  -  RELEASE   -
                                (GIT: $679e74b$)
                          ($2025-06-10 18:02:51 +0200$)


 With contributions from (in alphabetic order):
[Max-Planck-Institut fuer Kohlenforschung]                               
  Daniel Aravena         : Magnetic Suceptibility                        
  Michael Atanasov       : Ab Initio Ligand Field Theory (pilot matlab implementation)
  Alexander A. Auer      : GIAO ZORA, VPT2 properties, NMR spectrum      
  Ute Becker             : All parallelization in ORCA, NUMFREQ, NUMCALC 
  Giovanni Bistoni       : ED, misc. LED, open-shell LED, HFLD           
  Dmytro Bykov           : pre 5.0 version of the SCF Hessian            
  Marcos Casanova-Páez   : Triplet and SCS-CIS(D). UHF-(DLPNO)-IP/EA/STEOM-CCSD. UHF-CVS-IP/STEOM-CCSD   
  Vijay G. Chilkuri      : MRCI spin determinant printing, contributions to CSF-ICE 
  Pauline Colinet        : FMM embedding                                 
  Dipayan Datta          : RHF DLPNO-CCSD density                        
  Achintya Kumar Dutta   : EOM-CC, STEOM-CC                              
  Nicolas Foglia         : Exact transition moments, OPA infrastructure, MCD improvements    
  Dmitry Ganyushin       : Spin-Orbit,Spin-Spin,Magnetic field MRCI      
  Miquel Garcia-Rates    : C-PCM and meta-GGA Hessian, CCSD/C-PCM, Gaussian charge scheme 
  Tiago L. C. Gouveia    : GS-ROHF, GS-ROCIS                             
  Yang Guo               : DLPNO-NEVPT2, F12-NEVPT2, CIM, IAO-localization        
  Andreas Hansen         : Spin unrestricted coupled pair/coupled cluster methods 
  Ingolf Harden          : AUTO-CI MPn and infrastructure                
  Benjamin Helmich-Paris : MC-RPA, TRAH-(SCF,CASSCF), AVAS, COSX integrals, SCF dyn. polar., MC-PDFT, srDFT 
  Lee Huntington         : MR-EOM, pCC                                   
  Robert Izsak           : Overlap fitted RIJCOSX, COSX-SCS-MP3, EOM     
  Riya Kayal             : Wick's Theorem for AUTO-CI, AUTO-CI UHF-CCSDT 
  Emily Kempfer          : AUTO-CI RHF CISDT and CCSDT, approximate NEVPT4
  Christian Kollmar      : KDIIS, OOCD, Brueckner-CCSD(T), CCSD density, CASPT2, CASPT2-K, improved NEVPT2 
  Axel Koslowski         : Symmetry handling                             
  Simone Kossmann        : meta-GGA functionals, TD-DFT gradient, OOMP2, (MP2 Hessian; deprecated post 5.0) 
  Lucas Lang             : DCDCAS, Hyperfine gauge corrections, ICE-SOC+SSC
  Marvin Lechner         : AUTO-CI (C++ implementation), FIC-MRCC        
  Spencer Leger          : CASSCF response                               
  Dagmar Lenk            : GEPOL surface, SMD, ORCA-2-JSON               
  Dimitrios Liakos       : Extrapolation schemes; Compound Job, Property file
  Dimitrios Manganas     : Further ROCIS development; embedding schemes. LFT, Crystal Embedding 
  Dimitrios Pantazis     : SARC Basis sets                               
  Anastasios Papadopoulos: AUTO-CI, single reference methods and gradients 
  Taras Petrenko         : pre 6.0 DFT Hessian and TD-DFT gradient,  ECA, NRVS 
  Petra Pikulova         : Analytic Raman intensities                    
  Peter Pinski           : DLPNO-MP2, DLPNO-MP2 Gradient                 
  Shashank Vittal Rao    : ES-AILFT, MagRelax                            
  Christoph Reimann      : Effective Core Potentials                     
  Marius Retegan         : Local ZFS, SOC                                
  Christoph Riplinger    : Optimizer, TS searches, QM/MM, DLPNO-CCSD(T), (RO)-DLPNO pert. Triples 
  Michael Roemelt        : Original ROCIS implementation, recursive CI coupling coefficients
  Masaaki Saitow         : Open-shell DLPNO-CCSD energy and density      
  Barbara Sandhoefer     : DKH picture change effects                    
  Yorick L. A. Schmerwitz: GMF and freeze-and-release deltaSCF, NEB S-IDPP initial path                    
  Kantharuban Sivalingam : CASSCF convergence/infrastructure, NEVPT2, NEVPT3, NEVPT4(SD), FIC-MRCI and CEPA variants
  Bernardo de Souza      : ESD, SOC TD-DFT                               
  Georgi L. Stoychev     : AutoAux, RI-MP2 NMR, DLPNO-MP2 response, X2C  
  Van Anh Tran           : RI-MP2 g-tensors                              
  Willem Van den Heuvel  : Paramagnetic NMR                              
  Zikuan Wang            : NOTCH, Electric field optimization            
  Frank Wennmohs         : Technical directorship and infrastructure     
  Hang Xu                : AUTO-CI-Response properties                   
                                                                         
[FACCTs GmbH]                                                            
  Markus Bursch, Nicolas Foglia, Miquel Garcia-Rates, Ingolf Harden, Hagen Neugebauer, Anastasios Papadopoulos, 
  Christoph Riplinger, Bernardo de Souza, Georgi L. Stoychev                                                    
                                                                 
  APM, various basis sets, CI-OPT, improved COSX, DLPNO-Multilevel,           
  DOCKER, DRACO, updates on ESD, Fragmentator, GOAT, IRC, LR-CPCM, L-BFGS, MBIS, meta-GGA TD-DFT gradient, ML-optimized integration grids, 
  MM, NACMEs, nearIR, NEB, NEB-TS, NL-DFT gradient (VV10), 2- and 3-layer-ONIOM, interface openCOSMO-RS, QMMM,   
  Crystal-QMMM, RESP, rigid body optimization, SF, symmetry and pop. for TD-DFT, various functionals, SOLVATOR                                   
                                                                         
[Other institutions]                                                     
  V. Asgeirsson          : NEB                                           
  Christoph Bannwarth    : sTDA-DFT, sTD-DFT, PBEh-3c, B97-3c, D3        
  Giovanni Bistoni       : ETS/NOCV, ADLD/ADEX, COVALED                  
  Martin Brehm           : Molecular dynamics                            
  Ronald Cardenas        : ETS/NOCV                                      
  Martina Colucci        : COVALED                                       
  Sebastian Ehlert       : rSCAN, r2SCAN, r2SCAN-3c, D4, dhf basis sets  
  Marvin Friede          : D4 for Fr, Ra, Ac-Lr                          
  Lars Goerigk           : TD-DFT with DH, B97 family of functionals     
  Stefan Grimme          : VdW corrections, initial TS optimization, DFT functionals, gCP, sTDA/sTD-DF 
  Waldemar Hujo          : DFT-NL                                        
  H. Jonsson             : NEB                                           
  Holger Kruse           : gCP                                           
  Marcel Mueller         : wB97X-3c, vDZP basis set                      
  Hagen Neugebauer       : wr2SCAN, Native XTB                           
  Gianluca Regni         : ADLD/ADEX                                     
  Tobias Risthaus        : pre 6.0 range-separated hybrid DFT and stability analysis
  Lukas Wittmann         : regularized MP2, r2SCAN double-hybrids, wr2SCAN        
                                                                         
We gratefully acknowledge several colleagues who have allowed us to      
interface, adapt or use parts of their codes:                            
  Ed Valeev, F. Pavosevic, A. Kumar             : LibInt (2-el integral package), F12 methods 
  Garnet Chan, S. Sharma, J. Yang, R. Olivares  : DMRG                   
  Ulf Ekstrom                                   : XCFun DFT Library      
  Mihaly Kallay                                 : mrcc  (arbitrary order and MRCC methods)
  Frank Weinhold                                : gennbo (NPA and NBO analysis)           
  Simon Mueller                                 : openCOSMO-RS                            
  Christopher J. Cramer and Donald G. Truhlar   : smd solvation model                     
  S Lehtola, MJT Oliveira, MAL Marques          : LibXC Library                           
  Liviu Ungur et al                             : ANISO software                          


 Your calculation uses the libint2 library for the computation of 2-el integrals
 For citations please refer to: http://libint.valeyev.net

 Your ORCA version has been built with support for libXC version: 7.0.0
 For citations please refer to: https://libxc.gitlab.io

 This ORCA versions uses:
   CBLAS   interface :  Fast vector & matrix operations
   LAPACKE interface :  Fast linear algebra routines
   SCALAPACK package :  Parallel linear algebra routines
   Shared memory     :  Shared parallel matrices
   BLAS/LAPACK       :  OpenBLAS 0.3.29  USE64BITINT DYNAMIC_ARCH NO_AFFINITY Prescott SINGLE_THREADED
        Core in use  :  Prescott
   Copyright (c) 2011-2014, The OpenBLAS Project


  ***********************************
  * Starting time: Sat Aug 16 17:34:57 2025
  * Host name:     cuda2
  * Process ID:    289514
  * Working dir.:  /local/scratch/mehlhorn/62068
  ***********************************



***************************************
The coordinates will be read from file: start.xyz
***************************************


Your calculation utilizes the atom-pairwise dispersion correction
based on EEQ partial charges (D4)


Warning: RI is on but no J-basis has been assigned. Assigning Def2/J (nothing to worry about!)
================================================================================

----- Orbital basis set information -----
Your calculation utilizes the basis: def2-QZVP
   F. Weigend and R. Ahlrichs, Phys. Chem. Chem. Phys. 7, 3297 (2005).

----- AuxJ basis set information -----
Your calculation utilizes the auxiliary basis: def2/J
   H-Rn: F. Weigend, Phys. Chem. Chem. Phys. 8, 1057 (2006).
   Fr-Lr: K. Eichkorn, F. Weigend, O. Treutler, R. Ahlrichs; Theor. Chem. Acc. 97, 119 (1997).

================================================================================
                                        WARNINGS
                       Please study these warnings very carefully!
================================================================================


WARNING: Geometry Optimization
  ===> : Switching off AutoStart
         For restart on a previous wavefunction, please use MOREAD

================================================================================
                                       INPUT FILE
================================================================================
NAME = run.inp
|  1> # Geometry optimization for (AlH3)n cluster
|  2> 
|  3> %pal nprocs 24  end
|  4> 
|  5> %geom MaxIter 500 end
|  6> 
|  7> %elprop Polar 1 end # invoke raman
|  8> 
|  9> ! PBE def2-QZVP D4
| 10> ! RKS	# closed shell for AlH3
| 11> ! Freq 	# Frequency analysis to check the stabiltity of the structures
| 12> 
| 13> 
| 14> ! NoPop # population analysis not necessary	
| 15> 
| 16> ! DEFGRID3
| 17> ! ExtremeSCF
| 18> ! VeryTightOpt
| 19> 
| 20> 
| 21> ! SmallPrint
| 22> 
| 23> 
| 24> * xyzFile 0 1 start.xyz # only maingroup elements H and Al so there should be no net spin
| 25> 
| 26>                          ****END OF INPUT****
================================================================================

                       *****************************
                       * Geometry Optimization Run *
                       *****************************

Geometry optimization settings:
Update method            Update   .... BFGS
Choice of coordinates    CoordSys .... (2022) Redundant Internals
Initial Hessian          InHess   .... Almloef's Model
Max. no of cycles        MaxIter  .... 500

Convergence Tolerances:
Energy Change            TolE     ....  2.0000e-07 Eh
Max. Gradient            TolMAXG  ....  3.0000e-05 Eh/bohr
RMS Gradient             TolRMSG  ....  8.0000e-06 Eh/bohr
Max. Displacement        TolMAXD  ....  2.0000e-04 bohr
RMS Displacement         TolRMSD  ....  1.0000e-04 bohr
Strict Convergence                .... False

------------------------------------------------------------------------------
                        ORCA OPTIMIZATION COORDINATE SETUP
------------------------------------------------------------------------------

The optimization will be done in redundant internal coordinates (2022)
Making redundant internal coordinates   ...  (2022 redundants) done
Evaluating the initial hessian          ...  (Almloef) done
Evaluating the coordinates              ...  done
Calculating the B-matrix                .... done
Calculating the G-matrix                .... done
The number of degrees of freedom        ....  117

    -----------------------------------------------------------------
                    Redundant Internal Coordinates


    -----------------------------------------------------------------
         Definition                    Initial Value    Approx d2E/dq
    -----------------------------------------------------------------
      1. B(Al  1,Al  0)                  3.0622         0.065912   
      2. B(H   2,Al  1)                  1.7226         0.246991   
      3. B(H   3,Al  1)                  1.5864         0.407364   
      4. B(H   4,Al  1)                  1.7227         0.246910   
      5. B(H   4,Al  0)                  1.7220         0.247542   
      6. B(H   5,Al  0)                  1.5868         0.406758   
      7. B(H   6,Al  0)                  1.7159         0.253200   
      8. B(H   7,Al  1)                  1.5864         0.407397   
      9. B(Al  8,H   6)                  1.7159         0.253137   
     10. B(Al  8,H   2)                  1.7220         0.247556   
     11. B(Al  8,Al  1)                  3.0659         0.065020   
     12. B(Al  8,Al  0)                  3.0732         0.063297   
     13. B(H   9,Al  8)                  1.5868         0.406762   
     14. B(H  10,Al  8)                  1.5874         0.405873   
     15. B(H  11,Al  0)                  1.5875         0.405806   
     16. A(H   4,Al  0,H   6)           98.0851         0.327835   
     17. A(Al  1,Al  0,H   4)           27.2634         0.303830   
     18. A(Al  1,Al  0,Al  8)           59.9608         0.281458   
     19. A(Al  8,Al  0,H  11)          103.5673         0.327070   
     20. A(H   4,Al  0,H   5)          104.4110         0.354886   
     21. A(H   6,Al  0,H  11)          106.7661         0.356107   
     22. A(Al  1,Al  0,H   5)          131.5048         0.329389   
     23. A(Al  1,Al  0,H  11)           88.7869         0.329261   
     24. A(H   5,Al  0,H  11)          128.8787         0.386360   
     25. A(H   5,Al  0,H   6)          105.8828         0.356249   
     26. A(H   4,Al  0,Al  8)           74.2358         0.301871   
     27. A(Al  1,Al  0,H   6)           86.3833         0.304932   
     28. A(H   5,Al  0,Al  8)          122.5105         0.327197   
     29. A(H   4,Al  0,H  11)          108.6349         0.354745   
     30. A(H   6,Al  0,Al  8)           26.4256         0.302963   
     31. A(H   2,Al  1,H   7)          104.7658         0.354846   
     32. A(H   3,Al  1,H   4)          104.7603         0.354821   
     33. A(Al  0,Al  1,H   3)          127.3478         0.329470   
     34. A(H   2,Al  1,H   4)           95.8450         0.326359   
     35. A(H   4,Al  1,Al  8)           74.4431         0.303045   
     36. A(H   3,Al  1,Al  8)           98.6375         0.328730   
     37. A(H   2,Al  1,H   3)          109.3937         0.354841   
     38. A(H   2,Al  1,Al  8)           27.1138         0.303061   
     39. A(Al  0,Al  1,Al  8)           60.1979         0.282632   
     40. A(H   7,Al  1,Al  8)          127.3487         0.328734   
     41. A(Al  0,Al  1,H   4)           27.2515         0.303706   
     42. A(H   4,Al  1,H   7)          109.3862         0.354826   
     43. A(Al  0,Al  1,H   7)           98.7251         0.329474   
     44. A(Al  0,Al  1,H   2)           74.2291         0.303722   
     45. A(H   3,Al  1,H   7)          128.0682         0.386724   
     46. A(Al  1,H   2,Al  8)          125.7617         0.326500   
     47. A(Al  0,H   4,Al  1)          125.4851         0.326479   
     48. A(Al  0,H   6,Al  8)          127.1500         0.329046   
     49. A(Al  1,Al  8,H   2)           27.1244         0.303172   
     50. A(Al  0,Al  8,H   2)           73.9129         0.301874   
     51. A(Al  0,Al  8,Al  1)           59.8412         0.280866   
     52. A(H   6,Al  8,H  10)          106.6748         0.356102   
     53. A(H   2,Al  8,H  10)          108.6589         0.354758   
     54. A(Al  1,Al  8,H  10)           89.0497         0.328531   
     55. A(Al  0,Al  8,H  10)          104.3239         0.327079   
     56. A(H   6,Al  8,H   9)          105.9660         0.356234   
     57. A(H   9,Al  8,H  10)          128.8696         0.386372   
     58. A(H   2,Al  8,H   9)          104.3829         0.354890   
     59. A(Al  1,Al  8,H   9)          131.3129         0.328649   
     60. A(Al  0,Al  8,H   9)          121.8776         0.327197   
     61. A(H   2,Al  8,H   6)           98.1226         0.327825   
     62. A(Al  1,Al  8,H   6)           86.2626         0.304255   
     63. A(Al  0,Al  8,H   6)           26.4245         0.302951   
     64. D(H   2,Al  1,Al  0,H   4)   -141.2078         0.010000   
     65. D(H   3,Al  1,Al  0,H   6)     76.9003         0.010000   
     66. D(H   3,Al  1,Al  0,H   5)    -31.1727         0.010000   
     67. D(H   3,Al  1,Al  0,Al  8)     77.3281         0.010000   
     68. D(H   2,Al  1,Al  0,Al  8)    -25.2939         0.010000   
     69. D(H   3,Al  1,Al  0,H   4)    -38.5858         0.010000   
     70. D(H   2,Al  1,Al  0,H   6)    -25.7217         0.010000   
     71. D(H   2,Al  1,Al  0,H   5)   -133.7947         0.010000   
     72. D(H   2,Al  1,Al  0,H  11)     81.1628         0.010000   
     73. D(H   3,Al  1,Al  0,H  11)   -176.2152         0.010000   
     74. D(Al  8,H   2,Al  1,H   7)    149.5196         0.010000   
     75. D(Al  8,H   2,Al  1,H   3)    -70.2339         0.010000   
     76. D(Al  8,H   2,Al  1,Al  0)     54.4382         0.010000   
     77. D(Al  8,H   2,Al  1,H   4)     37.6777         0.010000   
     78. D(Al  1,H   4,Al  0,H   5)   -174.2745         0.010000   
     79. D(Al  0,H   4,Al  1,H   7)    -70.6105         0.010000   
     80. D(Al  0,H   4,Al  1,Al  8)     54.1134         0.010000   
     81. D(Al  0,H   4,Al  1,H   3)    149.1542         0.010000   
     82. D(Al  0,H   4,Al  1,H   2)     37.3055         0.010000   
     83. D(Al  1,H   4,Al  0,H  11)     45.3204         0.010000   
     84. D(Al  1,H   4,Al  0,Al  8)    -54.0053         0.010000   
     85. D(Al  1,H   4,Al  0,H   6)    -65.4966         0.010000   
     86. D(Al  8,H   6,Al  0,H   4)     25.5189         0.010000   
     87. D(Al  8,H   6,Al  0,Al  1)      0.8321         0.010000   
     88. D(Al  8,H   6,Al  0,H   5)    133.0829         0.010000   
     89. D(Al  8,H   6,Al  0,H  11)    -86.8068         0.010000   
     90. D(Al  1,Al  8,Al  0,H  11)    -80.5199         0.010000   
     91. D(Al  1,Al  8,Al  0,H   6)    179.0407         0.010000   
     92. D(Al  1,Al  8,Al  0,H   5)    122.6300         0.010000   
     93. D(H   2,Al  8,Al  0,Al  1)     25.3464         0.010000   
     94. D(Al  1,Al  8,Al  0,H   4)     25.3487         0.010000   
     95. D(H   9,Al  8,H   6,Al  0)    131.1921         0.010000   
     96. D(H   2,Al  8,H   6,Al  0)     23.6252         0.010000   
     97. D(Al  1,Al  8,H   6,Al  0)     -0.8312         0.010000   
     98. D(H  10,Al  8,H   2,Al  1)     45.7658         0.010000   
     99. D(H   9,Al  8,H   2,Al  1)   -173.8452         0.010000   
    100. D(H   6,Al  8,H   2,Al  1)    -64.9738         0.010000   
    101. D(H   6,Al  8,Al  1,H   2)    115.9815         0.010000   
    102. D(H   6,Al  8,Al  1,Al  0)      0.4278         0.010000   
    103. D(H   2,Al  8,Al  1,H   7)    -38.0976         0.010000   
    104. D(H   2,Al  8,Al  1,H   4)   -140.8639         0.010000   
    105. D(H   2,Al  8,Al  1,H   3)    116.1210         0.010000   
    106. D(H   2,Al  8,Al  1,Al  0)   -115.5537         0.010000   
    107. D(Al  0,Al  8,Al  1,H   7)     77.4561         0.010000   
    108. D(Al  0,Al  8,Al  1,H   4)    -25.3102         0.010000   
    109. D(Al  0,Al  8,H   2,Al  1)    -54.2771         0.010000   
    110. D(Al  0,Al  8,Al  1,H   3)   -128.3254         0.010000   
    111. D(Al  0,Al  8,Al  1,H   2)    115.5537         0.010000   
    112. D(H   6,Al  8,Al  0,Al  1)   -179.0407         0.010000   
    113. D(H   2,Al  8,Al  0,H  11)    -55.1734         0.010000   
    114. D(H   2,Al  8,Al  0,H   6)   -155.6129         0.010000   
    115. D(H   2,Al  8,Al  0,H   5)    147.9764         0.010000   
    116. D(H  10,Al  8,H   6,Al  0)    -88.7155         0.010000   
    117. D(H   2,Al  8,Al  0,H   4)     50.6951         0.010000   
    -----------------------------------------------------------------

Number of atoms                         .... 12
Number of degrees of freedom            .... 117


         *************************************************************
         *                GEOMETRY OPTIMIZATION CYCLE   1            *
         *************************************************************
---------------------------------
CARTESIAN COORDINATES (ANGSTROEM)
---------------------------------
  Al    -0.229465    1.518719    2.565333
  Al     0.000121   -0.000507   -0.083536
  H      0.872783   -0.936113    1.069964
  H     -1.104267   -0.908414   -0.771134
  H     -0.863230    0.941627    1.071787
  H     -1.473542    2.184480    3.291334
  H      0.004056    0.000973    3.330927
  H      1.098729    0.903679   -0.785103
  Al     0.255690   -1.515992    2.569382
  H      1.513180   -2.162656    3.289507
  H     -1.180669   -2.143678    2.318759
  H      1.213553    2.126193    2.303140

----------------------------
CARTESIAN COORDINATES (A.U.)
----------------------------
  NO LB      ZA    FRAG     MASS         X           Y           Z
   0 Al   13.0000    0    26.982   -0.433626    2.869962    4.847776
   1 Al   13.0000    0    26.982    0.000229   -0.000959   -0.157861
   2 H     1.0000    0     1.008    1.649321   -1.768997    2.021939
   3 H     1.0000    0     1.008   -2.086762   -1.716654   -1.457233
   4 H     1.0000    0     1.008   -1.631268    1.779418    2.025385
   5 H     1.0000    0     1.008   -2.784590    4.128070    6.219720
   6 H     1.0000    0     1.008    0.007665    0.001839    6.294540
   7 H     1.0000    0     1.008    2.076297    1.707705   -1.483630
   8 Al   13.0000    0    26.982    0.483184   -2.864810    4.855428
   9 H     1.0000    0     1.008    2.859496   -4.086827    6.216267
  10 H     1.0000    0     1.008   -2.231141   -4.050964    4.381820
  11 H     1.0000    0     1.008    2.293282    4.017922    4.352305

--------------------------------
INTERNAL COORDINATES (ANGSTROEM)
--------------------------------
 Al     0   0   0     0.000000000000     0.00000000     0.00000000
 Al     1   0   0     3.062231852220     0.00000000     0.00000000
 H      2   1   0     1.722631792243    74.22913359     0.00000000
 H      2   1   3     1.586429302671   127.34776376   102.62200927
 H      1   2   3     1.722024901215    27.26343208   218.79222111
 H      1   2   3     1.586834590663   131.50484193   226.20526448
 H      1   2   3     1.715872586925    86.38332633   334.27831826
 H      2   1   3     1.586407342652    98.72509446   257.02087331
 Al     7   1   2     1.715941375183   127.14995378     0.83209086
 H      9   7   1     1.586832060228   105.96604999   131.19212961
 H      9   7   1     1.587427891101   106.67476505   271.28446731
 H      1   2   3     1.587472406968    88.78687095    81.16283218

---------------------------
INTERNAL COORDINATES (A.U.)
---------------------------
 Al     0   0   0     0.000000000000     0.00000000     0.00000000
 Al     1   0   0     5.786779559266     0.00000000     0.00000000
 H      2   1   0     3.255302316926    74.22913359     0.00000000
 H      2   1   3     2.997916912876   127.34776376   102.62200927
 H      1   2   3     3.254155459090    27.26343208   218.79222111
 H      1   2   3     2.998682796186   131.50484193   226.20526448
 H      1   2   3     3.242529269992    86.38332633   334.27831826
 H      2   1   3     2.997875414453    98.72509446   257.02087331
 Al     7   1   2     3.242659260960   127.14995378     0.83209086
 H      9   7   1     2.998678014358   105.96604999   131.19212961
 H      9   7   1     2.999803971529   106.67476505   271.28446731
 H      1   2   3     2.999888094326    88.78687095    81.16283218

---------------------
BASIS SET INFORMATION
---------------------
There are 2 groups of distinct atoms

 Group   1 Type Al  : 20s14p4d2f1g contracted to 9s6p4d2f1g pattern {1031111111/821111/1111/11/1}
 Group   2 Type H   : 7s3p2d1f contracted to 4s3p2d1f pattern {4111/111/11/1}

Atom   0Al   basis set group =>   1
Atom   1Al   basis set group =>   1
Atom   2H    basis set group =>   2
Atom   3H    basis set group =>   2
Atom   4H    basis set group =>   2
Atom   5H    basis set group =>   2
Atom   6H    basis set group =>   2
Atom   7H    basis set group =>   2
Atom   8Al   basis set group =>   1
Atom   9H    basis set group =>   2
Atom  10H    basis set group =>   2
Atom  11H    basis set group =>   2
---------------------------------
AUXILIARY/J BASIS SET INFORMATION
---------------------------------
There are 2 groups of distinct atoms

 Group   1 Type Al  : 14s5p5d2f1g contracted to 8s4p3d1f1g pattern {71111111/2111/311/2/1}
 Group   2 Type H   : 5s2p1d contracted to 3s1p1d pattern {311/2/1}

Atom   0Al   basis set group =>   1
Atom   1Al   basis set group =>   1
Atom   2H    basis set group =>   2
Atom   3H    basis set group =>   2
Atom   4H    basis set group =>   2
Atom   5H    basis set group =>   2
Atom   6H    basis set group =>   2
Atom   7H    basis set group =>   2
Atom   8Al   basis set group =>   1
Atom   9H    basis set group =>   2
Atom  10H    basis set group =>   2
Atom  11H    basis set group =>   2


           ************************************************************
           *        Program running with 24 parallel MPI-processes    *
           *              working on a common directory               *
           ************************************************************
------------------------------------------------------------------------------
                             ORCA STARTUP CALCULATIONS
                           -- RI-GTO INTEGRALS CHOSEN --
------------------------------------------------------------------------------
------------------------------------------------------------------------------
                   ___                                                        
                  /   \      - P O W E R E D   B Y -                         
                 /     \                                                     
                 |  |  |   _    _      __       _____    __    __             
                 |  |  |  | |  | |    /  \     |  _  \  |  |  /  |          
                  \  \/   | |  | |   /    \    | | | |  |  | /  /          
                 / \  \   | |__| |  /  /\  \   | |_| |  |  |/  /          
                |  |  |   |  __  | /  /__\  \  |    /   |      \           
                |  |  |   | |  | | |   __   |  |    \   |  |\   \          
                \     /   | |  | | |  |  |  |  | |\  \  |  | \   \       
                 \___/    |_|  |_| |__|  |__|  |_| \__\ |__|  \__/        
                                                                              
                      - O R C A' S   B I G   F R I E N D -                    
                                      &                                       
                       - I N T E G R A L  F E E D E R -                       
                                                                              
 v1 FN, 2020, v2 2021, v3 2022-2024                                           
------------------------------------------------------------------------------


----------------------
SHARK INTEGRAL PACKAGE
----------------------

Number of atoms                             ...     12
Number of basis functions                   ...    480
Number of shells                            ...    156
Maximum angular momentum                    ...      4
Integral batch strategy                     ... SHARK/LIBINT Hybrid
RI-J (if used) integral strategy            ... SPLIT-RIJ (Revised 2003 algorithm where possible)
Printlevel                                  ...      1
Contraction scheme used                     ... SEGMENTED contraction
Prescreening option                         ... SCHWARTZ
   Thresh                                   ... 3.000e-16
   Tcut                                     ... 3.000e-16
   Tpresel                                  ... 3.000e-16 
Coulomb Range Separation                    ... NOT USED
Exchange Range Separation                   ... NOT USED
Multipole approximations                    ... NOT USED
Finite Nucleus Model                        ... NOT USED
CABS basis                                  ... NOT available
Auxiliary Coulomb fitting basis             ... AVAILABLE
   # of basis functions in Aux-J            ...    252
   # of shells in Aux-J                     ...     96
   Maximum angular momentum in Aux-J        ...      4
Auxiliary J/K fitting basis                 ... NOT available
Auxiliary Correlation fitting basis         ... NOT available
Auxiliary 'external' fitting basis          ... NOT available

Checking pre-screening integrals            ... done (  0.0 sec) Dimension = 156
   => SHARK Basis and OBASIS are compatible. Storing Pre-screening
Shell pair information
Shell pair cut-off parameter TPreSel        ...   3.0e-16
Total number of shell pairs                 ...     12246
Shell pairs after pre-screening             ...     11186
Total number of primitive shell pairs       ...     29205
Primitive shell pairs kept                  ...     21383
          la=0 lb=0:   1814 shell pairs
          la=1 lb=0:   2579 shell pairs
          la=1 lb=1:    967 shell pairs
          la=2 lb=0:   1699 shell pairs
          la=2 lb=1:   1245 shell pairs
          la=2 lb=2:    425 shell pairs
          la=3 lb=0:    849 shell pairs
          la=3 lb=1:    623 shell pairs
          la=3 lb=2:    414 shell pairs
          la=3 lb=3:    106 shell pairs
          la=4 lb=0:    189 shell pairs
          la=4 lb=1:    135 shell pairs
          la=4 lb=2:     90 shell pairs
          la=4 lb=3:     45 shell pairs
          la=4 lb=4:      6 shell pairs

Checking whether 4 symmetric matrices of dimension 480 fit in memory
:Max Core in MB      =   4096.00
 MB in use           =     17.25
 MB left             =   4078.75
 MB needed           =      3.52
 Data fit in memory  = YES
Calculating RI/J V-Matrix + Cholesky decomp.... done (  0.2 sec)
Calculating Nuclear repulsion               ... done (  0.0 sec) ENN=    170.928148442860 Eh

Diagonalization of the overlap matrix:
Smallest eigenvalue                        ... 1.614e-04
Time for diagonalization                   ...    0.210 sec
Threshold for overlap eigenvalues          ... 1.000e-07
Number of eigenvalues below threshold      ... 0
Time for construction of square roots      ...    0.075 sec
Total time needed                          ...    0.297 sec

-------------------
DFT GRID GENERATION
-------------------

General Integration Accuracy     IntAcc      ... 4.959
Radial Grid Type                 RadialGrid  ... OptM3 with GC (2021)
Angular Grid (max. ang.)         AngularGrid ... 6 (Lebedev-590)
Angular grid pruning method      GridPruning ... 4 (adaptive)
Weight generation scheme         WeightScheme... mBecke (2022)
Basis function cutoff            BFCut       ... 3.0000e-16
Integration weight cutoff        WCut        ... 1.0000e-14
Partially contracted basis set               ... off
Rotationally invariant grid construction     ... off
Angular grids for H and He will be reduced by one unit

Total number of grid points                  ...   128059
Total number of batches                      ...     2007
Average number of points per batch           ...       63
Average number of grid points per atom       ...    10672
Grids setup in   2.8 sec
Initializing property integral containers    ... done (  0.0 sec)

SHARK setup successfully completed in   5.1 seconds

Maximum memory used throughout the entire STARTUP-calculation: 40.2 MB


           ************************************************************
           *        Program running with 24 parallel MPI-processes    *
           *              working on a common directory               *
           ************************************************************
-------------------------------------------------------------------------------
                                 ORCA GUESS
                   Start orbitals & Density for SCF / CASSCF
-------------------------------------------------------------------------------

------------
SCF SETTINGS
------------
Hamiltonian:
 Density Functional     Method          .... DFT(GTOs)
 Exchange Functional    Exchange        .... PBE
   PBE kappa parameter   XKappa         ....  0.804000
   PBE mue parameter    XMuePBE         ....  0.219520
 Correlation Functional Correlation     .... PBE
   PBE beta parameter  CBetaPBE         ....  0.066725
 LDA part of GGA corr.  LDAOpt          .... PW91-LDA
 Gradients option       PostSCFGGA      .... off
   NL short-range parameter             ....  6.400000
 RI-approximation to the Coulomb term is turned on
   Number of AuxJ basis functions       .... 252


General Settings:
 Integral files         IntName         .... run
 Hartree-Fock type      HFTyp           .... RHF
 Total Charge           Charge          ....    0
 Multiplicity           Mult            ....    1
 Number of Electrons    NEL             ....   48
 Basis Dimension        Dim             ....  480
 Nuclear Repulsion      ENuc            ....    170.9281484429 Eh

Convergence Acceleration:
 AO-DIIS                CNVDIIS         .... on
   Start iteration      DIISMaxIt       ....    12
   Startup error        DIISStart       ....  0.200000
   # of expansion vecs  DIISMaxEq       ....     5
   Bias factor          DIISBfac        ....   1.050
   Max. coefficient     DIISMaxC        ....  10.000
 MO-DIIS                CNVKDIIS        .... off
 Trust-Rad. Augm. Hess. CNVTRAH         .... auto
   Auto Start mean grad. ratio tolernc. ....  1.125000
   Auto Start start iteration           ....    50
   Auto Start num. interpolation iter.  ....    10
   Max. Number of Micro iterations      ....    24
   Max. Number of Macro iterations      .... Maxiter - #DIIS iter
   Number of Davidson start vectors     ....     2
   Converg. threshold    (grad. norm)   ....   1.000e-09
   Grad. Scal. Fac. for Micro threshold ....   0.100
   Minimum threshold for Micro iter.    ....   1.000e-02
   NR start threshold (gradient norm)   ....   1.000e-04
   Initial trust radius                 ....   0.400
   Minimum AH scaling param. (alpha)    ....   1.000
   Maximum AH scaling param. (alpha)    .... 1000.000
   Quad. conv. algorithm                .... NR
   White noise on init. David. guess    .... on
   Maximum white noise                  ....   0.010
   Pseudo random numbers                .... off
   Inactive MOs                         .... canonical
   Orbital update algorithm             .... Taylor
   Preconditioner                       .... Diag
   Full preconditioner red. dimension   ....   250
 SOSCF                 CNVSOSCF           .... on
   Start iteration     SOSCFMaxIt         ....   150
   Startup grad/error  SOSCFStart         ....  0.003300
   Hessian update      SOSCFHessUp        .... L-BFGS
   Autom. constraints  SOSCFAutoConstrain .... off
 Level Shifting         CNVShift        .... on
   Level shift para.    LevelShift      ....    0.2500
   Turn off err/grad.   ShiftErr        ....    0.0010
 Zerner damping         CNVZerner       .... off
 Static damping         CNVDamp         .... on
   Fraction old density DampFac         ....    0.7000
   Max. Damping (<1)    DampMax         ....    0.9800
   Min. Damping (>=0)   DampMin         ....    0.0000
   Turn off err/grad.   DampErr         ....    0.1000

SCF Procedure:
 Maximum # iterations   MaxIter         ....   125
 SCF integral mode      SCFMode         .... Direct
   Integral package                     .... SHARK and LIBINT hybrid scheme
 Reset frequency        DirectResetFreq ....    20
 Integral Threshold     Thresh          ....  3.000e-16 Eh
 Primitive CutOff       TCut            ....  3.000e-16 Eh

Convergence Tolerance:
 Convergence Check Mode ConvCheckMode   .... All-Criteria
 Convergence forced     ConvForced      .... 0
 Energy Change          TolE            ....  1.000e-14 Eh
 Max Density Change     TolMaxP         ....  1.000e-14
 RMS Density Change     TolRMSP         ....  1.000e-14
 Orbital Gradient       TolG            ....  1.000e-09
 Orbital Rotation angle TolX            ....  1.000e-09
 DIIS Error             TolErr          ....  1.000e-14

------------------------------
INITIAL GUESS: MODEL POTENTIAL
------------------------------
Loading Hartree-Fock densities                     ... done
Calculating cut-offs                               ... done
Initializing the effective Hamiltonian             ... done
Setting up the integral package (SHARK)            ... done
Starting the Coulomb interaction                   ... done (   0.4 sec)
Making the grid                                    ... done (   0.1 sec)
Mapping shells                                     ... done
Starting the XC term evaluation                    ... done (   0.1 sec)
  promolecular density results
     # of electrons  =     47.996250833
     EX              =    -56.692866780
     EC              =     -1.650777587
     EX+EC           =    -58.343644367
Transforming the Hamiltonian                       ... done (   0.1 sec)
Diagonalizing the Hamiltonian                      ... done (   0.2 sec)
Back transforming the eigenvectors                 ... done (   0.1 sec)
Now organizing SCF variables                       ... done
                      ------------------
                      INITIAL GUESS DONE (   1.0 sec)
                      ------------------
             **** ENERGY FILE WAS UPDATED (run.en.tmp) ****
Finished Guess after   1.8 sec
Maximum memory used throughout the entire GUESS-calculation: 26.8 MB


           ************************************************************
           *        Program running with 24 parallel MPI-processes    *
           *              working on a common directory               *
           ************************************************************

-------------------------------------------------------------------------------------------
                                      ORCA LEAN-SCF
                              memory conserving SCF solver
-------------------------------------------------------------------------------------------

----------------------------------------D-I-I-S--------------------------------------------
Iteration    Energy (Eh)           Delta-E    RMSDP     MaxDP     DIISErr   Damp  Time(sec)
-------------------------------------------------------------------------------------------
               ***  Starting incremental Fock matrix formation  ***
    1    -732.2394875300640251     0.00e+00  1.09e-03  1.11e-02  8.20e-02  0.700   2.6
    2    -732.2531072619224233    -1.36e-02  9.76e-04  9.18e-03  5.52e-02  0.700   1.9
                               ***Turning on AO-DIIS***
    3    -732.2618331928836142    -8.73e-03  6.08e-04  6.14e-03  3.27e-02  0.700   1.6
    4    -732.2670382748626707    -5.21e-03  1.33e-03  1.36e-02  2.13e-02  0.000   1.6
                              *** Initializing SOSCF ***
---------------------------------------S-O-S-C-F--------------------------------------
Iteration    Energy (Eh)           Delta-E    RMSDP     MaxDP     MaxGrad    Time(sec)
--------------------------------------------------------------------------------------
    5    -732.2774361431563648    -1.04e-02  1.18e-04  1.14e-03  1.61e-03     1.9
               *** Restarting incremental Fock matrix formation ***
    6    -732.2774663588418207    -3.02e-05  7.59e-05  8.96e-04  2.47e-04     1.5
    7    -732.2774690069813914    -2.65e-06  2.28e-05  2.19e-04  1.78e-04     1.4
    8    -732.2774704404107524    -1.43e-06  1.05e-05  1.21e-04  4.59e-05     1.3
    9    -732.2774705119181817    -7.15e-08  3.79e-06  3.68e-05  2.09e-05     1.4
   10    -732.2774705463816645    -3.45e-08  6.02e-07  5.50e-06  2.64e-06     1.3
   11    -732.2774705466429168    -2.61e-10  2.38e-07  2.39e-06  1.19e-06     1.3
   12    -732.2774705467857075    -1.43e-10  3.65e-08  4.50e-07  1.84e-07     1.3
   13    -732.2774705467872991    -1.59e-12  1.82e-08  2.33e-07  1.71e-07     1.3
   14    -732.2774705467877538    -4.55e-13  3.58e-09  4.30e-08  1.08e-08     1.3
   15    -732.2774705467898002    -2.05e-12  1.81e-09  2.01e-08  8.17e-09     1.3
   16    -732.2774705467884360     1.36e-12  0.00e+00  0.00e+00  9.51e-10     1.2
                           ***RMSP convergence achieved***
                           ***MAXP convergence achieved***
                       ***Gradient convergence achieved***
                    ***Orbital Rotation convergence achieved***
   17    -732.2774705467884360     0.00e+00  0.00e+00  0.00e+00  9.51e-10     1.0
                          ***Energy convergence achieved***

               *****************************************************
               *                     SUCCESS                       *
               *           SCF CONVERGED AFTER  17 CYCLES          *
               *****************************************************

             **** ENERGY FILE WAS UPDATED (run.en.tmp) ****

----------------
TOTAL SCF ENERGY
----------------

Total Energy       :       -732.27747054678844 Eh          -19926.28301 eV

Components:
Nuclear Repulsion  :        170.92814844286016 Eh            4651.19138 eV
Electronic Energy  :       -903.20561898964866 Eh          -24577.47439 eV
One Electron Energy:      -1356.91336857267720 Eh          -36923.48991 eV
Two Electron Energy:        453.70774958302854 Eh           12346.01553 eV

Virial components:
Potential Energy   :      -1462.86079044521330 Eh          -39806.46583 eV
Kinetic Energy     :        730.58331989842486 Eh           19880.18282 eV
Virial Ratio       :          2.00231890135214

DFT components:
N(Alpha)           :       24.000002519573 electrons
N(Beta)            :       24.000002519573 electrons
N(Total)           :       48.000005039146 electrons
E(X)               :      -57.155465600515 Eh       
E(C)               :       -1.632514691107 Eh       
E(XC)              :      -58.787980291622 Eh       

---------------
SCF CONVERGENCE
---------------

  Last Energy change         ...    0.0000e+00  Tolerance :   1.0000e-14
  Last MAX-Density change    ...    0.0000e+00  Tolerance :   1.0000e-14
  Last RMS-Density change    ...    0.0000e+00  Tolerance :   1.0000e-14
  Last DIIS Error            ...    1.6144e-03  Tolerance :   1.0000e-14
  Last Orbital Gradient      ...    9.5147e-10  Tolerance :   1.0000e-09
  Last Orbital Rotation      ...    0.0000e+00  Tolerance :   1.0000e-09


----------------
ORBITAL ENERGIES
----------------

  NO   OCC          E(Eh)            E(eV) 
   0   2.0000     -55.386250     -1507.1365 
   1   2.0000     -55.386233     -1507.1360 
   2   2.0000     -55.385204     -1507.1080 
   3   2.0000      -3.941382      -107.2505 
   4   2.0000      -3.941359      -107.2498 
   5   2.0000      -3.940267      -107.2201 
   6   2.0000      -2.546467       -69.2929 
   7   2.0000      -2.546436       -69.2920 
   8   2.0000      -2.545598       -69.2692 
   9   2.0000      -2.544377       -69.2360 
  10   2.0000      -2.544291       -69.2337 
  11   2.0000      -2.543033       -69.1994 
  12   2.0000      -2.538313       -69.0710 
  13   2.0000      -2.538285       -69.0703 
  14   2.0000      -2.537138       -69.0390 
  15   2.0000      -0.482682       -13.1344 
  16   2.0000      -0.395862       -10.7720 
  17   2.0000      -0.393573       -10.7097 
  18   2.0000      -0.313580        -8.5329 
  19   2.0000      -0.307563        -8.3692 
  20   2.0000      -0.296191        -8.0598 
  21   2.0000      -0.287969        -7.8360 
  22   2.0000      -0.276316        -7.5189 
  23   2.0000      -0.270249        -7.3539 
  24   0.0000      -0.060858        -1.6560 
  25   0.0000      -0.055277        -1.5042 
  26   0.0000      -0.051981        -1.4145 
  27   0.0000      -0.047453        -1.2913 
  28   0.0000      -0.025465        -0.6929 
  29   0.0000      -0.010190        -0.2773 
  30   0.0000      -0.002284        -0.0622 
  31   0.0000       0.006289         0.1711 
  32   0.0000       0.014526         0.3953 
  33   0.0000       0.022369         0.6087 
  34   0.0000       0.031077         0.8456 
*Only the first 10 virtual orbitals were printed.
-------
TIMINGS
-------

Total SCF time: 0 days 0 hours 0 min 27 sec 

Total time                  ....      27.226 sec
Sum of individual times     ....      26.346 sec  ( 96.8%)

SCF preparation             ....       0.729 sec  (  2.7%)
Fock matrix formation       ....      19.145 sec  ( 70.3%)
  Startup                   ....       0.146 sec  (  0.8% of F)
  Split-RI-J                ....       4.805 sec  ( 25.1% of F)
  XC integration            ....      13.819 sec  ( 72.2% of F)
    XC Preparation          ....       0.000 sec  (  0.0% of XC)
    Basis function eval.    ....       3.029 sec  ( 21.9% of XC)
    Density eval.           ....       4.914 sec  ( 35.6% of XC)
    XC-Functional eval.     ....       0.137 sec  (  1.0% of XC)
    XC-Potential eval.      ....       4.771 sec  ( 34.5% of XC)
Diagonalization             ....       0.000 sec  (  0.0%)
Density matrix formation    ....       0.565 sec  (  2.1%)
Total Energy calculation    ....       0.331 sec  (  1.2%)
Population analysis         ....       0.000 sec  (  0.0%)
Orbital Transformation      ....       0.653 sec  (  2.4%)
Orbital Orthonormalization  ....       0.000 sec  (  0.0%)
DIIS solution               ....       2.224 sec  (  8.2%)
SOSCF solution              ....       2.698 sec  (  9.9%)
Finished LeanSCF after  27.3 sec

Maximum memory used throughout the entire LEANSCF-calculation: 28.9 MB


           ************************************************************
           *        Program running with 24 parallel MPI-processes    *
           *              working on a common directory               *
           ************************************************************

------------------------------------------------------------------------------
                         ORCA PROPERTY INTEGRAL CALCULATIONS
------------------------------------------------------------------------------

GBWName                                   ... run.gbw
Number of atoms                           ...     12
Number of basis functions                 ...    480
Max core memory                           ...   4096 MB

Dipole integrals                          ... YES
Quadrupole integrals                      ...  NO
Linear momentum integrals                 ...  NO
Angular momentum integrals                ...  NO
Higher moments length integrals           ...  NO
Higher moments velocity integrals         ...  NO
Kinetic energy integrals                  ...  NO
GIAO right hand sides                     ...  NO
GIAO dipole derivative integrals          ...  NO
SOC integrals                             ...  NO
EPR diamagnetic integrals (GIAO)          ...  NO
EPR gauge integrals                       ...  NO
Field gradient integrals                  ...  NO (   0 nuclei)
Spin-dipole/Fermi contact integrals       ...  NO (   0 nuclei)
Contact density integrals                 ...  NO (   0 nuclei)
Nucleus-orbit integrals                   ...  NO (   0 nuclei)
Geometric perturbations                   ...  NO (  12 nuclei)

Choice of electric origin   ... Center of mass
Position of electric origin ... (  0.0166,  0.0014,  3.1811) 
Choice of magnetic origin   ... GIAO
Position of magnetic origin ... (  0.0000,  0.0000,  0.0000) 

Calculating integrals                     ... Electric Dipole (Length)     done (  0.1 sec)

Property integrals calculated in   0.1 sec

Maximum memory used throughout the entire PROPINT-calculation: 28.4 MB


-------------------------------------------------------------------------------
                          DFT DISPERSION CORRECTION                            
                                                                               
                                DFTD4 V3.4.0                                   
-------------------------------------------------------------------------------
The PBE functional is recognized
Active option DFTDOPT                   ...         5   

-------------------------   ----------------
Dispersion correction           -0.009100889
-------------------------   ----------------


-------------------------   --------------------
FINAL SINGLE POINT ENERGY      -732.286571435357
-------------------------   --------------------



           ************************************************************
           *        Program running with 24 parallel MPI-processes    *
           *              working on a common directory               *
           ************************************************************
------------------------------------------------------------------------------
                         ORCA SCF GRADIENT CALCULATION
------------------------------------------------------------------------------

Nuc. rep. gradient        (SHARK) ... done (  0.0 sec)
HCore & Overlap gradient  (SHARK) ... done (  0.2 sec)
Split-RIJ-J gradient      (SHARK) ... done (  1.4 sec)
XC gradient                       ... done (  6.0 sec)
Dispersion correction             ... done (  0.3 sec)

-------------------
DISPERSION GRADIENT
-------------------

   1   Al  :   -0.000048960    0.000179861    0.000120112
   2   Al  :   -0.000001127    0.000000330   -0.000214696
   3   H   :    0.000016556   -0.000067845   -0.000038802
   4   H   :   -0.000062800   -0.000031583   -0.000154570
   5   H   :   -0.000017110    0.000067872   -0.000038966
   6   H   :   -0.000069828    0.000104166    0.000071671
   7   H   :    0.000000186    0.000000055    0.000081965
   8   H   :    0.000061267    0.000031100   -0.000155145
   9   Al  :    0.000049207   -0.000179929    0.000120913
  10   H   :    0.000071140   -0.000104065    0.000071717
  11   H   :   -0.000072864   -0.000161496    0.000068366
  12   H   :    0.000074334    0.000161533    0.000067433

Difference to translation invariance:
           :    0.0000000000    0.0000000000    0.0000000000

Difference to rotation invariance:
           :   -0.0000000000    0.0000000000    0.0000000000

Norm of the Dispersion gradient    ...    0.0005796159
RMS gradient                       ...    0.0000966027
MAX gradient                       ...    0.0002146956

------------------
CARTESIAN GRADIENT
------------------

   1   Al  :    0.000160592    0.000035493   -0.000100988
   2   Al  :    0.000000025   -0.000002180    0.000070744
   3   H   :    0.000407035   -0.000069825   -0.000081896
   4   H   :   -0.000440206   -0.000342192   -0.000218850
   5   H   :   -0.000413365    0.000069785   -0.000078337
   6   H   :   -0.000516195    0.000193141    0.000254488
   7   H   :   -0.000006534   -0.000001490    0.000420012
   8   H   :    0.000440894    0.000343576   -0.000218677
   9   Al  :   -0.000155770   -0.000031126   -0.000095703
  10   H   :    0.000522510   -0.000185246    0.000249165
  11   H   :   -0.000523630   -0.000188268   -0.000096318
  12   H   :    0.000524643    0.000178332   -0.000103641

Difference to translation invariance:
           :    0.0000000000   -0.0000000000   -0.0000000000

Difference to rotation invariance:
           :   -0.0000031320    0.0000034057    0.0000064598

Norm of the Cartesian gradient     ...    0.0016449654
RMS gradient                       ...    0.0002741609
MAX gradient                       ...    0.0005246428

-------
TIMINGS
-------

Total SCF gradient time     ....        7.818 sec

Densities                   ....       0.010 sec  (  0.1%)
One electron gradient       ....       0.181 sec  (  2.3%)
RI-J Coulomb gradient       ....       1.386 sec  ( 17.7%)
XC gradient                 ....       5.959 sec  ( 76.2%)

Maximum memory used throughout the entire SCFGRAD-calculation: 45.0 MB
------------------------------------------------------------------------------
                         ORCA GEOMETRY RELAXATION STEP
------------------------------------------------------------------------------

Reading the OPT-File                    .... done
Getting information on internals        .... done
Copying old internal coords+grads       .... done
Making the new internal coordinates     .... (2022 redundants) done
Validating the new internal coordinates .... (2022 redundants) done
Calculating the B-matrix                .... done
Calculating the G,G- and P matrices     .... done
Transforming gradient to internals      .... done
Projecting the internal gradient        .... done
Number of atoms                         ....  12
Number of internal coordinates          .... 117
Current Energy                          ....  -732.286571435 Eh
Current gradient norm                   ....     0.001644965 Eh/bohr
Maximum allowed component of the step   ....  0.300
Current trust radius                    ....  0.300
Evaluating the initial hessian          ....  (Almloef) done
Projecting the Hessian                  .... done
Forming the augmented Hessian           .... done
Diagonalizing the augmented Hessian     .... done
Last element of RFO vector              ....  0.999985551
Lowest eigenvalues of augmented Hessian:
 -0.000007664  0.018991915  0.022454116  0.032491964  0.059300197
Length of the computed step             ....  0.005375795
The final length of the internal step   ....  0.005375795
Converting the step to Cartesian space:
 Initial RMS(Int)=    0.0004969924
Transforming coordinates:
 Iter   0:  RMS(Cart)=    0.0008611301 RMS(Int)=    0.0004970134
done
Storing new coordinates                 .... done

                                .--------------------.
          ----------------------|Geometry convergence|-------------------------
          Item                value                   Tolerance       Converged
          ---------------------------------------------------------------------
          RMS gradient        0.0001481885            0.0000080000      NO
          MAX gradient        0.0006024916            0.0000300000      NO
          RMS step            0.0004969924            0.0001000000      NO
          MAX step            0.0014940524            0.0002000000      NO
          -------------------------------------------------------------------------
          ........................................................
          Max(Bonds)      0.0008      Max(Angles)    0.03
          Max(Dihed)        0.03      Max(Improp)    0.00
          ---------------------------------------------------------------------

The optimization has not yet converged - more geometry cycles are needed


    ---------------------------------------------------------------------------
                         Redundant Internal Coordinates
                            (Angstroem and degrees)

        Definition                    Value    dE/dq     Step     New-Value
    ----------------------------------------------------------------------------
     1. B(Al  1,Al  0)                3.0622  0.000152 -0.0006    3.0616   
     2. B(H   2,Al  1)                1.7226  0.000162 -0.0005    1.7221   
     3. B(H   3,Al  1)                1.5864  0.000597 -0.0008    1.5857   
     4. B(H   4,Al  1)                1.7227  0.000176 -0.0005    1.7222   
     5. B(H   4,Al  0)                1.7220  0.000193 -0.0006    1.7215   
     6. B(H   5,Al  0)                1.5868  0.000602 -0.0008    1.5861   
     7. B(H   6,Al  0)                1.7159  0.000222 -0.0006    1.7153   
     8. B(H   7,Al  1)                1.5864  0.000598 -0.0008    1.5856   
     9. B(Al  8,H   6)                1.7159  0.000218 -0.0006    1.7153   
    10. B(Al  8,H   2)                1.7220  0.000178 -0.0006    1.7215   
    11. B(Al  8,Al  1)                3.0659  0.000162 -0.0007    3.0653   
    12. B(Al  8,Al  0)                3.0732  0.000191 -0.0008    3.0725   
    13. B(H   9,Al  8)                1.5868  0.000602 -0.0008    1.5860   
    14. B(H  10,Al  8)                1.5874  0.000564 -0.0007    1.5867   
    15. B(H  11,Al  0)                1.5875  0.000562 -0.0007    1.5867   
    16. A(H   4,Al  0,H   6)           98.09  0.000081   -0.00     98.08   
    17. A(Al  1,Al  0,H   4)           27.26  0.000058   -0.01     27.25   
    18. A(Al  1,Al  0,Al  8)           59.96 -0.000002    0.00     59.96   
    19. A(Al  8,Al  0,H  11)          103.57 -0.000012    0.00    103.57   
    20. A(H   4,Al  0,H   5)          104.41 -0.000084    0.02    104.43   
    21. A(H   6,Al  0,H  11)          106.77 -0.000002   -0.00    106.77   
    22. A(Al  1,Al  0,H   5)          131.50 -0.000028    0.00    131.51   
    23. A(Al  1,Al  0,H  11)           88.79 -0.000015    0.01     88.79   
    24. A(H   5,Al  0,H  11)          128.88  0.000051   -0.01    128.87   
    25. A(H   5,Al  0,H   6)          105.88 -0.000064    0.01    105.89   
    26. A(H   4,Al  0,Al  8)           74.24  0.000028    0.00     74.24   
    27. A(Al  1,Al  0,H   6)           86.38  0.000068   -0.01     86.37   
    28. A(H   5,Al  0,Al  8)          122.51 -0.000027    0.01    122.52   
    29. A(H   4,Al  0,H  11)          108.63  0.000032   -0.01    108.63   
    30. A(H   6,Al  0,Al  8)           26.43  0.000070   -0.01     26.41   
    31. A(H   2,Al  1,H   7)          104.77 -0.000063    0.01    104.78   
    32. A(H   3,Al  1,H   4)          104.76 -0.000064    0.01    104.77   
    33. A(Al  0,Al  1,H   3)          127.35 -0.000013   -0.00    127.35   
    34. A(H   2,Al  1,H   4)           95.84  0.000087   -0.01     95.83   
    35. A(H   4,Al  1,Al  8)           74.44  0.000037   -0.00     74.44   
    36. A(H   3,Al  1,Al  8)           98.64 -0.000019    0.01     98.64   
    37. A(H   2,Al  1,H   3)          109.39  0.000004   -0.00    109.39   
    38. A(H   2,Al  1,Al  8)           27.11  0.000049   -0.01     27.10   
    39. A(Al  0,Al  1,Al  8)           60.20  0.000007   -0.00     60.19   
    40. A(H   7,Al  1,Al  8)          127.35 -0.000024    0.00    127.35   
    41. A(Al  0,Al  1,H   4)           27.25  0.000060   -0.01     27.24   
    42. A(H   4,Al  1,H   7)          109.39  0.000009   -0.00    109.38   
    43. A(Al  0,Al  1,H   7)           98.73 -0.000025    0.01     98.74   
    44. A(Al  0,Al  1,H   2)           74.23  0.000032   -0.00     74.23   
    45. A(H   3,Al  1,H   7)          128.07  0.000045   -0.01    128.06   
    46. A(Al  1,H   2,Al  8)          125.76 -0.000095    0.02    125.79   
    47. A(Al  0,H   4,Al  1)          125.49 -0.000118    0.03    125.51   
    48. A(Al  0,H   6,Al  8)          127.15 -0.000140    0.02    127.17   
    49. A(Al  1,Al  8,H   2)           27.12  0.000046   -0.01     27.11   
    50. A(Al  0,Al  8,H   2)           73.91  0.000021    0.00     73.91   
    51. A(Al  0,Al  8,Al  1)           59.84 -0.000005    0.00     59.84   
    52. A(H   6,Al  8,H  10)          106.67 -0.000013    0.00    106.68   
    53. A(H   2,Al  8,H  10)          108.66  0.000019   -0.01    108.65   
    54. A(Al  1,Al  8,H  10)           89.05 -0.000020    0.01     89.06   
    55. A(Al  0,Al  8,H  10)          104.32 -0.000022    0.00    104.33   
    56. A(H   6,Al  8,H   9)          105.97 -0.000056    0.01    105.98   
    57. A(H   9,Al  8,H  10)          128.87  0.000064   -0.01    128.86   
    58. A(H   2,Al  8,H   9)          104.38 -0.000082    0.02    104.40   
    59. A(Al  1,Al  8,H   9)          131.31 -0.000037    0.00    131.32   
    60. A(Al  0,Al  8,H   9)          121.88 -0.000025    0.01    121.88   
    61. A(H   2,Al  8,H   6)           98.12  0.000077   -0.01     98.12   
    62. A(Al  1,Al  8,H   6)           86.26  0.000066   -0.01     86.25   
    63. A(Al  0,Al  8,H   6)           26.42  0.000070   -0.01     26.41   
    64. D(H   2,Al  1,Al  0,H   4)   -141.21 -0.000031   -0.01   -141.22   
    65. D(H   3,Al  1,Al  0,H   6)     76.90 -0.000013    0.01     76.91   
    66. D(H   3,Al  1,Al  0,H   5)    -31.17  0.000019    0.00    -31.17   
    67. D(H   3,Al  1,Al  0,Al  8)     77.33 -0.000012    0.01     77.34   
    68. D(H   2,Al  1,Al  0,Al  8)    -25.29 -0.000042    0.01    -25.28   
    69. D(H   3,Al  1,Al  0,H   4)    -38.59 -0.000001   -0.01    -38.60   
    70. D(H   2,Al  1,Al  0,H   6)    -25.72 -0.000043    0.01    -25.71   
    71. D(H   2,Al  1,Al  0,H   5)   -133.79 -0.000011    0.01   -133.79   
    72. D(H   2,Al  1,Al  0,H  11)     81.16 -0.000046    0.01     81.18   
    73. D(H   3,Al  1,Al  0,H  11)   -176.22 -0.000016    0.01   -176.21   
    74. D(Al  8,H   2,Al  1,H   7)    149.52 -0.000006   -0.01    149.51   
    75. D(Al  8,H   2,Al  1,H   3)    -70.23  0.000003   -0.01    -70.24   
    76. D(Al  8,H   2,Al  1,Al  0)     54.44 -0.000004   -0.01     54.43   
    77. D(Al  8,H   2,Al  1,H   4)     37.68 -0.000031   -0.00     37.68   
    78. D(Al  1,H   4,Al  0,H   5)   -174.27  0.000015    0.01   -174.26   
    79. D(Al  0,H   4,Al  1,H   7)    -70.61  0.000016   -0.02    -70.63   
    80. D(Al  0,H   4,Al  1,Al  8)     54.11 -0.000002   -0.02     54.10   
    81. D(Al  0,H   4,Al  1,H   3)    149.15  0.000004   -0.01    149.14   
    82. D(Al  0,H   4,Al  1,H   2)     37.31 -0.000015   -0.01     37.30   
    83. D(Al  1,H   4,Al  0,H  11)     45.32 -0.000007    0.02     45.34   
    84. D(Al  1,H   4,Al  0,Al  8)    -54.01  0.000005    0.02    -53.99   
    85. D(Al  1,H   4,Al  0,H   6)    -65.50 -0.000047    0.03    -65.47   
    86. D(Al  8,H   6,Al  0,H   4)     25.52  0.000059   -0.02     25.50   
    87. D(Al  8,H   6,Al  0,Al  1)      0.83 -0.000000    0.00      0.83   
    88. D(Al  8,H   6,Al  0,H   5)    133.08 -0.000019    0.00    133.09   
    89. D(Al  8,H   6,Al  0,H  11)    -86.81 -0.000005   -0.01    -86.81   
    90. D(Al  1,Al  8,Al  0,H  11)    -80.52  0.000011   -0.01    -80.53   
    91. D(Al  1,Al  8,Al  0,H   6)    179.04  0.000000   -0.00    179.04   
    92. D(Al  1,Al  8,Al  0,H   5)    122.63 -0.000027    0.00    122.63   
    93. D(H   2,Al  8,Al  0,Al  1)     25.35  0.000041   -0.01     25.33   
    94. D(Al  1,Al  8,Al  0,H   4)     25.35  0.000052   -0.02     25.33   
    95. D(H   9,Al  8,H   6,Al  0)    131.19 -0.000027    0.00    131.20   
    96. D(H   2,Al  8,H   6,Al  0)     23.63  0.000047   -0.01     23.61   
    97. D(Al  1,Al  8,H   6,Al  0)     -0.83  0.000000   -0.00     -0.83   
    98. D(H  10,Al  8,H   2,Al  1)     45.77 -0.000014    0.02     45.78   
    99. D(H   9,Al  8,H   2,Al  1)   -173.85  0.000017    0.01   -173.84   
   100. D(H   6,Al  8,H   2,Al  1)    -64.97 -0.000037    0.02    -64.95   
   101. D(H   6,Al  8,Al  1,H   2)    115.98 -0.000004    0.02    116.00   
   102. D(H   6,Al  8,Al  1,Al  0)      0.43  0.000001   -0.00      0.43   
   103. D(H   2,Al  8,Al  1,H   7)    -38.10 -0.000007   -0.01    -38.10   
   104. D(H   2,Al  8,Al  1,H   4)   -140.86 -0.000048   -0.00   -140.86   
   105. D(H   2,Al  8,Al  1,H   3)    116.12  0.000011   -0.01    116.11   
   106. D(H   2,Al  8,Al  1,Al  0)   -115.55  0.000005   -0.02   -115.57   
   107. D(Al  0,Al  8,Al  1,H   7)     77.46 -0.000012    0.01     77.47   
   108. D(Al  0,Al  8,Al  1,H   4)    -25.31 -0.000053    0.02    -25.29   
   109. D(Al  0,Al  8,H   2,Al  1)    -54.28  0.000009    0.01    -54.27   
   110. D(Al  0,Al  8,Al  1,H   3)   -128.33  0.000006    0.01   -128.32   
   111. D(Al  0,Al  8,Al  1,H   2)    115.55 -0.000005    0.02    115.57   
   112. D(H   6,Al  8,Al  0,Al  1)   -179.04 -0.000000    0.00   -179.04   
   113. D(H   2,Al  8,Al  0,H  11)    -55.17  0.000052   -0.02    -55.20   
   114. D(H   2,Al  8,Al  0,H   6)   -155.61  0.000041   -0.01   -155.63   
   115. D(H   2,Al  8,Al  0,H   5)    147.98  0.000014   -0.01    147.97   
   116. D(H  10,Al  8,H   6,Al  0)    -88.72  0.000001   -0.00    -88.72   
   117. D(H   2,Al  8,Al  0,H   4)     50.70  0.000093   -0.03     50.66   
    ----------------------------------------------------------------------------

Geometry step timings:
Preparation and reading OPT file:      0.000 s ( 0.150 %)
Internal coordinates            :      0.000 s ( 0.204 %)
B/P matrices and projection     :      0.003 s ( 9.418 %)
Hessian update/contruction      :      0.002 s ( 5.550 %)
Making the step                 :      0.025 s (80.137 %)
Converting the step to Cartesian:      0.000 s ( 1.197 %)
Storing new data                :      0.000 s ( 0.297 %)
Checking convergence            :      0.000 s ( 0.195 %)
Final printing                  :      0.001 s ( 2.847 %)
Total time                      :      0.031 s

Time for energy+gradient        :     47.474 s
Time for complete geometry iter :     48.234 s

         *************************************************************
         *                GEOMETRY OPTIMIZATION CYCLE   2            *
         *************************************************************
---------------------------------
CARTESIAN COORDINATES (ANGSTROEM)
---------------------------------
  Al    -0.229489    1.518315    2.565180
  Al     0.000120   -0.000512   -0.083185
  H      0.872198   -0.935954    1.070083
  H     -1.103785   -0.907846   -0.770526
  H     -0.862602    0.941516    1.071885
  H     -1.472899    2.183809    3.290858
  H      0.004062    0.000970    3.330211
  H      1.098230    0.903066   -0.784560
  Al     0.255710   -1.515588    2.569207
  H      1.512510   -2.162005    3.289033
  H     -1.179933   -2.143162    2.318862
  H      1.212818    2.125700    2.303311

----------------------------
CARTESIAN COORDINATES (A.U.)
----------------------------
  NO LB      ZA    FRAG     MASS         X           Y           Z
   0 Al   13.0000    0    26.982   -0.433671    2.869200    4.847488
   1 Al   13.0000    0    26.982    0.000227   -0.000968   -0.157198
   2 H     1.0000    0     1.008    1.648215   -1.768697    2.022165
   3 H     1.0000    0     1.008   -2.085851   -1.715580   -1.456084
   4 H     1.0000    0     1.008   -1.630082    1.779208    2.025570
   5 H     1.0000    0     1.008   -2.783375    4.126801    6.218821
   6 H     1.0000    0     1.008    0.007676    0.001833    6.293187
   7 H     1.0000    0     1.008    2.075354    1.706548   -1.482603
   8 Al   13.0000    0    26.982    0.483223   -2.864046    4.855098
   9 H     1.0000    0     1.008    2.858229   -4.085598    6.215371
  10 H     1.0000    0     1.008   -2.229750   -4.049990    4.382014
  11 H     1.0000    0     1.008    2.291894    4.016992    4.352627

--------------------------------
INTERNAL COORDINATES (ANGSTROEM)
--------------------------------
 Al     0   0   0     0.000000000000     0.00000000     0.00000000
 Al     1   0   0     3.061600523462     0.00000000     0.00000000
 H      2   1   0     1.722091771696    74.22589510     0.00000000
 H      2   1   3     1.585653741743   127.34589195   102.61685755
 H      1   2   3     1.721469830822    27.25102129   218.78387348
 H      1   2   3     1.586051292530   131.50855644   226.21294608
 H      1   2   3     1.715271270025    86.37389691   334.29287721
 H      2   1   3     1.585630666391    98.73516320   257.01163057
 Al     7   1   2     1.715342605073   127.17127692     0.83213094
 H      9   7   1     1.586048263422   105.97608889   131.19609404
 H      9   7   1     1.586693033563   106.67525430   271.28046252
 H      1   2   3     1.586739125842    88.79480418    81.17693396

---------------------------
INTERNAL COORDINATES (A.U.)
---------------------------
 Al     0   0   0     0.000000000000     0.00000000     0.00000000
 Al     1   0   0     5.785586520812     0.00000000     0.00000000
 H      2   1   0     3.254281825985    74.22589510     0.00000000
 H      2   1   3     2.996451315122   127.34589195   102.61685755
 H      1   2   3     3.253106528061    27.25102129   218.78387348
 H      1   2   3     2.997202577233   131.50855644   226.21294608
 H      1   2   3     3.241392945731    86.37389691   334.29287721
 H      2   1   3     2.996407709026    98.73516320   257.01163057
 Al     7   1   2     3.241527749435   127.17127692     0.83213094
 H      9   7   1     2.997196853048   105.97608889   131.19609404
 H      9   7   1     2.998415292035   106.67525430   271.28046252
 H      1   2   3     2.998502393819    88.79480418    81.17693396



           ************************************************************
           *        Program running with 24 parallel MPI-processes    *
           *              working on a common directory               *
           ************************************************************
------------------------------------------------------------------------------
                   ___                                                        
                  /   \      - P O W E R E D   B Y -                         
                 /     \                                                     
                 |  |  |   _    _      __       _____    __    __             
                 |  |  |  | |  | |    /  \     |  _  \  |  |  /  |          
                  \  \/   | |  | |   /    \    | | | |  |  | /  /          
                 / \  \   | |__| |  /  /\  \   | |_| |  |  |/  /          
                |  |  |   |  __  | /  /__\  \  |    /   |      \           
                |  |  |   | |  | | |   __   |  |    \   |  |\   \          
                \     /   | |  | | |  |  |  |  | |\  \  |  | \   \       
                 \___/    |_|  |_| |__|  |__|  |_| \__\ |__|  \__/        
                                                                              
                      - O R C A' S   B I G   F R I E N D -                    
                                      &                                       
                       - I N T E G R A L  F E E D E R -                       
                                                                              
 v1 FN, 2020, v2 2021, v3 2022-2024                                           
------------------------------------------------------------------------------


----------------------
SHARK INTEGRAL PACKAGE
----------------------

Number of atoms                             ...     12
Number of basis functions                   ...    480
Number of shells                            ...    156
Maximum angular momentum                    ...      4
Integral batch strategy                     ... SHARK/LIBINT Hybrid
RI-J (if used) integral strategy            ... SPLIT-RIJ (Revised 2003 algorithm where possible)
Printlevel                                  ...      1
Contraction scheme used                     ... SEGMENTED contraction
Prescreening option                         ... SCHWARTZ
   Thresh                                   ... 3.000e-16
   Tcut                                     ... 3.000e-16
   Tpresel                                  ... 3.000e-16 
Coulomb Range Separation                    ... NOT USED
Exchange Range Separation                   ... NOT USED
Multipole approximations                    ... NOT USED
Finite Nucleus Model                        ... NOT USED
CABS basis                                  ... NOT available
Auxiliary Coulomb fitting basis             ... AVAILABLE
   # of basis functions in Aux-J            ...    252
   # of shells in Aux-J                     ...     96
   Maximum angular momentum in Aux-J        ...      4
Auxiliary J/K fitting basis                 ... NOT available
Auxiliary Correlation fitting basis         ... NOT available
Auxiliary 'external' fitting basis          ... NOT available

Checking pre-screening integrals            ... done (  0.0 sec) Dimension = 156
   => SHARK Basis and OBASIS are compatible. Storing Pre-screening
Shell pair information
Shell pair cut-off parameter TPreSel        ...   3.0e-16
Total number of shell pairs                 ...     12246
Shell pairs after pre-screening             ...     11186
Total number of primitive shell pairs       ...     29205
Primitive shell pairs kept                  ...     21383
          la=0 lb=0:   1814 shell pairs
          la=1 lb=0:   2579 shell pairs
          la=1 lb=1:    967 shell pairs
          la=2 lb=0:   1699 shell pairs
          la=2 lb=1:   1245 shell pairs
          la=2 lb=2:    425 shell pairs
          la=3 lb=0:    849 shell pairs
          la=3 lb=1:    623 shell pairs
          la=3 lb=2:    414 shell pairs
          la=3 lb=3:    106 shell pairs
          la=4 lb=0:    189 shell pairs
          la=4 lb=1:    135 shell pairs
          la=4 lb=2:     90 shell pairs
          la=4 lb=3:     45 shell pairs
          la=4 lb=4:      6 shell pairs

Checking whether 4 symmetric matrices of dimension 480 fit in memory
:Max Core in MB      =   4096.00
 MB in use           =     19.03
 MB left             =   4076.97
 MB needed           =      3.52
 Data fit in memory  = YES
Calculating RI/J V-Matrix + Cholesky decomp.... done (  0.0 sec)
Calculating Nuclear repulsion               ... done (  0.0 sec) ENN=    170.977701041127 Eh

Diagonalization of the overlap matrix:
Smallest eigenvalue                        ... 1.609e-04
Time for diagonalization                   ...    0.130 sec
Threshold for overlap eigenvalues          ... 1.000e-07
Number of eigenvalues below threshold      ... 0
Time for construction of square roots      ...    0.080 sec
Total time needed                          ...    0.220 sec

-------------------
DFT GRID GENERATION
-------------------

General Integration Accuracy     IntAcc      ... 4.959
Radial Grid Type                 RadialGrid  ... OptM3 with GC (2021)
Angular Grid (max. ang.)         AngularGrid ... 6 (Lebedev-590)
Angular grid pruning method      GridPruning ... 4 (adaptive)
Weight generation scheme         WeightScheme... mBecke (2022)
Basis function cutoff            BFCut       ... 3.0000e-16
Integration weight cutoff        WCut        ... 1.0000e-14
Partially contracted basis set               ... off
Rotationally invariant grid construction     ... off
Angular grids for H and He will be reduced by one unit

Total number of grid points                  ...   128056
Total number of batches                      ...     2007
Average number of points per batch           ...       63
Average number of grid points per atom       ...    10671
Grids setup in   2.6 sec
Initializing property integral containers    ... done (  0.0 sec)

SHARK setup successfully completed in   3.5 seconds

Maximum memory used throughout the entire STARTUP-calculation: 42.0 MB


           ************************************************************
           *        Program running with 24 parallel MPI-processes    *
           *              working on a common directory               *
           ************************************************************
Occupation numbers will be reassigned to an Aufbau configuration
             **** ENERGY FILE WAS UPDATED (run.en.tmp) ****
Finished Guess after   1.2 sec
Maximum memory used throughout the entire GUESS-calculation: 28.6 MB


           ************************************************************
           *        Program running with 24 parallel MPI-processes    *
           *              working on a common directory               *
           ************************************************************
----------------------------------------D-I-I-S--------------------------------------------
[...]
     30       0.009343   0.008244   0.001188  -0.008841   0.051492   0.112683
     31      -0.010478   0.038682   0.026735   0.018173   0.022522   0.022247
     32      -0.010859  -0.052633  -0.051341   0.036853   0.018664   0.002270
     33      -0.010959   0.004217  -0.001792  -0.007627  -0.053080   0.111600
     34      -0.011142   0.037116  -0.029450   0.018447  -0.021591   0.020842
     35      -0.031464   0.040124  -0.053114  -0.037036   0.018105  -0.002852
                 30         31         32         33         34         35    
      0       0.006372  -0.005132  -0.000569   0.026645   0.026881  -0.020810
      1       0.014218  -0.008535   0.003075  -0.002569  -0.002278  -0.000566
      2       0.002069  -0.004050   0.003322  -0.010410  -0.010210   0.007321
      3      -0.000245   0.003718  -0.000189  -0.023664   0.003679  -0.027197
      4      -0.000412   0.006207  -0.000144  -0.018111   0.002830  -0.021782
      5      -0.000302  -0.000029  -0.019465   0.000158  -0.000701   0.000205
      6       0.006078   0.009064  -0.007588   0.000112  -0.008667  -0.004374
      7      -0.048270  -0.047804   0.049341  -0.018752   0.015213  -0.003794
      8       0.087369   0.075617  -0.089077   0.027625  -0.028356   0.001560
      9      -0.055288  -0.078470   0.486322   0.319453  -0.014385   0.366715
     10      -0.045803  -0.062827   0.393955   0.260581  -0.010761   0.295820
     11      -0.034063  -0.049492   0.296014   0.204582  -0.011603   0.227782
     12      -0.006245   0.007282   0.006727   0.002234   0.008171  -0.004325
     13       0.054246  -0.040304  -0.049537  -0.022029  -0.009608  -0.003760
     14       0.096289  -0.062062  -0.088950  -0.033929  -0.019705  -0.001386
     15       0.345862  -0.310044   0.077831  -0.417137  -0.386996   0.242078
     16      -0.180381   0.163672  -0.040856   0.225532   0.209017  -0.129552
     17      -0.200041   0.176529  -0.044044   0.244150   0.227452  -0.139739
     18      -0.002156   0.032045   0.000058   0.013307  -0.001689  -0.007007
     19       0.014572  -0.213530  -0.000238  -0.033029   0.003148   0.011592
     20       0.000805   0.000356  -0.001795  -0.000381  -0.002654  -0.000057
     21       0.064593  -0.067802  -0.480833   0.311150  -0.083704   0.364766
     22       0.053330  -0.054064  -0.389777   0.253729  -0.069154   0.294419
     23      -0.041225   0.044181   0.301557  -0.205797   0.052775  -0.233390
     24      -0.005357  -0.005478   0.000761   0.017882  -0.033317  -0.021249
     25      -0.012992  -0.010459  -0.003126  -0.001500   0.002361  -0.000869
     26       0.001591   0.004448   0.003408   0.006919  -0.012449  -0.007344
     27      -0.304461  -0.361800  -0.082575  -0.290698   0.489136   0.249473
     28       0.152463   0.183460   0.041739   0.151324  -0.254338  -0.128497
     29      -0.173492  -0.202987  -0.045959  -0.166937   0.282414   0.141557
     30       0.470525   0.508383   0.044877  -0.193142   0.412517   0.325545
     31       0.207897   0.224204   0.021313  -0.088943   0.188843   0.146190
     32       0.079612   0.088106   0.006486  -0.028675   0.066950   0.054345
     33      -0.539510   0.445841  -0.044913  -0.303727  -0.340577   0.320981
     34      -0.229822   0.189451  -0.020708  -0.134707  -0.150346   0.139067
     35       0.094837  -0.080139   0.006649   0.048558   0.058029  -0.055543


-----------
IR SPECTRUM
-----------

 Mode   freq       eps      Int      T**2         TX        TY        TZ
       cm**-1   L/(mol*cm) km/mol    a.u.
----------------------------------------------------------------------------
  7:    126.41   0.000314    1.59  0.000776  ( 0.000712 -0.000207 -0.027847)
  8:    150.23   0.000029    0.15  0.000060  ( 0.003760  0.006762  0.000290)
  9:    223.13   0.000614    3.10  0.000858  (-0.000099  0.000076 -0.029297)
 10:    299.26   0.001937    9.79  0.002020  (-0.037389  0.024937  0.000681)
 11:    322.60   0.000102    0.52  0.000099  (-0.000292  0.000078  0.009937)
 12:    402.22   0.001255    6.34  0.000974  (-0.021506  0.022613  0.000086)
 13:    418.13   0.000136    0.69  0.000102  ( 0.000101  0.000159  0.010077)
 14:    433.49   0.001775    8.97  0.001278  ( 0.000252 -0.000265  0.035741)
 15:    479.40   0.000476    2.41  0.000310  (-0.017350  0.002964  0.000416)
 16:    499.01   0.009076   45.87  0.005676  ( 0.064710 -0.038576 -0.000411)
 17:    566.02   0.022806  115.25  0.012574  (-0.000494 -0.000536  0.112130)
 18:    674.12   0.127199  642.81  0.058883  ( 0.003959  0.242620  0.001739)
 19:    675.53   0.095997  485.13  0.044346  ( 0.001975 -0.001989  0.210567)
 20:    712.42   0.000379    1.91  0.000166  ( 0.003038 -0.001197  0.012456)
 21:    716.76   0.024322  122.91  0.010589  (-0.085870  0.056673 -0.001950)
 22:    733.05   0.028122  142.12  0.011972  (-0.027432 -0.105870 -0.003256)
 23:    744.61   0.026151  132.16  0.010960  (-0.002305 -0.001499  0.104653)
 24:   1048.40   0.032438  163.93  0.009655  (-0.023208  0.007851  0.095158)
 25:   1051.26   0.034955  176.65  0.010376  ( 0.093217 -0.034167  0.022798)
 26:   1097.61   0.000032    0.16  0.000009  (-0.002710  0.001037  0.000809)
 27:   1692.93   0.007139   36.08  0.001316  ( 0.005914 -0.035748 -0.001768)
 28:   1746.31   0.176227  890.58  0.031492  ( 0.000815  0.000957  0.177454)
 29:   1772.36   0.180466  912.00  0.031775  ( 0.024825 -0.176511  0.001578)
 30:   1903.94   0.000211    1.07  0.000035  ( 0.000981  0.000949  0.005723)
 31:   1905.16   0.001880    9.50  0.000308  (-0.008468 -0.015361  0.000539)
 32:   1907.02   0.002887   14.59  0.000472  (-0.000011 -0.000380 -0.021732)
 33:   1916.96   0.012709   64.22  0.002069  ( 0.030827 -0.033049 -0.005125)
 34:   1917.20   0.008018   40.52  0.001305  (-0.004109  0.004346 -0.035628)
 35:   1924.72   0.070874  358.17  0.011491  (-0.101547 -0.034339  0.000267)

* The epsilon (eps) is given for a Dirac delta lineshape.
** The dipole moment derivative (T) already includes vibrational overlap.

--------------
RAMAN SPECTRUM  
--------------

 Mode    freq (cm**-1)   Activity   Depolarization
-------------------------------------------------------------------
   7:       126.41      3.638214      0.171938
   8:       150.23      0.652743      0.742959
   9:       223.13      4.106399      0.744153
  10:       299.26      3.418855      0.749935
  11:       322.60     14.851230      0.254462
  12:       402.22      5.681738      0.749998
  13:       418.13      3.308745      0.741710
  14:       433.49      5.941274      0.748631
  15:       479.40      0.260631      0.749829
  16:       499.01      2.549598      0.749903
  17:       566.02      1.620676      0.256201
  18:       674.12      3.758036      0.749987
  19:       675.53     10.669900      0.745254
  20:       712.42      5.451489      0.725244
  21:       716.76      3.633149      0.749995
  22:       733.05      2.718157      0.749908
  23:       744.61      5.320470      0.659195
  24:      1048.40      6.243306      0.365322
  25:      1051.26     11.178191      0.705518
  26:      1097.61    107.879409      0.039145
  27:      1692.93      9.408908      0.749997
  28:      1746.31     21.425406      0.735350
  29:      1772.36     28.356052      0.749991
  30:      1903.94    500.929114      0.021667
  31:      1905.16     38.803515      0.678552
  32:      1907.02    480.369506      0.021650
  33:      1916.96    104.932722      0.741328
  34:      1917.20    172.400445      0.595587
  35:      1924.72     61.070191      0.750000

The first frequency considered to be a vibration is 7
The total number of vibrations considered is 29


--------------------------
THERMOCHEMISTRY AT 298.15K
--------------------------

Temperature         ...   298.15 K
Pressure            ...     1.00 atm
Total Mass          ...    90.02 AMU
Quasi RRHO          ...     True
Cut-Off Frequency   ...     1.00 cm^-1

Throughout the following assumptions are being made:
  (1) The electronic state is orbitally nondegenerate
  (2) There are no thermally accessible electronically excited states
  (3) Hindered rotations indicated by low frequency modes are not
      treated as such but are treated as vibrations and this may
      cause some error
  (4) All equations used are the standard statistical mechanics
      equations for an ideal gas
  (5) All vibrations are strictly harmonic

freq.     126.41  E(vib)   ...       0.43 
freq.     150.23  E(vib)   ...       0.40 
freq.     223.13  E(vib)   ...       0.33 
freq.     299.26  E(vib)   ...       0.26 
freq.     322.60  E(vib)   ...       0.25 
freq.     402.22  E(vib)   ...       0.19 
freq.     418.13  E(vib)   ...       0.18 
freq.     433.49  E(vib)   ...       0.17 
freq.     479.40  E(vib)   ...       0.15 
freq.     499.01  E(vib)   ...       0.14 
freq.     566.02  E(vib)   ...       0.11 
freq.     674.12  E(vib)   ...       0.08 
freq.     675.53  E(vib)   ...       0.08 
freq.     712.42  E(vib)   ...       0.07 
freq.     716.76  E(vib)   ...       0.07 
freq.     733.05  E(vib)   ...       0.06 
freq.     744.61  E(vib)   ...       0.06 
freq.    1048.40  E(vib)   ...       0.02 
freq.    1051.26  E(vib)   ...       0.02 
freq.    1097.61  E(vib)   ...       0.02 
freq.    1692.93  E(vib)   ...       0.00 
freq.    1746.31  E(vib)   ...       0.00 
freq.    1772.36  E(vib)   ...       0.00 
freq.    1903.94  E(vib)   ...       0.00 
freq.    1905.16  E(vib)   ...       0.00 
freq.    1907.02  E(vib)   ...       0.00 
freq.    1916.96  E(vib)   ...       0.00 
freq.    1917.20  E(vib)   ...       0.00 
freq.    1924.72  E(vib)   ...       0.00 

------------
INNER ENERGY
------------

The inner energy is: U= E(el) + E(ZPE) + E(vib) + E(rot) + E(trans)
    E(el)   - is the total energy from the electronic structure calculation
              = E(kin-el) + E(nuc-el) + E(el-el) + E(nuc-nuc)
    E(ZPE)  - the the zero temperature vibrational energy from the frequency calculation
    E(vib)  - the the finite temperature correction to E(ZPE) due to population
              of excited vibrational states
    E(rot)  - is the rotational thermal energy
    E(trans)- is the translational thermal energy

Summary of contributions to the inner energy U:
Electronic energy                ...   -732.28658813 Eh
Zero point energy                ...      0.06392599 Eh      40.11 kcal/mol
Thermal vibrational correction   ...      0.00494218 Eh       3.10 kcal/mol
Thermal rotational correction    ...      0.00141627 Eh       0.89 kcal/mol
Thermal translational correction ...      0.00141627 Eh       0.89 kcal/mol
-----------------------------------------------------------------------
Total thermal energy                   -732.21488742 Eh


Summary of corrections to the electronic energy:
(perhaps to be used in another calculation)
Total thermal correction                  0.00777473 Eh       4.88 kcal/mol
Non-thermal (ZPE) correction              0.06392599 Eh      40.11 kcal/mol
-----------------------------------------------------------------------
Total correction                          0.07170072 Eh      44.99 kcal/mol


--------
ENTHALPY
--------

The enthalpy is H = U + kB*T
                kB is Boltzmann's constant
Total thermal energy              ...   -732.21488742 Eh 
Thermal Enthalpy correction       ...      0.00094421 Eh       0.59 kcal/mol
-----------------------------------------------------------------------
Total Enthalpy                    ...   -732.21394321 Eh


Note: Only C1 symmetry has been detected, increase convergence thresholds 
      if your molecule has a higher symmetry. Symmetry factor of 1.0 is   
      used for the rotational entropy correction. 
 

Note: Rotational entropy computed according to Herzberg 
Infrared and Raman Spectra, Chapter V,1, Van Nostrand Reinhold, 1945 
Point Group:  C1, Symmetry Number:   1  
Rotational constants in cm-1:     0.105596     0.104647     0.056538 

Vibrational entropy computed according to the QRRHO of S. Grimme
Chem.Eur.J. 2012 18 9955 using a reference frequency of 100.0 cm-1


-------
ENTROPY
-------

The entropy contributions are T*S = T*(S(el)+S(vib)+S(rot)+S(trans))
     S(el)   - electronic entropy
     S(vib)  - vibrational entropy
     S(rot)  - rotational entropy
     S(trans)- translational entropy
The entropies will be listed as multiplied by the temperature to get
units of energy

Electronic entropy                ...      0.00000000 Eh      0.00 kcal/mol
Vibrational entropy               ...      0.00798509 Eh      5.01 kcal/mol
Rotational entropy                ...      0.01299396 Eh      8.15 kcal/mol
Translational entropy             ...      0.01872231 Eh     11.75 kcal/mol
-----------------------------------------------------------------------
Final entropy term                ...      0.03970135 Eh     24.91 kcal/mol

In case the symmetry of your molecule has not been determined correctly
or in case you have a reason to use a different symmetry number we print 
out the resulting rotational entropy values for sn=1,12:

 non-linear molecules -----------------------------------
|  sn= 1 | S(rot)=       0.01299396 Eh      8.15 kcal/mol|
|  sn= 2 | S(rot)=       0.01233950 Eh      7.74 kcal/mol|
|  sn= 3 | S(rot)=       0.01195667 Eh      7.50 kcal/mol|
|  sn= 4 | S(rot)=       0.01168505 Eh      7.33 kcal/mol|
|  sn= 5 | S(rot)=       0.01147436 Eh      7.20 kcal/mol|
|  sn= 6 | S(rot)=       0.01130221 Eh      7.09 kcal/mol|
|  sn= 7 | S(rot)=       0.01115667 Eh      7.00 kcal/mol|
|  sn= 8 | S(rot)=       0.01103059 Eh      6.92 kcal/mol|
|  sn= 9 | S(rot)=       0.01091938 Eh      6.85 kcal/mol|
|  sn=10 | S(rot)=       0.01081990 Eh      6.79 kcal/mol|
|  sn=11 | S(rot)=       0.01072991 Eh      6.73 kcal/mol|
|  sn=12 | S(rot)=       0.01064776 Eh      6.68 kcal/mol|
 linear molecules ---------------------------------------
|  Dinfh | S(rot)=       0.00803829 Eh      5.04 kcal/mol|
|  Cinfv | S(rot)=       0.00869274 Eh      5.45 kcal/mol|
 --------------------------------------------------------


-------------------
GIBBS FREE ENERGY
-------------------

The Gibbs free energy is G = H - T*S

Total enthalpy                    ...   -732.21394321 Eh 
Total entropy correction          ...     -0.03970135 Eh    -24.91 kcal/mol
-----------------------------------------------------------------------
Final Gibbs free energy         ...   -732.25364456 Eh

For completeness - the Gibbs free energy minus the electronic energy
G-E(el)                           ...      0.03294357 Eh     20.67 kcal/mol


Maximum memory used throughout the entire PROP-calculation: 170.7 MB

--------------------------------
SUGGESTED CITATIONS FOR THIS RUN
--------------------------------

Below you find a list of papers that are relevant to this ORCA run
We neither can nor want to force you to cite these papers, but we appreciate if you do
You receive ORCA, which is the product of decades of hard work by many enthusiastic individuals, for free
The only thing we kindly ask in return is that you cite our papers,
We deeply appreciate it, if you show your appreciation for ORCA by not just citing the generic ORCA reference.

Please note that relegating all ORCA citations to the supporting information does *not* help us.
SI sections are not indexed - citations you put there will not count into any citation statistics
But we need these citations in order to attract the funding resources that allow us to do what we are doing

Therefore, if you are a happy ORCA user, please consider citing a few of the papers listed below in the main body of your paper

In addition to the list printed below, the program has created the file run.bibtex that contains the list in bibtex format
You can import this file easily into all common literature databanks and citation aid programs


List of essential papers. We consider these as the minimum necessary citations

  1. Neese, F.
     Software update: the ORCA program system, version 6.0
     WIRES Comput. Molec. Sci. 2025 15(1), e70019
     doi.org/10.1002/wcms.7019

List of papers to cite with high priority. The work reported in these papers was absolutely
necessary for this run to complete.
Our perspective: the developers of density functionals and basis sets usually get cited in chemistry papers
Good! But without the algorithms to do something with them, the functionals or basis sets would not do anything.
Hence, in our opinion, the algorithm design and method developments papers are equally worthy of getting cited

  1. Neese, F.
     An improvement of the resolution of the identity approximation for the formation of the Coulomb matrix
     J. Comp. Chem. 2003 24(14), 1740-1747
     doi.org/10.1002/jcc.10318
  2. Bykov, D.; Petrenko, T.; Izsak, R.; Kossmann, S.; Becker, U.; Valeev, E.; Neese, F.
     Efficient implementation of the analytic second derivatives of Hartree-Fock and hybrid DFT energies: a detailed analysis of different approximations
     Molec. Phys. 2015 113 , 1961-1977
     doi.org/10.1080/00268976.2015.1025114
  3. Caldeweyher, E.; Bannwarth, C.; Grimme, S.
     Extension of the D3 dispersion coefficient model
     J. Chem. Phys. 2017 147 , 034112
     doi.org/10.1063/1.4993215
  4. Caldeweyher, E.; Ehlert, S.; Hansen, A.; Neugebauer, H.; Spicher, S.; Bannwarth, C.; Grimme, S.
     A generally applicable atomic-charge dependent London dispersion correction
     J. Chem. Phys. 2019 150 , 154122
     doi.org/10.1063/1.5090222
  5. Caldeweyher, E.; Mewes, J.; Ehlert, S.; Grimme, S.
     Extension and evaluation of the D4 London-dispersion model for periodic systems
     Phys. Chem. Chem. Phys. 2020 22(16), 8499-8512
     doi.org/10.1039/D0CP00502A
  6. Neese, F.
     The SHARK Integral Generation and Digestion System
     J. Comp. Chem. 2022 44(3), 381
     doi.org/10.1002/jcc.26942
  7. Wittmann, L.; Gordiy, I.; Friede, M.; Helmich-Paris, B.; Grimme, S.; Hansen, A.; Bursch, M.
     Extension of the D3 and D4 London Dispersion Corrections to the full Actinides Series
     Phys. Chem. Chem. Phys. 2024 26(32), 21379-21394
     doi.org/10.1039/D4CP01514B
  8. Petra, P.; Frank, N.
     Efficient calculation of analytic Raman intensities
     to be submitted 2025  , 

List of suggested additional citations. These are papers that are important in the 'surrounding' of 
of this run, or papers that preceded the highly important papers. If you like your results we are grateful for a citation.

  1. Neese, F.
     The ORCA program system
     WIRES Comput. Molec. Sci. 2012 2(1), 73-78
     doi.org/10.1002/wcms.81
  2. Neese, F.
     Software update: the ORCA program system, version 4.0
     WIRES Comput. Molec. Sci. 2018 8(1), 1-6
     doi.org/10.1002/wcms.1327
  3. Neese, F.; Wennmohs, F.; Becker, U.; Riplinger, C.
     The ORCA quantum chemistry program package
     J. Chem. Phys. 2020 152(22), 224108
     doi.org/10.1063/5.0004608
  4. Neese, F.
     Software update: The ORCA program system—Version 5.0
     WIRES Comput. Molec. Sci. 2022 12(1), e1606
     doi.org/10.1002/wcms.1606

List of optional additional citations

  1. Neese, F.
     Approximate second-order SCF convergence for spin unrestricted wavefunctions
     Chem. Phys. Lett. 2000 325(1-3), 93-98
     doi.org/10.1016/s0009-2614(00)00662-x

Timings for individual modules:

Sum of individual times          ...     1060.566 sec (=  17.676 min)
Startup calculation              ...       79.095 sec (=   1.318 min)   7.5 %
SCF iterations                   ...      346.277 sec (=   5.771 min)  32.7 %
Property integrals               ...      135.627 sec (=   2.260 min)  12.8 %
SCF Response                     ...       83.573 sec (=   1.393 min)   7.9 %
Property calculations            ...      273.039 sec (=   4.551 min)  25.7 %
SCF Gradient evaluation          ...      142.536 sec (=   2.376 min)  13.4 %
Geometry relaxation              ...        0.417 sec (=   0.007 min)   0.0 %
                             ****ORCA TERMINATED NORMALLY****
TOTAL RUN TIME: 0 days 0 hours 17 minutes 56 seconds 745 msec
