
                                 *****************
                                 * O   R   C   A *
                                 *****************

                                            #,                                       
                                            ###                                      
                                            ####                                     
                                            #####                                    
                                            ######                                   
                                           ########,                                 
                                     ,,################,,,,,                         
                               ,,#################################,,                 
                          ,,##########################################,,             
                       ,#########################################, ''#####,          
                    ,#############################################,,   '####,        
                  ,##################################################,,,,####,       
                ,###########''''           ''''###############################       
              ,#####''   ,,,,##########,,,,          '''####'''          '####       
            ,##' ,,,,###########################,,,                        '##       
           ' ,,###''''                  '''############,,,                           
         ,,##''                                '''############,,,,        ,,,,,,###''
      ,#''                                            '''#######################'''  
     '                                                          ''''####''''         
             ,#######,   #######,   ,#######,      ##                                
            ,#'     '#,  ##    ##  ,#'     '#,    #''#        ,####,    ,#,          
            ##       ##  ##   ,#'  ##            #'  '#       #'       ,# #          
            ##       ##  #######   ##           ,######,      #####,      #          
            '#,     ,#'  ##    ##  '#,     ,#' ,#      #,     #,   #      #          
             '#######'   ##     ##  '#######'  #'      '#     '####' #    #          



                #########################################################
                #                        -***-                          #
                #          Department of theory and spectroscopy        #
                #                                                       #
                #                      Frank Neese                      #
                #                                                       #
                #     Directorship, Architecture, Infrastructure        #
                #                    SHARK, DRIVERS                     #
                #        Core code/Algorithms in most modules           #
                #                                                       #
                #        Max Planck Institute fuer Kohlenforschung      #
                #                Kaiser Wilhelm Platz 1                 #
                #                 D-45470 Muelheim/Ruhr                 #
                #                      Germany                          #
                #                                                       #
                #                  All rights reserved                  #
                #                        -***-                          #
                #########################################################


                         Program Version 6.1.0  -  RELEASE   -
                                (GIT: $679e74b$)
                          ($2025-06-10 18:02:51 +0200$)


 With contributions from (in alphabetic order):
[Max-Planck-Institut fuer Kohlenforschung]                               
  Daniel Aravena         : Magnetic Suceptibility                        
  Michael Atanasov       : Ab Initio Ligand Field Theory (pilot matlab implementation)
  Alexander A. Auer      : GIAO ZORA, VPT2 properties, NMR spectrum      
  Ute Becker             : All parallelization in ORCA, NUMFREQ, NUMCALC 
  Giovanni Bistoni       : ED, misc. LED, open-shell LED, HFLD           
  Dmytro Bykov           : pre 5.0 version of the SCF Hessian            
  Marcos Casanova-Páez   : Triplet and SCS-CIS(D). UHF-(DLPNO)-IP/EA/STEOM-CCSD. UHF-CVS-IP/STEOM-CCSD   
  Vijay G. Chilkuri      : MRCI spin determinant printing, contributions to CSF-ICE 
  Pauline Colinet        : FMM embedding                                 
  Dipayan Datta          : RHF DLPNO-CCSD density                        
  Achintya Kumar Dutta   : EOM-CC, STEOM-CC                              
  Nicolas Foglia         : Exact transition moments, OPA infrastructure, MCD improvements    
  Dmitry Ganyushin       : Spin-Orbit,Spin-Spin,Magnetic field MRCI      
  Miquel Garcia-Rates    : C-PCM and meta-GGA Hessian, CCSD/C-PCM, Gaussian charge scheme 
  Tiago L. C. Gouveia    : GS-ROHF, GS-ROCIS                             
  Yang Guo               : DLPNO-NEVPT2, F12-NEVPT2, CIM, IAO-localization        
  Andreas Hansen         : Spin unrestricted coupled pair/coupled cluster methods 
  Ingolf Harden          : AUTO-CI MPn and infrastructure                
  Benjamin Helmich-Paris : MC-RPA, TRAH-(SCF,CASSCF), AVAS, COSX integrals, SCF dyn. polar., MC-PDFT, srDFT 
  Lee Huntington         : MR-EOM, pCC                                   
  Robert Izsak           : Overlap fitted RIJCOSX, COSX-SCS-MP3, EOM     
  Riya Kayal             : Wick's Theorem for AUTO-CI, AUTO-CI UHF-CCSDT 
  Emily Kempfer          : AUTO-CI RHF CISDT and CCSDT, approximate NEVPT4
  Christian Kollmar      : KDIIS, OOCD, Brueckner-CCSD(T), CCSD density, CASPT2, CASPT2-K, improved NEVPT2 
  Axel Koslowski         : Symmetry handling                             
  Simone Kossmann        : meta-GGA functionals, TD-DFT gradient, OOMP2, (MP2 Hessian; deprecated post 5.0) 
  Lucas Lang             : DCDCAS, Hyperfine gauge corrections, ICE-SOC+SSC
  Marvin Lechner         : AUTO-CI (C++ implementation), FIC-MRCC        
  Spencer Leger          : CASSCF response                               
  Dagmar Lenk            : GEPOL surface, SMD, ORCA-2-JSON               
  Dimitrios Liakos       : Extrapolation schemes; Compound Job, Property file
  Dimitrios Manganas     : Further ROCIS development; embedding schemes. LFT, Crystal Embedding 
  Dimitrios Pantazis     : SARC Basis sets                               
  Anastasios Papadopoulos: AUTO-CI, single reference methods and gradients 
  Taras Petrenko         : pre 6.0 DFT Hessian and TD-DFT gradient,  ECA, NRVS 
  Petra Pikulova         : Analytic Raman intensities                    
  Peter Pinski           : DLPNO-MP2, DLPNO-MP2 Gradient                 
  Shashank Vittal Rao    : ES-AILFT, MagRelax                            
  Christoph Reimann      : Effective Core Potentials                     
  Marius Retegan         : Local ZFS, SOC                                
  Christoph Riplinger    : Optimizer, TS searches, QM/MM, DLPNO-CCSD(T), (RO)-DLPNO pert. Triples 
  Michael Roemelt        : Original ROCIS implementation, recursive CI coupling coefficients
  Masaaki Saitow         : Open-shell DLPNO-CCSD energy and density      
  Barbara Sandhoefer     : DKH picture change effects                    
  Yorick L. A. Schmerwitz: GMF and freeze-and-release deltaSCF, NEB S-IDPP initial path                    
  Kantharuban Sivalingam : CASSCF convergence/infrastructure, NEVPT2, NEVPT3, NEVPT4(SD), FIC-MRCI and CEPA variants
  Bernardo de Souza      : ESD, SOC TD-DFT                               
  Georgi L. Stoychev     : AutoAux, RI-MP2 NMR, DLPNO-MP2 response, X2C  
  Van Anh Tran           : RI-MP2 g-tensors                              
  Willem Van den Heuvel  : Paramagnetic NMR                              
  Zikuan Wang            : NOTCH, Electric field optimization            
  Frank Wennmohs         : Technical directorship and infrastructure     
  Hang Xu                : AUTO-CI-Response properties                   
                                                                         
[FACCTs GmbH]                                                            
  Markus Bursch, Nicolas Foglia, Miquel Garcia-Rates, Ingolf Harden, Hagen Neugebauer, Anastasios Papadopoulos, 
  Christoph Riplinger, Bernardo de Souza, Georgi L. Stoychev                                                    
                                                                 
  APM, various basis sets, CI-OPT, improved COSX, DLPNO-Multilevel,           
  DOCKER, DRACO, updates on ESD, Fragmentator, GOAT, IRC, LR-CPCM, L-BFGS, MBIS, meta-GGA TD-DFT gradient, ML-optimized integration grids, 
  MM, NACMEs, nearIR, NEB, NEB-TS, NL-DFT gradient (VV10), 2- and 3-layer-ONIOM, interface openCOSMO-RS, QMMM,   
  Crystal-QMMM, RESP, rigid body optimization, SF, symmetry and pop. for TD-DFT, various functionals, SOLVATOR                                   
                                                                         
[Other institutions]                                                     
  V. Asgeirsson          : NEB                                           
  Christoph Bannwarth    : sTDA-DFT, sTD-DFT, PBEh-3c, B97-3c, D3        
  Giovanni Bistoni       : ETS/NOCV, ADLD/ADEX, COVALED                  
  Martin Brehm           : Molecular dynamics                            
  Ronald Cardenas        : ETS/NOCV                                      
  Martina Colucci        : COVALED                                       
  Sebastian Ehlert       : rSCAN, r2SCAN, r2SCAN-3c, D4, dhf basis sets  
  Marvin Friede          : D4 for Fr, Ra, Ac-Lr                          
  Lars Goerigk           : TD-DFT with DH, B97 family of functionals     
  Stefan Grimme          : VdW corrections, initial TS optimization, DFT functionals, gCP, sTDA/sTD-DF 
  Waldemar Hujo          : DFT-NL                                        
  H. Jonsson             : NEB                                           
  Holger Kruse           : gCP                                           
  Marcel Mueller         : wB97X-3c, vDZP basis set                      
  Hagen Neugebauer       : wr2SCAN, Native XTB                           
  Gianluca Regni         : ADLD/ADEX                                     
  Tobias Risthaus        : pre 6.0 range-separated hybrid DFT and stability analysis
  Lukas Wittmann         : regularized MP2, r2SCAN double-hybrids, wr2SCAN        
                                                                         
We gratefully acknowledge several colleagues who have allowed us to      
interface, adapt or use parts of their codes:                            
  Ed Valeev, F. Pavosevic, A. Kumar             : LibInt (2-el integral package), F12 methods 
  Garnet Chan, S. Sharma, J. Yang, R. Olivares  : DMRG                   
  Ulf Ekstrom                                   : XCFun DFT Library      
  Mihaly Kallay                                 : mrcc  (arbitrary order and MRCC methods)
  Frank Weinhold                                : gennbo (NPA and NBO analysis)           
  Simon Mueller                                 : openCOSMO-RS                            
  Christopher J. Cramer and Donald G. Truhlar   : smd solvation model                     
  S Lehtola, MJT Oliveira, MAL Marques          : LibXC Library                           
  Liviu Ungur et al                             : ANISO software                          


 Your calculation uses the libint2 library for the computation of 2-el integrals
 For citations please refer to: http://libint.valeyev.net

 Your ORCA version has been built with support for libXC version: 7.0.0
 For citations please refer to: https://libxc.gitlab.io

 This ORCA versions uses:
   CBLAS   interface :  Fast vector & matrix operations
   LAPACKE interface :  Fast linear algebra routines
   SCALAPACK package :  Parallel linear algebra routines
   Shared memory     :  Shared parallel matrices
   BLAS/LAPACK       :  OpenBLAS 0.3.29  USE64BITINT DYNAMIC_ARCH NO_AFFINITY Bulldozer SINGLE_THREADED
        Core in use  :  Bulldozer
   Copyright (c) 2011-2014, The OpenBLAS Project


  ***********************************
  * Starting time: Fri Aug 15 10:29:06 2025
  * Host name:     chromium04
  * Process ID:    329564
  * Working dir.:  /local/scratch/mehlhorn/61937
  ***********************************



***************************************
The coordinates will be read from file: start.xyz
***************************************


Your calculation utilizes the geometrical counterpoise correction gCP
Please cite in your paper:
H.Kruse, S. Grimme J.Chem.Phys., 136, (2012), 154101 
   

Your calculation utilizes the atom-pairwise dispersion correction
with the Becke-Johnson damping scheme (D3BJ)


Warning: RI is on but no J-basis has been assigned. Assigning Def2/J (nothing to worry about!)
================================================================================

----- Orbital basis set information -----
Your calculation utilizes the basis: def2-SV(P)
   F. Weigend and R. Ahlrichs, Phys. Chem. Chem. Phys. 7, 3297 (2005).

----- AuxJ basis set information -----
Your calculation utilizes the auxiliary basis: def2/J
   H-Rn: F. Weigend, Phys. Chem. Chem. Phys. 8, 1057 (2006).
   Fr-Lr: K. Eichkorn, F. Weigend, O. Treutler, R. Ahlrichs; Theor. Chem. Acc. 97, 119 (1997).

================================================================================
                                        WARNINGS
                       Please study these warnings very carefully!
================================================================================


WARNING: Gradients are needed
  ===> : At least TightSCF should be used for SCF convergence

WARNING: Geometry Optimization
  ===> : Switching off AutoStart
         For restart on a previous wavefunction, please use MOREAD

================================================================================
                                       INPUT FILE
================================================================================
NAME = run.inp
|  1> # Geometry optimization for (AlH3)n cluster
|  2> 
|  3> %pal nprocs 24  end
|  4> 
|  5> %geom MaxIter 500 end
|  6> 
|  7> 
|  8> ! PBE def2-SV(P)
|  9> ! RKS	# closed shell for AlH3
| 10> ! D3    #  dispersion correction
| 11> ! gCP(DFT/SV(P))
| 12> ! Freq 	# Frequency analysis to check the stabiltity of the structures
| 13> 
| 14> ! NoPop # population analysis not necessary	
| 15> 
| 16> ! RI
| 17> ! DEFGRID2
| 18> ! NormalSCF
| 19> ! SloppyOpt
| 20> 
| 21> ! SmallPrint
| 22> 
| 23> 
| 24> * xyzFile 0 1 start.xyz # only maingroup elements H and Al so there should be no net spin
| 25> 
| 26>                          ****END OF INPUT****
================================================================================

                       *****************************
                       * Geometry Optimization Run *
                       *****************************

Geometry optimization settings:
Update method            Update   .... BFGS
Choice of coordinates    CoordSys .... (2022) Redundant Internals
Initial Hessian          InHess   .... Almloef's Model
Max. no of cycles        MaxIter  .... 500

Convergence Tolerances:
Energy Change            TolE     ....  8.0000e-05 Eh
Max. Gradient            TolMAXG  ....  5.0000e-03 Eh/bohr
RMS Gradient             TolRMSG  ....  1.0000e-03 Eh/bohr
Max. Displacement        TolMAXD  ....  3.0000e-02 bohr
RMS Displacement         TolRMSD  ....  2.0000e-02 bohr
Strict Convergence                .... False

------------------------------------------------------------------------------
                        ORCA OPTIMIZATION COORDINATE SETUP
------------------------------------------------------------------------------

The optimization will be done in redundant internal coordinates (2022)
Making redundant internal coordinates   ...  (2022 redundants) done
Evaluating the initial hessian          ...  (Almloef) done
Evaluating the coordinates              ...  done
Calculating the B-matrix                .... done
Calculating the G-matrix                .... done
The number of degrees of freedom        ....  117

    -----------------------------------------------------------------
                    Redundant Internal Coordinates


    -----------------------------------------------------------------
         Definition                    Initial Value    Approx d2E/dq
    -----------------------------------------------------------------
      1. B(Al  1,Al  0)                  2.9515         0.098995   
      2. B(H   2,Al  1)                  1.7070         0.261623   
      3. B(H   3,Al  1)                  1.5960         0.393329   
      4. B(H   4,Al  1)                  1.7066         0.262021   
      5. B(H   4,Al  0)                  1.7046         0.263943   
      6. B(H   5,Al  0)                  1.5961         0.393082   
      7. B(H   6,Al  0)                  1.7042         0.264283   
      8. B(H   7,Al  1)                  1.5961         0.393196   
      9. B(Al  8,H   6)                  1.7043         0.264197   
     10. B(Al  8,H   2)                  1.7046         0.263861   
     11. B(Al  8,Al  1)                  2.9546         0.097878   
     12. B(Al  8,Al  0)                  2.9840         0.087870   
     13. B(H   9,Al  8)                  1.5963         0.392877   
     14. B(H  10,Al  8)                  1.5968         0.392142   
     15. B(H  11,Al  0)                  1.5977         0.390783   
     16. A(H   4,Al  0,H   6)          109.7551         0.333689   
     17. A(Al  1,Al  0,H   4)           30.1066         0.327993   
     18. A(Al  1,Al  0,Al  8)           59.7044         0.316280   
     19. A(Al  8,Al  0,H  11)          109.8662         0.343238   
     20. A(H   4,Al  0,H   5)          109.6380         0.356694   
     21. A(H   6,Al  0,H  11)          109.0822         0.356417   
     22. A(Al  1,Al  0,H   5)          138.8827         0.350538   
     23. A(Al  1,Al  0,H  11)           97.6938         0.350191   
     24. A(H   5,Al  0,H  11)          109.6240         0.381558   
     25. A(H   5,Al  0,H   6)          109.6103         0.356772   
     26. A(H   4,Al  0,Al  8)           82.9016         0.321630   
     27. A(Al  1,Al  0,H   6)           88.6036         0.328062   
     28. A(H   5,Al  0,Al  8)          131.1858         0.343575   
     29. A(H   4,Al  0,H  11)          109.1155         0.356339   
     30. A(H   6,Al  0,Al  8)           28.9033         0.321698   
     31. A(H   2,Al  1,H   7)          109.1743         0.356177   
     32. A(H   3,Al  1,H   4)          109.1827         0.356290   
     33. A(Al  0,Al  1,H   3)          132.2255         0.350575   
     34. A(H   2,Al  1,H   4)          111.1851         0.332726   
     35. A(H   4,Al  1,Al  8)           83.7977         0.326986   
     36. A(H   3,Al  1,Al  8)          108.6900         0.349904   
     37. A(H   2,Al  1,H   3)          108.8247         0.356198   
     38. A(H   2,Al  1,Al  8)           29.9756         0.326904   
     39. A(Al  0,Al  1,Al  8)           60.6936         0.321897   
     40. A(H   7,Al  1,Al  8)          132.2967         0.349884   
     41. A(Al  0,Al  1,H   4)           30.0679         0.327598   
     42. A(H   4,Al  1,H   7)          108.8221         0.356269   
     43. A(Al  0,Al  1,H   7)          108.8718         0.350555   
     44. A(Al  0,Al  1,H   2)           83.6336         0.327516   
     45. A(H   3,Al  1,H   7)          109.6359         0.382008   
     46. A(Al  1,H   2,Al  8)          120.0038         0.333113   
     47. A(Al  0,H   4,Al  1)          119.8255         0.333214   
     48. A(Al  0,H   6,Al  8)          122.1951         0.333743   
     49. A(Al  1,Al  8,H   2)           30.0206         0.327363   
     50. A(Al  0,Al  8,H   2)           82.6469         0.321614   
     51. A(Al  0,Al  8,Al  1)           59.6020         0.315697   
     52. A(H   6,Al  8,H  10)          109.1142         0.356607   
     53. A(H   2,Al  8,H  10)          109.1092         0.356530   
     54. A(Al  1,Al  8,H  10)           98.1275         0.349726   
     55. A(Al  0,Al  8,H  10)          110.9832         0.343438   
     56. A(H   6,Al  8,H   9)          109.5292         0.356721   
     57. A(H   9,Al  8,H  10)          109.6307         0.381754   
     58. A(H   2,Al  8,H   9)          109.5737         0.356644   
     59. A(Al  1,Al  8,H   9)          138.6092         0.349836   
     60. A(Al  0,Al  8,H   9)          130.2850         0.343546   
     61. A(H   2,Al  8,H   6)          109.8690         0.333654   
     62. A(Al  1,Al  8,H   6)           88.4996         0.327431   
     63. A(Al  0,Al  8,H   6)           28.9016         0.321681   
     64. D(H   2,Al  1,Al  0,H   4)   -156.7054         0.010000   
     65. D(H   3,Al  1,Al  0,H   6)     88.7318         0.010000   
     66. D(H   3,Al  1,Al  0,H   5)    -30.1232         0.010000   
     67. D(H   3,Al  1,Al  0,Al  8)     89.2451         0.010000   
     68. D(H   2,Al  1,Al  0,Al  8)    -20.4609         0.010000   
     69. D(H   3,Al  1,Al  0,H   4)    -46.9994         0.010000   
     70. D(H   2,Al  1,Al  0,H   6)    -20.9742         0.010000   
     71. D(H   2,Al  1,Al  0,H   5)   -139.8292         0.010000   
     72. D(H   2,Al  1,Al  0,H  11)     88.0943         0.010000   
     73. D(H   3,Al  1,Al  0,H  11)   -162.1997         0.010000   
     74. D(Al  8,H   2,Al  1,H   7)    145.4021         0.010000   
     75. D(Al  8,H   2,Al  1,H   3)    -94.9657         0.010000   
     76. D(Al  8,H   2,Al  1,Al  0)     37.5972         0.010000   
     77. D(Al  8,H   2,Al  1,H   4)     25.3285         0.010000   
     78. D(Al  1,H   4,Al  0,H   5)   -168.3054         0.010000   
     79. D(Al  0,H   4,Al  1,H   7)    -95.3523         0.010000   
     80. D(Al  0,H   4,Al  1,Al  8)     37.3456         0.010000   
     81. D(Al  0,H   4,Al  1,H   3)    145.0121         0.010000   
     82. D(Al  0,H   4,Al  1,H   2)     24.9298         0.010000   
     83. D(Al  1,H   4,Al  0,H  11)     71.6238         0.010000   
     84. D(Al  1,H   4,Al  0,Al  8)    -36.9952         0.010000   
     85. D(Al  1,H   4,Al  0,H   6)    -47.8556         0.010000   
     86. D(Al  8,H   6,Al  0,H   4)     22.7580         0.010000   
     87. D(Al  8,H   6,Al  0,Al  1)      0.9170         0.010000   
     88. D(Al  8,H   6,Al  0,H   5)    143.2246         0.010000   
     89. D(Al  8,H   6,Al  0,H  11)    -96.7418         0.010000   
     90. D(Al  1,Al  8,Al  0,H  11)    -87.3497         0.010000   
     91. D(Al  1,Al  8,Al  0,H   6)    178.9383         0.010000   
     92. D(Al  1,Al  8,Al  0,H   5)    130.4030         0.010000   
     93. D(H   2,Al  8,Al  0,Al  1)     20.5344         0.010000   
     94. D(Al  1,Al  8,Al  0,H   4)     20.4619         0.010000   
     95. D(H   9,Al  8,H   6,Al  0)    140.9893         0.010000   
     96. D(H   2,Al  8,H   6,Al  0)     20.5817         0.010000   
     97. D(Al  1,Al  8,H   6,Al  0)     -0.9161         0.010000   
     98. D(H  10,Al  8,H   2,Al  1)     72.5102         0.010000   
     99. D(H   9,Al  8,H   2,Al  1)   -167.4537         0.010000   
    100. D(H   6,Al  8,H   2,Al  1)    -47.0731         0.010000   
    101. D(H   6,Al  8,Al  1,H   2)    136.4592         0.010000   
    102. D(H   6,Al  8,Al  1,Al  0)      0.5133         0.010000   
    103. D(H   2,Al  8,Al  1,H   7)    -46.4748         0.010000   
    104. D(H   2,Al  8,Al  1,H   4)   -156.3440         0.010000   
    105. D(H   2,Al  8,Al  1,H   3)     95.4670         0.010000   
    106. D(H   2,Al  8,Al  1,Al  0)   -135.9459         0.010000   
    107. D(Al  0,Al  8,Al  1,H   7)     89.4711         0.010000   
    108. D(Al  0,Al  8,Al  1,H   4)    -20.3981         0.010000   
    109. D(Al  0,Al  8,H   2,Al  1)    -37.2090         0.010000   
    110. D(Al  0,Al  8,Al  1,H   3)   -128.5871         0.010000   
    111. D(Al  0,Al  8,Al  1,H   2)    135.9459         0.010000   
    112. D(H   6,Al  8,Al  0,Al  1)   -178.9383         0.010000   
    113. D(H   2,Al  8,Al  0,H  11)    -66.8153         0.010000   
    114. D(H   2,Al  8,Al  0,H   6)   -160.5273         0.010000   
    115. D(H   2,Al  8,Al  0,H   5)    150.9374         0.010000   
    116. D(H  10,Al  8,H   6,Al  0)    -98.9986         0.010000   
    117. D(H   2,Al  8,Al  0,H   4)     40.9963         0.010000   
    -----------------------------------------------------------------

Number of atoms                         .... 12
Number of degrees of freedom            .... 117


         *************************************************************
         *                GEOMETRY OPTIMIZATION CYCLE   1            *
         *************************************************************
---------------------------------
CARTESIAN COORDINATES (ANGSTROEM)
---------------------------------
  Al    -0.290400    1.462690    2.547080
  Al     0.000000    0.000000    0.000000
  H      0.843190   -1.128760    0.963670
  H     -1.048990   -0.783770   -0.912390
  H     -0.833610    1.133940    0.965190
  H     -1.395550    2.308350    3.328860
  H     -0.000000    0.000000    3.372030
  H      1.040310    0.778650   -0.926760
  Al     0.313310   -1.459560    2.549740
  H      1.438820   -2.280270    3.329350
  H     -1.029590   -2.320930    2.483270
  H      1.069450    2.297970    2.470320

----------------------------
CARTESIAN COORDINATES (A.U.)
----------------------------
  NO LB      ZA    FRAG     MASS         X           Y           Z
   0 Al   13.0000    0    26.982   -0.548776    2.764084    4.813284
   1 Al   13.0000    0    26.982    0.000000    0.000000    0.000000
   2 H     1.0000    0     1.008    1.593398   -2.133047    1.821072
   3 H     1.0000    0     1.008   -1.982304   -1.481111   -1.724167
   4 H     1.0000    0     1.008   -1.575295    2.142836    1.823945
   5 H     1.0000    0     1.008   -2.637207    4.362149    6.290634
   6 H     1.0000    0     1.008   -0.000000    0.000000    6.372213
   7 H     1.0000    0     1.008    1.965901    1.471435   -1.751323
   8 Al   13.0000    0    26.982    0.592070   -2.758169    4.818310
   9 H     1.0000    0     1.008    2.718976   -4.309086    6.291560
  10 H     1.0000    0     1.008   -1.945643   -4.385922    4.692700
  11 H     1.0000    0     1.008    2.020968    4.342534    4.668228

--------------------------------
INTERNAL COORDINATES (ANGSTROEM)
--------------------------------
 Al     0   0   0     0.000000000000     0.00000000     0.00000000
 Al     1   0   0     2.951509905540     0.00000000     0.00000000
 H      2   1   0     1.706964669406    83.63362024     0.00000000
 H      2   1   3     1.595973353506   132.22554339   109.70597532
 H      1   2   3     1.704561421217    30.10661081   203.29464752
 H      1   2   3     1.596144519303   138.88271663   220.17079937
 H      1   2   3     1.704211459473    88.60356904   339.02580351
 H      2   1   3     1.596065417268   108.87176096   251.87343405
 Al     7   1   2     1.704300265153   122.19506105     0.91697015
 H      9   7   1     1.596286132340   109.52915818   140.98929866
 H      9   7   1     1.596795837858   109.11420692   261.00144991
 H      1   2   3     1.597741155037    97.69382328    88.09433498

---------------------------
INTERNAL COORDINATES (A.U.)
---------------------------
 Al     0   0   0     0.000000000000     0.00000000     0.00000000
 Al     1   0   0     5.577545403026     0.00000000     0.00000000
 H      2   1   0     3.225695745457    83.63362024     0.00000000
 H      2   1   3     3.015952555162   132.22554339   109.70597532
 H      1   2   3     3.221154264547    30.10661081   203.29464752
 H      1   2   3     3.016276011641   138.88271663   220.17079937
 H      1   2   3     3.220492932695    88.60356904   339.02580351
 H      2   1   3     3.016126530460   108.87176096   251.87343405
 Al     7   1   2     3.220660751108   122.19506105     0.91697015
 H      9   7   1     3.016543621498   109.52915818   140.98929866
 H      9   7   1     3.017506825337   109.11420692   261.00144991
 H      1   2   3     3.019293215916    97.69382328    88.09433498

---------------------
BASIS SET INFORMATION
---------------------
There are 2 groups of distinct atoms

 Group   1 Type Al  : 10s7p1d contracted to 4s3p1d pattern {5311/511/1}
 Group   2 Type H   : 4s contracted to 2s pattern {31}

Atom   0Al   basis set group =>   1
Atom   1Al   basis set group =>   1
Atom   2H    basis set group =>   2
Atom   3H    basis set group =>   2
Atom   4H    basis set group =>   2
Atom   5H    basis set group =>   2
Atom   6H    basis set group =>   2
Atom   7H    basis set group =>   2
Atom   8Al   basis set group =>   1
Atom   9H    basis set group =>   2
Atom  10H    basis set group =>   2
Atom  11H    basis set group =>   2
---------------------------------
AUXILIARY/J BASIS SET INFORMATION
---------------------------------
There are 2 groups of distinct atoms

 Group   1 Type Al  : 14s5p5d2f1g contracted to 8s4p3d1f1g pattern {71111111/2111/311/2/1}
 Group   2 Type H   : 5s2p1d contracted to 3s1p1d pattern {311/2/1}

Atom   0Al   basis set group =>   1
Atom   1Al   basis set group =>   1
Atom   2H    basis set group =>   2
Atom   3H    basis set group =>   2
Atom   4H    basis set group =>   2
Atom   5H    basis set group =>   2
Atom   6H    basis set group =>   2
Atom   7H    basis set group =>   2
Atom   8Al   basis set group =>   1
Atom   9H    basis set group =>   2
Atom  10H    basis set group =>   2
Atom  11H    basis set group =>   2


           ************************************************************
           *        Program running with 24 parallel MPI-processes    *
           *              working on a common directory               *
           ************************************************************
------------------------------------------------------------------------------
                             ORCA STARTUP CALCULATIONS
                           -- RI-GTO INTEGRALS CHOSEN --
------------------------------------------------------------------------------
------------------------------------------------------------------------------
                   ___                                                        
                  /   \      - P O W E R E D   B Y -                         
                 /     \                                                     
                 |  |  |   _    _      __       _____    __    __             
                 |  |  |  | |  | |    /  \     |  _  \  |  |  /  |          
                  \  \/   | |  | |   /    \    | | | |  |  | /  /          
                 / \  \   | |__| |  /  /\  \   | |_| |  |  |/  /          
                |  |  |   |  __  | /  /__\  \  |    /   |      \           
                |  |  |   | |  | | |   __   |  |    \   |  |\   \          
                \     /   | |  | | |  |  |  |  | |\  \  |  | \   \       
                 \___/    |_|  |_| |__|  |__|  |_| \__\ |__|  \__/        
                                                                              
                      - O R C A' S   B I G   F R I E N D -                    
                                      &                                       
                       - I N T E G R A L  F E E D E R -                       
                                                                              
 v1 FN, 2020, v2 2021, v3 2022-2024                                           
------------------------------------------------------------------------------


----------------------
SHARK INTEGRAL PACKAGE
----------------------

Number of atoms                             ...     12
Number of basis functions                   ...     72
Number of shells                            ...     42
Maximum angular momentum                    ...      2
Integral batch strategy                     ... SHARK/LIBINT Hybrid
RI-J (if used) integral strategy            ... SPLIT-RIJ (Revised 2003 algorithm where possible)
Printlevel                                  ...      1
Contraction scheme used                     ... SEGMENTED contraction
Prescreening option                         ... SCHWARTZ
   Thresh                                   ... 1.000e-10
   Tcut                                     ... 1.000e-11
   Tpresel                                  ... 1.000e-11 
Coulomb Range Separation                    ... NOT USED
Exchange Range Separation                   ... NOT USED
Multipole approximations                    ... NOT USED
Finite Nucleus Model                        ... NOT USED
CABS basis                                  ... NOT available
Auxiliary Coulomb fitting basis             ... AVAILABLE
   # of basis functions in Aux-J            ...    252
   # of shells in Aux-J                     ...     96
   Maximum angular momentum in Aux-J        ...      4
Auxiliary J/K fitting basis                 ... NOT available
Auxiliary Correlation fitting basis         ... NOT available
Auxiliary 'external' fitting basis          ... NOT available

Checking pre-screening integrals            ... done (  0.0 sec) Dimension = 42
   => SHARK Basis and OBASIS are compatible. Storing Pre-screening
Shell pair information
Shell pair cut-off parameter TPreSel        ...   1.0e-11
Total number of shell pairs                 ...       903
Shell pairs after pre-screening             ...       882
Total number of primitive shell pairs       ...      4191
Primitive shell pairs kept                  ...      2979
          la=0 lb=0:    450 shell pairs
          la=1 lb=0:    264 shell pairs
          la=1 lb=1:     45 shell pairs
          la=2 lb=0:     90 shell pairs
          la=2 lb=1:     27 shell pairs
          la=2 lb=2:      6 shell pairs

Checking whether 4 symmetric matrices of dimension 72 fit in memory
:Max Core in MB      =   4096.00
 MB in use           =      4.46
 MB left             =   4091.54
 MB needed           =      0.08
 Data fit in memory  = YES
Calculating RI/J V-Matrix + Cholesky decomp.... done (  0.1 sec)
Calculating Nuclear repulsion               ... done (  0.0 sec) ENN=    173.343242350548 Eh

Diagonalization of the overlap matrix:
Smallest eigenvalue                        ... 6.785e-03
Time for diagonalization                   ...    0.048 sec
Threshold for overlap eigenvalues          ... 1.000e-07
Number of eigenvalues below threshold      ... 0
Time for construction of square roots      ...    0.001 sec
Total time needed                          ...    0.051 sec

-------------------
DFT GRID GENERATION
-------------------

General Integration Accuracy     IntAcc      ... 4.388
Radial Grid Type                 RadialGrid  ... OptM3 with GC (2021)
Angular Grid (max. ang.)         AngularGrid ... 4 (Lebedev-302)
Angular grid pruning method      GridPruning ... 4 (adaptive)
Weight generation scheme         WeightScheme... mBecke (2022)
Basis function cutoff            BFCut       ... 1.0000e-10
Integration weight cutoff        WCut        ... 1.0000e-14
Partially contracted basis set               ... off
Rotationally invariant grid construction     ... off
Angular grids for H and He will be reduced by one unit

Total number of grid points                  ...    51168
Total number of batches                      ...      806
Average number of points per batch           ...       63
Average number of grid points per atom       ...     4264
Grids setup in   0.8 sec
Initializing property integral containers    ... done (  0.0 sec)

SHARK setup successfully completed in   1.4 seconds

Maximum memory used throughout the entire STARTUP-calculation: 13.3 MB


           ************************************************************
           *        Program running with 24 parallel MPI-processes    *
           *              working on a common directory               *
           ************************************************************
-------------------------------------------------------------------------------
                                 ORCA GUESS
                   Start orbitals & Density for SCF / CASSCF
-------------------------------------------------------------------------------

------------
SCF SETTINGS
------------
Hamiltonian:
 Density Functional     Method          .... DFT(GTOs)
 Exchange Functional    Exchange        .... PBE
   PBE kappa parameter   XKappa         ....  0.804000
   PBE mue parameter    XMuePBE         ....  0.219520
 Correlation Functional Correlation     .... PBE
   PBE beta parameter  CBetaPBE         ....  0.066725
 LDA part of GGA corr.  LDAOpt          .... PW91-LDA
 Gradients option       PostSCFGGA      .... off
   NL short-range parameter             ....  6.400000
 RI-approximation to the Coulomb term is turned on
   Number of AuxJ basis functions       .... 252


General Settings:
 Integral files         IntName         .... run
 Hartree-Fock type      HFTyp           .... RHF
 Total Charge           Charge          ....    0
 Multiplicity           Mult            ....    1
 Number of Electrons    NEL             ....   48
 Basis Dimension        Dim             ....   72
 Nuclear Repulsion      ENuc            ....    173.3432423505 Eh

Convergence Acceleration:
 AO-DIIS                CNVDIIS         .... on
   Start iteration      DIISMaxIt       ....    12
   Startup error        DIISStart       ....  0.200000
   # of expansion vecs  DIISMaxEq       ....     5
   Bias factor          DIISBfac        ....   1.050
   Max. coefficient     DIISMaxC        ....  10.000
 MO-DIIS                CNVKDIIS        .... off
 Trust-Rad. Augm. Hess. CNVTRAH         .... auto
   Auto Start mean grad. ratio tolernc. ....  1.125000
   Auto Start start iteration           ....    50
   Auto Start num. interpolation iter.  ....    10
   Max. Number of Micro iterations      ....    24
   Max. Number of Macro iterations      .... Maxiter - #DIIS iter
   Number of Davidson start vectors     ....     2
   Converg. threshold    (grad. norm)   ....   5.000e-05
   Grad. Scal. Fac. for Micro threshold ....   0.100
   Minimum threshold for Micro iter.    ....   1.000e-02
   NR start threshold (gradient norm)   ....   1.000e-04
   Initial trust radius                 ....   0.400
   Minimum AH scaling param. (alpha)    ....   1.000
   Maximum AH scaling param. (alpha)    .... 1000.000
   Quad. conv. algorithm                .... NR
   White noise on init. David. guess    .... on
   Maximum white noise                  ....   0.010
   Pseudo random numbers                .... off
   Inactive MOs                         .... canonical
   Orbital update algorithm             .... Taylor
   Preconditioner                       .... Diag
   Full preconditioner red. dimension   ....   250
 SOSCF                 CNVSOSCF           .... on
   Start iteration     SOSCFMaxIt         ....   150
   Startup grad/error  SOSCFStart         ....  0.003300
   Hessian update      SOSCFHessUp        .... L-BFGS
   Autom. constraints  SOSCFAutoConstrain .... off
 Level Shifting         CNVShift        .... on
   Level shift para.    LevelShift      ....    0.2500
   Turn off err/grad.   ShiftErr        ....    0.0010
 Zerner damping         CNVZerner       .... off
 Static damping         CNVDamp         .... on
   Fraction old density DampFac         ....    0.7000
   Max. Damping (<1)    DampMax         ....    0.9800
   Min. Damping (>=0)   DampMin         ....    0.0000
   Turn off err/grad.   DampErr         ....    0.1000

SCF Procedure:
 Maximum # iterations   MaxIter         ....   125
 SCF integral mode      SCFMode         .... Direct
   Integral package                     .... SHARK and LIBINT hybrid scheme
 Reset frequency        DirectResetFreq ....    20
 Integral Threshold     Thresh          ....  1.000e-10 Eh
 Primitive CutOff       TCut            ....  1.000e-11 Eh

Convergence Tolerance:
 Convergence Check Mode ConvCheckMode   .... Total+1el-Energy
 Convergence forced     ConvForced      .... 0
 Energy Change          TolE            ....  1.000e-06 Eh
 1-El. energy change                    ....  1.000e-03 Eh
 Orbital Gradient       TolG            ....  5.000e-05
 Orbital Rotation angle TolX            ....  5.000e-05
 DIIS Error             TolErr          ....  1.000e-05

------------------------------
INITIAL GUESS: MODEL POTENTIAL
------------------------------
Loading Hartree-Fock densities                     ... done
Calculating cut-offs                               ... done
Initializing the effective Hamiltonian             ... done
Setting up the integral package (SHARK)            ... done
Starting the Coulomb interaction                   ... done (   0.0 sec)
Making the grid                                    ... done (   0.1 sec)
Mapping shells                                     ... done
Starting the XC term evaluation                    ... done (   0.0 sec)
  promolecular density results
     # of electrons  =     47.990855481
     EX              =    -56.702109905
     EC              =     -1.652248409
     EX+EC           =    -58.354358314
Transforming the Hamiltonian                       ... done (   0.0 sec)
Diagonalizing the Hamiltonian                      ... done (   0.2 sec)
Back transforming the eigenvectors                 ... done (   0.0 sec)
Now organizing SCF variables                       ... done
                      ------------------
                      INITIAL GUESS DONE (   0.4 sec)
                      ------------------
             **** ENERGY FILE WAS UPDATED (run.en.tmp) ****
Finished Guess after   1.0 sec
Maximum memory used throughout the entire GUESS-calculation: 6.7 MB


           ************************************************************
           *        Program running with 24 parallel MPI-processes    *
           *              working on a common directory               *
           ************************************************************

-------------------------------------------------------------------------------------------
                                      ORCA LEAN-SCF
                              memory conserving SCF solver
-------------------------------------------------------------------------------------------

----------------------------------------D-I-I-S--------------------------------------------
Iteration    Energy (Eh)           Delta-E    RMSDP     MaxDP     DIISErr   Damp  Time(sec)
-------------------------------------------------------------------------------------------
               ***  Starting incremental Fock matrix formation  ***
    1    -731.9078758361890777     0.00e+00  1.66e-02  3.74e-02  6.75e-02  0.700   0.2
    2    -731.9267116827452355    -1.88e-02  1.55e-02  3.10e-02  4.52e-02  0.700   0.1
                               ***Turning on AO-DIIS***
    3    -731.9375661701685658    -1.09e-02  8.27e-03  1.55e-02  2.58e-02  0.700   0.1
    4    -731.9435337186901052    -5.97e-03  1.57e-02  2.96e-02  1.59e-02  0.000   0.1
                              *** Initializing SOSCF ***
---------------------------------------S-O-S-C-F--------------------------------------
Iteration    Energy (Eh)           Delta-E    RMSDP     MaxDP     MaxGrad    Time(sec)
--------------------------------------------------------------------------------------
    5    -731.9552030896443284    -1.17e-02  2.18e-03  3.69e-03  2.83e-03     0.1
               *** Restarting incremental Fock matrix formation ***
    6    -731.9552850553618555    -8.20e-05  2.03e-03  3.49e-03  6.94e-04     0.1
    7    -731.9552909729616204    -5.92e-06  8.29e-04  1.81e-03  5.08e-04     0.1
    8    -731.9552997878618044    -8.81e-06  2.40e-04  6.77e-04  9.67e-05     0.1
    9    -731.9553000380406047    -2.50e-07  8.19e-05  2.11e-04  4.13e-05     0.1
                 **** Energy Check signals convergence ****

               *****************************************************
               *                     SUCCESS                       *
               *           SCF CONVERGED AFTER   9 CYCLES          *
               *****************************************************

             **** ENERGY FILE WAS UPDATED (run.en.tmp) ****

----------------
TOTAL SCF ENERGY
----------------

Total Energy       :       -731.95530010013249 Eh          -19917.51630 eV

Components:
Nuclear Repulsion  :        173.34324235054800 Eh            4716.90943 eV
Electronic Energy  :       -905.29854245068054 Eh          -24634.42573 eV
One Electron Energy:      -1360.40077144197858 Eh          -37018.38697 eV
Two Electron Energy:        455.10222899129803 Eh           12383.96124 eV

Virial components:
Potential Energy   :      -1461.47871506553815 Eh          -39768.85765 eV
Kinetic Energy     :        729.52341496540566 Eh           19851.34134 eV
Virial Ratio       :          2.00333352581266

DFT components:
N(Alpha)           :       24.000066557282 electrons
N(Beta)            :       24.000066557282 electrons
N(Total)           :       48.000133114563 electrons
E(X)               :      -57.106388403381 Eh       
E(C)               :       -1.640078192473 Eh       
E(XC)              :      -58.746466595854 Eh       

---------------
SCF CONVERGENCE
---------------

  Last Energy change         ...    2.5018e-07  Tolerance :   1.0000e-06
  Last MAX-Density change    ...    2.1142e-04  Tolerance :   1.0000e-05
  Last RMS-Density change    ...    8.1875e-05  Tolerance :   1.0000e-06
  Last DIIS Error            ...    2.8330e-03  Tolerance :   1.0000e-05
  Last Orbital Gradient      ...    4.1309e-05  Tolerance :   5.0000e-05
  Last Orbital Rotation      ...    6.0787e-05  Tolerance :   5.0000e-05


----------------
ORBITAL ENERGIES
----------------

  NO   OCC          E(Eh)            E(eV) 
   0   2.0000     -55.398860     -1507.4796 
   1   2.0000     -55.398693     -1507.4751 
   2   2.0000     -55.396336     -1507.4109 
   3   2.0000      -3.958669      -107.7209 
   4   2.0000      -3.958506      -107.7164 
   5   2.0000      -3.955969      -107.6474 
   6   2.0000      -2.566741       -69.8446 
   7   2.0000      -2.566575       -69.8401 
   8   2.0000      -2.564220       -69.7760 
   9   2.0000      -2.564132       -69.7736 
  10   2.0000      -2.564050       -69.7713 
  11   2.0000      -2.561566       -69.7038 
  12   2.0000      -2.560319       -69.6698 
  13   2.0000      -2.560144       -69.6651 
  14   2.0000      -2.557429       -69.5912 
  15   2.0000      -0.506816       -13.7912 
  16   2.0000      -0.419065       -11.4033 
  17   2.0000      -0.418305       -11.3827 
  18   2.0000      -0.329466        -8.9652 
  19   2.0000      -0.323816        -8.8115 
  20   2.0000      -0.306796        -8.3484 
  21   2.0000      -0.283170        -7.7054 
  22   2.0000      -0.270204        -7.3526 
  23   2.0000      -0.263112        -7.1596 
  24   0.0000      -0.082181        -2.2363 
  25   0.0000      -0.068203        -1.8559 
  26   0.0000      -0.059582        -1.6213 
  27   0.0000      -0.052190        -1.4202 
  28   0.0000      -0.048659        -1.3241 
  29   0.0000       0.008982         0.2444 
  30   0.0000       0.018199         0.4952 
  31   0.0000       0.047286         1.2867 
  32   0.0000       0.054172         1.4741 
  33   0.0000       0.062112         1.6902 
  34   0.0000       0.093694         2.5495 
*Only the first 10 virtual orbitals were printed.
-------
TIMINGS
-------

Total SCF time: 0 days 0 hours 0 min 1 sec 

Total time                  ....       1.804 sec
Sum of individual times     ....       1.660 sec  ( 92.0%)

SCF preparation             ....       0.606 sec  ( 33.6%)
Fock matrix formation       ....       0.798 sec  ( 44.2%)
  Startup                   ....       0.007 sec  (  0.8% of F)
  Split-RI-J                ....       0.228 sec  ( 28.6% of F)
  XC integration            ....       0.539 sec  ( 67.5% of F)
    Basis function eval.    ....       0.116 sec  ( 21.6% of XC)
    Density eval.           ....       0.049 sec  (  9.1% of XC)
    XC-Functional eval.     ....       0.027 sec  (  4.9% of XC)
    XC-Potential eval.      ....       0.045 sec  (  8.4% of XC)
Diagonalization             ....       0.000 sec  (  0.0%)
Density matrix formation    ....       0.050 sec  (  2.8%)
Total Energy calculation    ....       0.021 sec  (  1.2%)
Population analysis         ....       0.000 sec  (  0.0%)
Orbital Transformation      ....       0.022 sec  (  1.2%)
Orbital Orthonormalization  ....       0.000 sec  (  0.0%)
DIIS solution               ....       0.097 sec  (  5.4%)
SOSCF solution              ....       0.065 sec  (  3.6%)
Finished LeanSCF after   1.8 sec

Maximum memory used throughout the entire LEANSCF-calculation: 5.6 MB


           ************************************************************
           *        Program running with 24 parallel MPI-processes    *
           *              working on a common directory               *
           ************************************************************

------------------------------------------------------------------------------
                         ORCA PROPERTY INTEGRAL CALCULATIONS
------------------------------------------------------------------------------

GBWName                                   ... run.gbw
Number of atoms                           ...     12
Number of basis functions                 ...     72
Max core memory                           ...   4096 MB

Dipole integrals                          ... YES
Quadrupole integrals                      ...  NO
Linear momentum integrals                 ...  NO
Angular momentum integrals                ...  NO
Higher moments length integrals           ...  NO
Higher moments velocity integrals         ...  NO
Kinetic energy integrals                  ...  NO
GIAO right hand sides                     ...  NO
GIAO dipole derivative integrals          ...  NO
SOC integrals                             ...  NO
EPR diamagnetic integrals (GIAO)          ...  NO
EPR gauge integrals                       ...  NO
Field gradient integrals                  ...  NO (   0 nuclei)
Spin-dipole/Fermi contact integrals       ...  NO (   0 nuclei)
Contact density integrals                 ...  NO (   0 nuclei)
Nucleus-orbit integrals                   ...  NO (   0 nuclei)
Geometric perturbations                   ...  NO (  12 nuclei)

Choice of electric origin   ... Center of mass
Position of electric origin ... (  0.0148,  0.0019,  3.2059) 
Choice of magnetic origin   ... GIAO
Position of magnetic origin ... (  0.0000,  0.0000,  0.0000) 

Calculating integrals                     ... Electric Dipole (Length)     done (  0.0 sec)

Property integrals calculated in   0.0 sec

Maximum memory used throughout the entire PROPINT-calculation: 6.8 MB


-------------------------------------------------------------------------------
                          DFT DISPERSION CORRECTION                            
                                                                               
                              DFTD3 V3.1  Rev 1                                
                          USING Becke-Johnson damping                          
-------------------------------------------------------------------------------
The PBE functional is recognized
Active option DFTDOPT                   ...         4   

molecular C6(AA) [au] = 2779.970111 


            DFT-D V3
 parameters
 s6 scaling factor         :     1.0000 
 a1 scaling factor         :     0.4289 
 s8 scaling factor         :     0.7875 
 a2 scaling factor         :     4.4407 
 ad hoc parameters k1-k3   :    16.0000     1.3333    -4.0000 

 Edisp/kcal,au: -5.590729269330  -0.008909393251 
 E6   /kcal   :  -3.510396135 
 E8   /kcal   :  -2.080333134 
 % E8         :  37.210407332 

-------------------------   ----------------
Dispersion correction           -0.008909393
-------------------------   ----------------

------------------   -----------------
gCP correction             0.040377831
------------------   -----------------

-------------------------   --------------------
FINAL SINGLE POINT ENERGY      -731.923831662683
-------------------------   --------------------



           ************************************************************
           *        Program running with 24 parallel MPI-processes    *
           *              working on a common directory               *
           ************************************************************
------------------------------------------------------------------------------
                         ORCA SCF GRADIENT CALCULATION
------------------------------------------------------------------------------

Nuc. rep. gradient        (SHARK) ... done (  0.0 sec)
HCore & Overlap gradient  (SHARK) ... done (  0.0 sec)
Split-RIJ-J gradient      (SHARK) ... done (  0.3 sec)
XC gradient                       ... done (  0.2 sec)
Dispersion correction             ... done (  0.1 sec)

-------------------
DISPERSION GRADIENT
-------------------

   1   Al  :   -0.000053891    0.000283450    0.000170977
   2   Al  :   -0.000001807   -0.000000017   -0.000334378
   3   H   :    0.000072920   -0.000099184   -0.000063088
   4   H   :   -0.000063591   -0.000031399   -0.000153938
   5   H   :   -0.000073568    0.000099117   -0.000062768
   6   H   :   -0.000068641    0.000104033    0.000072993
   7   H   :   -0.000000780   -0.000000076    0.000140641
   8   H   :    0.000062017    0.000030853   -0.000154537
   9   Al  :    0.000055132   -0.000283465    0.000171765
  10   H   :    0.000070265   -0.000103674    0.000073170
  11   H   :   -0.000068105   -0.000161880    0.000069746
  12   H   :    0.000070050    0.000162239    0.000069418

Difference to translation invariance:
           :    0.0000000000   -0.0000000000    0.0000000000

Difference to rotation invariance:
           :   -0.0000000000   -0.0000000000    0.0000000000

Norm of the Dispersion gradient    ...    0.0007525580
RMS gradient                       ...    0.0001254263
MAX gradient                       ...    0.0003343778
gCP correction                   ... done

------------------
CARTESIAN GRADIENT
------------------

   1   Al  :   -0.003084805   -0.023081229   -0.010355720
   2   Al  :    0.000010542    0.000090236    0.028333762
   3   H   :   -0.003039688   -0.005074740   -0.003514470
   4   H   :    0.008224471    0.005046883   -0.004905058
   5   H   :    0.003157784    0.004930142   -0.003591742
   6   H   :    0.009903587    0.004867147   -0.000928311
   7   H   :    0.000180220   -0.000026353    0.001971100
   8   H   :   -0.008227432   -0.005058067   -0.004795557
   9   Al  :    0.002360315    0.023101591   -0.010495470
  10   H   :   -0.009795989   -0.005049511   -0.000837328
  11   H   :    0.009019563   -0.004382074    0.004541413
  12   H   :   -0.008708569    0.004635977    0.004577382

Difference to translation invariance:
           :   -0.0000000000   -0.0000000000    0.0000000000

Difference to rotation invariance:
           :   -0.0000292084    0.0000570651   -0.0000889287

Norm of the Cartesian gradient     ...    0.0540172285
RMS gradient                       ...    0.0090028714
MAX gradient                       ...    0.0283337620

-------
TIMINGS
-------

Total SCF gradient time     ....        0.716 sec

Densities                   ....       0.001 sec  (  0.1%)
One electron gradient       ....       0.036 sec  (  5.0%)
RI-J Coulomb gradient       ....       0.276 sec  ( 38.5%)
XC gradient                 ....       0.244 sec  ( 34.1%)

Maximum memory used throughout the entire SCFGRAD-calculation: 26.5 MB
------------------------------------------------------------------------------
                         ORCA GEOMETRY RELAXATION STEP
------------------------------------------------------------------------------

Reading the OPT-File                    .... done
Getting information on internals        .... done
Copying old internal coords+grads       .... done
Making the new internal coordinates     .... (2022 redundants) done
Validating the new internal coordinates .... (2022 redundants) done
Calculating the B-matrix                .... done
Calculating the G,G- and P matrices     .... done
Transforming gradient to internals      .... done
Projecting the internal gradient        .... done
Number of atoms                         ....  12
Number of internal coordinates          .... 117
Current Energy                          ....  -731.923831663 Eh
Current gradient norm                   ....     0.054017229 Eh/bohr
Maximum allowed component of the step   ....  0.300
Current trust radius                    ....  0.300
Evaluating the initial hessian          ....  (Almloef) done
Projecting the Hessian                  .... done
Forming the augmented Hessian           .... done
Diagonalizing the augmented Hessian     .... done
Last element of RFO vector              ....  0.981472799
Lowest eigenvalues of augmented Hessian:
 -0.005557620  0.019329544  0.022632186  0.029799360  0.065487952
Length of the computed step             ....  0.195218374
The final length of the internal step   ....  0.195218374
Converting the step to Cartesian space:
 Initial RMS(Int)=    0.0180479451
Transforming coordinates:
 Iter   0:  RMS(Cart)=    0.0233055812 RMS(Int)=    0.0180297981
done
Storing new coordinates                 .... done

                                .--------------------.
          ----------------------|Geometry convergence|-------------------------
          Item                value                   Tolerance       Converged
          ---------------------------------------------------------------------
          RMS gradient        0.0030740345            0.0010000000      NO
          MAX gradient        0.0108858246            0.0050000000      NO
          RMS step            0.0180479451            0.0200000000      YES
          MAX step            0.0437655826            0.0300000000      NO
          -------------------------------------------------------------------------
          ........................................................
          Max(Bonds)      0.0199      Max(Angles)    2.51
          Max(Dihed)        2.50      Max(Improp)    0.00
          ---------------------------------------------------------------------

The optimization has not yet converged - more geometry cycles are needed


    ---------------------------------------------------------------------------
                         Redundant Internal Coordinates
                            (Angstroem and degrees)

        Definition                    Value    dE/dq     Step     New-Value
    ----------------------------------------------------------------------------
     1. B(Al  1,Al  0)                2.9515 -0.005278  0.0190    2.9705   
     2. B(H   2,Al  1)                1.7070 -0.002502  0.0075    1.7144   
     3. B(H   3,Al  1)                1.5960 -0.005081  0.0067    1.6027   
     4. B(H   4,Al  1)                1.7066 -0.002221  0.0075    1.7141   
     5. B(H   4,Al  0)                1.7046 -0.001431  0.0066    1.7112   
     6. B(H   5,Al  0)                1.5961 -0.004732  0.0063    1.6024   
     7. B(H   6,Al  0)                1.7042 -0.001184  0.0058    1.7101   
     8. B(H   7,Al  1)                1.5961 -0.005045  0.0067    1.6028   
     9. B(Al  8,H   6)                1.7043 -0.001174  0.0060    1.7103   
    10. B(Al  8,H   2)                1.7046 -0.001914  0.0069    1.7116   
    11. B(Al  8,Al  1)                2.9546 -0.006463  0.0199    2.9745   
    12. B(Al  8,Al  0)                2.9840 -0.004957  0.0185    3.0024   
    13. B(H   9,Al  8)                1.5963 -0.004719  0.0063    1.6026   
    14. B(H  10,Al  8)                1.5968 -0.005412  0.0072    1.6040   
    15. B(H  11,Al  0)                1.5977 -0.005211  0.0070    1.6047   
    16. A(H   4,Al  0,H   6)          109.76  0.001349   -1.01    108.75   
    17. A(Al  1,Al  0,H   4)           30.11  0.000585   -0.22     29.89   
    18. A(Al  1,Al  0,Al  8)           59.70 -0.000282    0.03     59.73   
    19. A(Al  8,Al  0,H  11)          109.87  0.003492   -0.83    109.03   
    20. A(H   4,Al  0,H   5)          109.64  0.001337   -0.61    109.02   
    21. A(H   6,Al  0,H  11)          109.08  0.001968   -0.34    108.74   
    22. A(Al  1,Al  0,H   5)          138.88  0.002241   -0.84    138.05   
    23. A(Al  1,Al  0,H  11)           97.69  0.003569   -1.01     96.69   
    24. A(H   5,Al  0,H  11)          109.62 -0.007587    2.45    112.08   
    25. A(H   5,Al  0,H   6)          109.61  0.001080   -0.52    109.09   
    26. A(H   4,Al  0,Al  8)           82.90  0.000529   -0.66     82.25   
    27. A(Al  1,Al  0,H   6)           88.60  0.000646   -0.25     88.35   
    28. A(H   5,Al  0,Al  8)          131.19  0.002902   -1.14    130.05   
    29. A(H   4,Al  0,H  11)          109.12  0.001836    0.04    109.16   
    30. A(H   6,Al  0,Al  8)           28.90  0.000930   -0.28     28.62   
    31. A(H   2,Al  1,H   7)          109.17  0.003509   -0.54    108.63   
    32. A(H   3,Al  1,H   4)          109.18  0.002151   -0.61    108.57   
    33. A(Al  0,Al  1,H   3)          132.23  0.003240   -0.72    131.50   
    34. A(H   2,Al  1,H   4)          111.19  0.002045   -1.12    110.06   
    35. A(H   4,Al  1,Al  8)           83.80  0.001095   -0.72     83.08   
    36. A(H   3,Al  1,Al  8)          108.69  0.002449   -1.09    107.60   
    37. A(H   2,Al  1,H   3)          108.82  0.000267   -0.03    108.79   
    38. A(H   2,Al  1,Al  8)           29.98  0.000870   -0.25     29.72   
    39. A(Al  0,Al  1,Al  8)           60.69  0.000203   -0.03     60.67   
    40. A(H   7,Al  1,Al  8)          132.30  0.004971   -0.79    131.51   
    41. A(Al  0,Al  1,H   4)           30.07  0.000726   -0.23     29.83   
    42. A(H   4,Al  1,H   7)          108.82  0.000071    0.04    108.86   
    43. A(Al  0,Al  1,H   7)          108.87  0.003284   -1.19    107.68   
    44. A(Al  0,Al  1,H   2)           83.63  0.001148   -0.65     82.98   
    45. A(H   3,Al  1,H   7)          109.64 -0.008238    2.33    111.97   
    46. A(Al  1,H   2,Al  8)          120.00 -0.001637    0.50    120.50   
    47. A(Al  0,H   4,Al  1)          119.83 -0.001311    0.45    120.28   
    48. A(Al  0,H   6,Al  8)          122.20 -0.001858    0.56    122.76   
    49. A(Al  1,Al  8,H   2)           30.02  0.000767   -0.24     29.78   
    50. A(Al  0,Al  8,H   2)           82.65  0.000952   -0.62     82.03   
    51. A(Al  0,Al  8,Al  1)           59.60  0.000079   -0.00     59.60   
    52. A(H   6,Al  8,H  10)          109.11  0.002564   -0.40    108.72   
    53. A(H   2,Al  8,H  10)          109.11  0.001545   -0.02    109.09   
    54. A(Al  1,Al  8,H  10)           98.13  0.003578   -0.96     97.17   
    55. A(Al  0,Al  8,H  10)          110.98  0.004293   -0.88    110.11   
    56. A(H   6,Al  8,H   9)          109.53  0.002380   -0.52    109.01   
    57. A(H   9,Al  8,H  10)          109.63 -0.010886    2.51    112.14   
    58. A(H   2,Al  8,H   9)          109.57  0.002516   -0.60    108.97   
    59. A(Al  1,Al  8,H   9)          138.61  0.004025   -0.89    137.72   
    60. A(Al  0,Al  8,H   9)          130.29  0.004987   -1.17    129.11   
    61. A(H   2,Al  8,H   6)          109.87  0.001826   -0.95    108.92   
    62. A(Al  1,Al  8,H   6)           88.50  0.001006   -0.29     88.21   
    63. A(Al  0,Al  8,H   6)           28.90  0.000928   -0.28     28.62   
    64. D(H   2,Al  1,Al  0,H   4)   -156.71 -0.001255    1.28   -155.42   
    65. D(H   3,Al  1,Al  0,H   6)     88.73  0.001799   -1.20     87.53   
    66. D(H   3,Al  1,Al  0,H   5)    -30.12 -0.002157    0.48    -29.64   
    67. D(H   3,Al  1,Al  0,Al  8)     89.25  0.001920   -1.20     88.04   
    68. D(H   2,Al  1,Al  0,Al  8)    -20.46 -0.000175   -0.41    -20.87   
    69. D(H   3,Al  1,Al  0,H   4)    -47.00  0.000839    0.48    -46.52   
    70. D(H   2,Al  1,Al  0,H   6)    -20.97 -0.000296   -0.40    -21.38   
    71. D(H   2,Al  1,Al  0,H   5)   -139.83 -0.004252    1.28   -138.55   
    72. D(H   2,Al  1,Al  0,H  11)     88.09  0.001852   -0.80     87.29   
    73. D(H   3,Al  1,Al  0,H  11)   -162.20  0.003946   -1.60   -163.80   
    74. D(Al  8,H   2,Al  1,H   7)    145.40  0.003122   -0.31    145.10   
    75. D(Al  8,H   2,Al  1,H   3)    -94.97 -0.004634    2.18    -92.79   
    76. D(Al  8,H   2,Al  1,Al  0)     37.60 -0.000714    1.17     38.76   
    77. D(Al  8,H   2,Al  1,H   4)     25.33 -0.000525    0.70     26.03   
    78. D(Al  1,H   4,Al  0,H   5)   -168.31 -0.002477    0.15   -168.15   
    79. D(Al  0,H   4,Al  1,H   7)    -95.35 -0.006592    2.49    -92.86   
    80. D(Al  0,H   4,Al  1,Al  8)     37.35 -0.000865    1.39     38.74   
    81. D(Al  0,H   4,Al  1,H   3)    145.01  0.002082    0.01    145.02   
    82. D(Al  0,H   4,Al  1,H   2)     24.93 -0.000927    1.15     26.08   
    83. D(Al  1,H   4,Al  0,H  11)     71.62  0.004865   -2.50     69.13   
    84. D(Al  1,H   4,Al  0,Al  8)    -37.00  0.001024   -1.40    -38.40   
    85. D(Al  1,H   4,Al  0,H   6)    -47.86  0.000535   -1.50    -49.36   
    86. D(Al  8,H   6,Al  0,H   4)     22.76  0.000391    0.40     23.16   
    87. D(Al  8,H   6,Al  0,Al  1)      0.92  0.000187    0.00      0.92   
    88. D(Al  8,H   6,Al  0,H   5)    143.22  0.003558   -1.31    141.91   
    89. D(Al  8,H   6,Al  0,H  11)    -96.74 -0.003857    1.16    -95.58   
    90. D(Al  1,Al  8,Al  0,H  11)    -87.35 -0.002150    0.72    -86.63   
    91. D(Al  1,Al  8,Al  0,H   6)    178.94 -0.000220   -0.00    178.94   
    92. D(Al  1,Al  8,Al  0,H   5)    130.40  0.002729   -1.07    129.34   
    93. D(H   2,Al  8,Al  0,Al  1)     20.53  0.000109    0.42     20.95   
    94. D(Al  1,Al  8,Al  0,H   4)     20.46 -0.000069    0.55     21.01   
    95. D(H   9,Al  8,H   6,Al  0)    140.99  0.005908   -1.38    139.61   
    96. D(H   2,Al  8,H   6,Al  0)     20.58  0.000176    0.28     20.86   
    97. D(Al  1,Al  8,H   6,Al  0)     -0.92 -0.000190   -0.00     -0.92   
    98. D(H  10,Al  8,H   2,Al  1)     72.51  0.005581   -2.29     70.22   
    99. D(H   9,Al  8,H   2,Al  1)   -167.45 -0.005254    0.39   -167.06   
   100. D(H   6,Al  8,H   2,Al  1)    -47.07  0.000398   -1.22    -48.29   
   101. D(H   6,Al  8,Al  1,H   2)    136.46  0.001004   -1.41    135.05   
   102. D(H   6,Al  8,Al  1,Al  0)      0.51  0.000121   -0.00      0.51   
   103. D(H   2,Al  8,Al  1,H   7)    -46.47  0.001288    0.09    -46.39   
   104. D(H   2,Al  8,Al  1,H   4)   -156.34 -0.000885    0.87   -155.47   
   105. D(H   2,Al  8,Al  1,H   3)     95.47 -0.003498    1.75     97.22   
   106. D(H   2,Al  8,Al  1,Al  0)   -135.95 -0.000883    1.41   -134.54   
   107. D(Al  0,Al  8,Al  1,H   7)     89.47  0.002171   -1.32     88.15   
   108. D(Al  0,Al  8,Al  1,H   4)    -20.40 -0.000002   -0.53    -20.93   
   109. D(Al  0,Al  8,H   2,Al  1)    -37.21  0.000751   -1.16    -38.37   
   110. D(Al  0,Al  8,Al  1,H   3)   -128.59 -0.002616    0.34   -128.24   
   111. D(Al  0,Al  8,Al  1,H   2)    135.95  0.000883   -1.41    134.54   
   112. D(H   6,Al  8,Al  0,Al  1)   -178.94  0.000220    0.00   -178.94   
   113. D(H   2,Al  8,Al  0,H  11)    -66.82 -0.002040    1.13    -65.68   
   114. D(H   2,Al  8,Al  0,H   6)   -160.53 -0.000111    0.42   -160.11   
   115. D(H   2,Al  8,Al  0,H   5)    150.94  0.002838   -0.65    150.29   
   116. D(H  10,Al  8,H   6,Al  0)    -99.00 -0.004384    1.12    -97.87   
   117. D(H   2,Al  8,Al  0,H   4)     41.00  0.000040    0.97     41.96   
    ----------------------------------------------------------------------------

Geometry step timings:
Preparation and reading OPT file:      0.000 s ( 0.261 %)
Internal coordinates            :      0.000 s ( 0.612 %)
B/P matrices and projection     :      0.002 s (11.957 %)
Hessian update/contruction      :      0.001 s ( 6.487 %)
Making the step                 :      0.009 s (60.775 %)
Converting the step to Cartesian:      0.001 s ( 4.178 %)
Storing new data                :      0.000 s ( 0.735 %)
Checking convergence            :      0.000 s ( 0.777 %)
Final printing                  :      0.002 s (14.211 %)
Total time                      :      0.015 s

Time for energy+gradient        :      8.541 s
Time for complete geometry iter :      9.397 s

         *************************************************************
         *                GEOMETRY OPTIMIZATION CYCLE   2            *
         *************************************************************
---------------------------------
CARTESIAN COORDINATES (ANGSTROEM)
---------------------------------
  Al    -0.285418    1.472858    2.550674
  Al     0.000211    0.000187   -0.013161
  H      0.849169   -1.120574    0.967967
  H     -1.066566   -0.798325   -0.903699
  H     -0.841962    1.123033    0.970798
  H     -1.416195    2.296882    3.331759
  H      0.000190    0.000069    3.371371
  H      1.059360    0.795371   -0.915782
  Al     0.308839   -1.470187    2.553947
  H      1.460383   -2.267914    3.332251
  H     -1.056115   -2.308419    2.469847
  H      1.095044    2.285329    2.454388

----------------------------
CARTESIAN COORDINATES (A.U.)
----------------------------
  NO LB      ZA    FRAG     MASS         X           Y           Z
   0 Al   13.0000    0    26.982   -0.539362    2.783298    4.820075
   1 Al   13.0000    0    26.982    0.000399    0.000354   -0.024870
   2 H     1.0000    0     1.008    1.604697   -2.117578    1.829193
   3 H     1.0000    0     1.008   -2.015518   -1.508615   -1.707743
   4 H     1.0000    0     1.008   -1.591077    2.122226    1.834542
   5 H     1.0000    0     1.008   -2.676221    4.340478    6.296112
   6 H     1.0000    0     1.008    0.000360    0.000131    6.370968
   7 H     1.0000    0     1.008    2.001900    1.503034   -1.730577
   8 Al   13.0000    0    26.982    0.583621   -2.778252    4.826260
   9 H     1.0000    0     1.008    2.759723   -4.285737    6.297041
  10 H     1.0000    0     1.008   -1.995769   -4.362280    4.667335
  11 H     1.0000    0     1.008    2.069334    4.318645    4.638121

--------------------------------
INTERNAL COORDINATES (ANGSTROEM)
--------------------------------
 Al     0   0   0     0.000000000000     0.00000000     0.00000000
 Al     1   0   0     2.970452603295     0.00000000     0.00000000
 H      2   1   0     1.714481738193    82.97964598     0.00000000
 H      2   1   3     1.602714266024   131.49744936   108.90781105
 H      1   2   3     1.711176768465    29.89227543   204.58422832
 H      1   2   3     1.602425576945   138.03160891   221.44448189
 H      1   2   3     1.710035579739    88.34867931   338.62952559
 H      2   1   3     1.602759896831   107.67693129   252.63286148
 Al     7   1   2     1.710292807620   122.76175812     0.91948043
 H      9   7   1     1.602553847079   108.99451649   139.61805380
 H      9   7   1     1.603996404358   108.70730647   262.11772809
 H      1   2   3     1.604698174758    96.69043273    87.30059815

---------------------------
INTERNAL COORDINATES (A.U.)
---------------------------
 Al     0   0   0     0.000000000000     0.00000000     0.00000000
 Al     1   0   0     5.613341914020     0.00000000     0.00000000
 H      2   1   0     3.239900946794    82.97964598     0.00000000
 H      2   1   3     3.028691033715   131.49744936   108.90781105
 H      1   2   3     3.233655459128    29.89227543   204.58422832
 H      1   2   3     3.028145490416   138.03160891   221.44448189
 H      1   2   3     3.231498924969    88.34867931   338.62952559
 H      2   1   3     3.028777263443   107.67693129   252.63286148
 Al     7   1   2     3.231985015218   122.76175812     0.91948043
 H      9   7   1     3.028387885841   108.99451649   139.61805380
 H      9   7   1     3.031113924031   108.70730647   262.11772809
 H      1   2   3     3.032440077896    96.69043273    87.30059815



           ************************************************************
           *        Program running with 24 parallel MPI-processes    *
           *              working on a common directory               *
           ************************************************************
------------------------------------------------------------------------------
                   ___                                                        
                  /   \      - P O W E R E D   B Y -                         
                 /     \                                                     
                 |  |  |   _    _      __       _____    __    __             
                 |  |  |  | |  | |    /  \     |  _  \  |  |  /  |          
                  \  \/   | |  | |   /    \    | | | |  |  | /  /          
                 / \  \   | |__| |  /  /\  \   | |_| |  |  |/  /          
                |  |  |   |  __  | /  /__\  \  |    /   |      \           
                |  |  |   | |  | | |   __   |  |    \   |  |\   \          
                \     /   | |  | | |  |  |  |  | |\  \  |  | \   \       
                 \___/    |_|  |_| |__|  |__|  |_| \__\ |__|  \__/        
                                                                              
                      - O R C A' S   B I G   F R I E N D -                    
                                      &                                       
                       - I N T E G R A L  F E E D E R -                       
                                                                              
 v1 FN, 2020, v2 2021, v3 2022-2024                                           
------------------------------------------------------------------------------


----------------------
SHARK INTEGRAL PACKAGE
----------------------

Number of atoms                             ...     12
Number of basis functions                   ...     72
Number of shells                            ...     42
Maximum angular momentum                    ...      2
Integral batch strategy                     ... SHARK/LIBINT Hybrid
RI-J (if used) integral strategy            ... SPLIT-RIJ (Revised 2003 algorithm where possible)
Printlevel                                  ...      1
Contraction scheme used                     ... SEGMENTED contraction
Prescreening option                         ... SCHWARTZ
   Thresh                                   ... 1.000e-10
   Tcut                                     ... 1.000e-11
   Tpresel                                  ... 1.000e-11 
Coulomb Range Separation                    ... NOT USED
Exchange Range Separation                   ... NOT USED
Multipole approximations                    ... NOT USED
Finite Nucleus Model                        ... NOT USED
CABS basis                                  ... NOT available
Auxiliary Coulomb fitting basis             ... AVAILABLE
   # of basis functions in Aux-J            ...    252
   # of shells in Aux-J                     ...     96
   Maximum angular momentum in Aux-J        ...      4
Auxiliary J/K fitting basis                 ... NOT available
Auxiliary Correlation fitting basis         ... NOT available
Auxiliary 'external' fitting basis          ... NOT available

Checking pre-screening integrals            ... done (  0.0 sec) Dimension = 42
   => SHARK Basis and OBASIS are compatible. Storing Pre-screening
Shell pair information
Shell pair cut-off parameter TPreSel        ...   1.0e-11
Total number of shell pairs                 ...       903
Shell pairs after pre-screening             ...       882
Total number of primitive shell pairs       ...      4191
Primitive shell pairs kept                  ...      2973
          la=0 lb=0:    450 shell pairs
          la=1 lb=0:    264 shell pairs
          la=1 lb=1:     45 shell pairs
          la=2 lb=0:     90 shell pairs
          la=2 lb=1:     27 shell pairs
          la=2 lb=2:      6 shell pairs

Checking whether 4 symmetric matrices of dimension 72 fit in memory
:Max Core in MB      =   4096.00
 MB in use           =      4.50
 MB left             =   4091.50
 MB needed           =      0.08
 Data fit in memory  = YES
Calculating RI/J V-Matrix + Cholesky decomp.... done (  0.0 sec)
Calculating Nuclear repulsion               ... done (  0.0 sec) ENN=    172.517653088689 Eh

Diagonalization of the overlap matrix:
Smallest eigenvalue                        ... 6.728e-03
Time for diagonalization                   ...    0.002 sec
Threshold for overlap eigenvalues          ... 1.000e-07
Number of eigenvalues below threshold      ... 0
Time for construction of square roots      ...    0.001 sec
Total time needed                          ...    0.004 sec

-------------------
DFT GRID GENERATION
-------------------

General Integration Accuracy     IntAcc      ... 4.388
Radial Grid Type                 RadialGrid  ... OptM3 with GC (2021)
Angular Grid (max. ang.)         AngularGrid ... 4 (Lebedev-302)
Angular grid pruning method      GridPruning ... 4 (adaptive)
Weight generation scheme         WeightScheme... mBecke (2022)
Basis function cutoff            BFCut       ... 1.0000e-10
Integration weight cutoff        WCut        ... 1.0000e-14
Partially contracted basis set               ... off
Rotationally invariant grid construction     ... off
Angular grids for H and He will be reduced by one unit

Total number of grid points                  ...    51179
Total number of batches                      ...      807
Average number of points per batch           ...       63
Average number of grid points per atom       ...     4265
Grids setup in   0.7 sec
Initializing property integral containers    ... done (  0.0 sec)

SHARK setup successfully completed in   0.9 seconds

Maximum memory used throughout the entire STARTUP-calculation: 13.3 MB


           ************************************************************
           *        Program running with 24 parallel MPI-processes    *
           *              working on a common directory               *
           ************************************************************
Occupation numbers will be reassigned to an Aufbau configuration
             **** ENERGY FILE WAS UPDATED (run.en.tmp) ****
Finished Guess after   0.6 sec
Maximum memory used throughout the entire GUESS-calculation: 6.7 MB


           ************************************************************
           *        Program running with 24 parallel MPI-processes    *
           *              working on a common directory               *
           ************************************************************
----------------------------------------D-I-I-S--------------------------------------------
Iteration    Energy (Eh)           Delta-E    RMSDP     MaxDP     DIISErr   Damp  Time(sec)
-------------------------------------------------------------------------------------------
               ***  Starting incremental Fock matrix formation  ***
                              *** Initializing SOSCF ***
---------------------------------------S-O-S-C-F--------------------------------------
Iteration    Energy (Eh)           Delta-E    RMSDP     MaxDP     MaxGrad    Time(sec)
--------------------------------------------------------------------------------------
    1    -731.9598259054030223     0.00e+00  2.36e-03  2.95e-03  4.69e-04     0.1
               *** Restarting incremental Fock matrix formation ***
    2    -731.9599171548521781    -9.12e-05  9.48e-04  1.17e-03  3.90e-04     0.1
[...]
      3      -0.004643   0.028498   0.003317   0.006949   0.000021   0.002960
      4       0.004311  -0.024940  -0.002569  -0.012780  -0.000130  -0.003632
      5      -0.008165  -0.000312  -0.012007  -0.000124   0.020317  -0.000132
      6       0.381206  -0.632423   0.458491  -0.046470  -0.057078  -0.011094
      7      -0.071631   0.242931  -0.265681   0.329893   0.339972   0.076836
      8      -0.077444   0.188165  -0.192249  -0.583302  -0.598329  -0.137769
      9      -0.023568  -0.069930  -0.028539   0.053129  -0.108082  -0.004436
     10       0.012611   0.050625   0.041871  -0.045174  -0.064248  -0.008754
     11       0.006354   0.065270  -0.013491  -0.003748  -0.026706  -0.010857
     12      -0.184118  -0.607277  -0.611093  -0.039777   0.049382  -0.010337
     13      -0.000284   0.167090   0.305194   0.331242  -0.335542   0.080132
     14      -0.018966  -0.135929  -0.218188   0.588642  -0.594551   0.146078
     15      -0.023200  -0.062273  -0.027837  -0.051829   0.072714  -0.137032
     16       0.063323  -0.006301  -0.008309   0.024528  -0.016483   0.026925
     17      -0.102878  -0.099692  -0.034283  -0.036947  -0.001627   0.097238
     18       0.011014   0.006384  -0.003643   0.030024   0.000005  -0.149061
     19      -0.004589  -0.004730   0.001919  -0.256166   0.004210   0.898898
     20      -0.873550  -0.188141   0.386501   0.001262   0.010223  -0.007284
     21       0.046980  -0.060997   0.016108   0.053057   0.107607  -0.005728
     22      -0.032887   0.051612  -0.034276  -0.044096   0.062439  -0.009166
     23       0.025635  -0.054424  -0.028881   0.003389  -0.024842   0.011232
     24      -0.010695   0.012841  -0.006633  -0.002541  -0.002949   0.001164
     25       0.017553   0.005351  -0.006670  -0.001294  -0.005580  -0.019687
     26       0.029661  -0.013243   0.004319   0.011066   0.012152  -0.000274
     27       0.044146  -0.053902   0.013530  -0.052515  -0.076773  -0.142788
     28      -0.053841  -0.023260   0.002134   0.024233   0.015433   0.022524
     29      -0.130460   0.073824  -0.018071   0.037999  -0.001448  -0.097346
     30       0.009235   0.000189   0.007227   0.006184   0.060276   0.165501
     31      -0.006306   0.049392  -0.036651   0.024003   0.026502   0.038247
     32      -0.021535  -0.058906   0.052415   0.043120   0.022910  -0.000383
     33      -0.008810   0.002174  -0.004986   0.006399  -0.058371   0.161577
     34      -0.012533   0.036225   0.047476   0.023352  -0.024976   0.035535
     35      -0.034366   0.039306   0.064812  -0.042597   0.023050  -0.003262
                 30         31         32         33         34         35    
      0       0.009399  -0.000352  -0.009216   0.032712   0.018495  -0.019389
      1       0.013626   0.001255  -0.005953  -0.003809  -0.001816   0.000015
      2       0.001584   0.002979  -0.003031  -0.013070  -0.006732   0.007225
      3      -0.000332  -0.000748   0.002812  -0.023439   0.019176  -0.023573
      4      -0.000453  -0.000535   0.005537  -0.015333   0.012840  -0.016994
      5      -0.002649  -0.018378  -0.000028   0.000176   0.000078   0.000072
      6       0.003668  -0.009243   0.009130  -0.003658  -0.007251  -0.009593
      7      -0.044508   0.060796  -0.053786  -0.013575   0.024342   0.005967
      8       0.080075  -0.111113   0.085562   0.017442  -0.040278  -0.015698
      9       0.006500   0.524974  -0.065934   0.313018  -0.233224   0.315588
     10       0.003489   0.369584  -0.045239   0.221982  -0.164188   0.220901
     11       0.002966   0.304310  -0.039117   0.188121  -0.140715   0.184421
     12      -0.003776   0.007751   0.007348   0.005690   0.008506  -0.006666
     13       0.050386  -0.061114  -0.045193  -0.026870  -0.000410   0.002544
     14       0.089557  -0.112117  -0.070621  -0.042933  -0.006518   0.008958
     15       0.309418   0.024599  -0.242321  -0.564917  -0.273735   0.277348
     16      -0.145519  -0.011326   0.119083   0.275328   0.132211  -0.134025
     17      -0.174759  -0.011789   0.131939   0.322387   0.156581  -0.155720
     18      -0.002638   0.000495   0.045801   0.016334  -0.007345  -0.016481
     19       0.017581  -0.002681  -0.298887  -0.054757   0.023934   0.049188
     20       0.001372  -0.002749   0.002100  -0.001856  -0.003693  -0.000832
     21       0.006111  -0.505183  -0.059583   0.311936  -0.280908   0.326971
     22       0.005339  -0.355465  -0.040596   0.220069  -0.198670   0.228580
     23      -0.004627   0.279955   0.033857  -0.180913   0.159756  -0.183137
     24      -0.007577   0.000362  -0.009764   0.001055  -0.031988  -0.028762
     25      -0.012297  -0.001362  -0.007792   0.000052   0.002882   0.000260
     26       0.001458   0.003078   0.003595   0.000835  -0.011702  -0.010177
     27      -0.279077  -0.032469  -0.299285  -0.050446   0.546750   0.435130
     28       0.116345   0.013591   0.130470   0.022652  -0.236619  -0.187119
     29      -0.150385  -0.015193  -0.155859  -0.026485   0.297093   0.233434
     30       0.505015   0.003434   0.555210   0.019946   0.322851   0.347938
     31       0.221208   0.003094   0.246589   0.008742   0.146271   0.154551
     32       0.060753   0.000015   0.071755   0.004291   0.036299   0.040163
     33      -0.585115   0.005396   0.482438  -0.324362  -0.227762   0.249671
     34      -0.247775   0.000704   0.207248  -0.142549  -0.099087   0.106929
     35       0.084552  -0.001504  -0.073970   0.042745   0.032803  -0.034515


-----------
IR SPECTRUM
-----------

 Mode   freq       eps      Int      T**2         TX        TY        TZ
       cm**-1   L/(mol*cm) km/mol    a.u.
----------------------------------------------------------------------------
  7:    137.13   0.000179    0.91  0.000408  ( 0.001959  0.001872  0.020027)
  8:    148.92   0.000037    0.19  0.000078  (-0.006884 -0.003892  0.003869)
  9:    211.81   0.000305    1.54  0.000449  (-0.000050 -0.000113  0.021198)
 10:    278.97   0.001194    6.03  0.001335  ( 0.030153 -0.020644  0.000269)
 11:    309.24   0.000112    0.56  0.000113  ( 0.004768 -0.002229 -0.009223)
 12:    424.55   0.000507    2.56  0.000372  (-0.016134  0.010576  0.000379)
 13:    436.48   0.000087    0.44  0.000062  ( 0.001121 -0.000879  0.007745)
 14:    453.98   0.003116   15.75  0.002142  (-0.000110  0.000872 -0.046274)
 15:    490.41   0.000005    0.03  0.000003  ( 0.000582  0.000900 -0.001445)
 16:    527.66   0.016105   81.39  0.009525  (-0.068327  0.069629 -0.002782)
 17:    576.13   0.028018  141.59  0.015176  ( 0.003369 -0.004643 -0.123058)
 18:    658.70   0.107704  544.29  0.051025  ( 0.008336  0.203646 -0.097386)
 19:    660.83   0.090627  457.99  0.042797  ( 0.006743  0.108128  0.176237)
 20:    695.65   0.000284    1.44  0.000127  ( 0.002156  0.010400 -0.003827)
 21:    736.78   0.031597  159.68  0.013383  ( 0.066236 -0.094814  0.002485)
 22:    748.79   0.038557  194.85  0.016069  ( 0.061368  0.110236  0.012288)
 23:    753.49   0.031999  161.71  0.013253  ( 0.003950  0.012053 -0.114420)
 24:   1017.56   0.036741  185.68  0.011268  (-0.017097  0.010449  0.104241)
 25:   1036.40   0.043018  217.40  0.012953  ( 0.099778 -0.052949  0.013918)
 26:   1078.37   0.000682    3.45  0.000197  ( 0.012520 -0.005394  0.003388)
 27:   1674.72   0.022689  114.66  0.004228  ( 0.008796 -0.064424 -0.000207)
 28:   1714.51   0.205718  1039.61  0.037443  ( 0.001340 -0.001944  0.193489)
 29:   1769.47   0.191269  966.60  0.033732  ( 0.023576 -0.182144  0.000004)
 30:   1865.86   0.000044    0.22  0.000007  ( 0.002277  0.000247 -0.001470)
 31:   1869.12   0.002053   10.37  0.000343  (-0.001405 -0.001149 -0.018425)
 32:   1870.59   0.004155   21.00  0.000693  (-0.026163  0.002910  0.000503)
 33:   1886.48   0.007127   36.01  0.001179  ( 0.014592 -0.025495 -0.017776)
 34:   1888.36   0.007117   35.97  0.001176  ( 0.009346  0.019493 -0.026624)
 35:   1893.99   0.073368  370.77  0.012089  (-0.106201 -0.028180 -0.003970)

* The epsilon (eps) is given for a Dirac delta lineshape.
** The dipole moment derivative (T) already includes vibrational overlap.

The first frequency considered to be a vibration is 7
The total number of vibrations considered is 29


--------------------------
THERMOCHEMISTRY AT 298.15K
--------------------------

Temperature         ...   298.15 K
Pressure            ...     1.00 atm
Total Mass          ...    90.02 AMU
Quasi RRHO          ...     True
Cut-Off Frequency   ...     1.00 cm^-1

Throughout the following assumptions are being made:
  (1) The electronic state is orbitally nondegenerate
  (2) There are no thermally accessible electronically excited states
  (3) Hindered rotations indicated by low frequency modes are not
      treated as such but are treated as vibrations and this may
      cause some error
  (4) All equations used are the standard statistical mechanics
      equations for an ideal gas
  (5) All vibrations are strictly harmonic

freq.     137.13  E(vib)   ...       0.42 
freq.     148.92  E(vib)   ...       0.40 
freq.     211.81  E(vib)   ...       0.34 
freq.     278.97  E(vib)   ...       0.28 
freq.     309.24  E(vib)   ...       0.26 
freq.     424.55  E(vib)   ...       0.18 
freq.     436.48  E(vib)   ...       0.17 
freq.     453.98  E(vib)   ...       0.16 
freq.     490.41  E(vib)   ...       0.15 
freq.     527.66  E(vib)   ...       0.13 
freq.     576.13  E(vib)   ...       0.11 
freq.     658.70  E(vib)   ...       0.08 
freq.     660.83  E(vib)   ...       0.08 
freq.     695.65  E(vib)   ...       0.07 
freq.     736.78  E(vib)   ...       0.06 
freq.     748.79  E(vib)   ...       0.06 
freq.     753.49  E(vib)   ...       0.06 
freq.    1017.56  E(vib)   ...       0.02 
freq.    1036.40  E(vib)   ...       0.02 
freq.    1078.37  E(vib)   ...       0.02 
freq.    1674.72  E(vib)   ...       0.00 
freq.    1714.51  E(vib)   ...       0.00 
freq.    1769.47  E(vib)   ...       0.00 
freq.    1865.86  E(vib)   ...       0.00 
freq.    1869.12  E(vib)   ...       0.00 
freq.    1870.59  E(vib)   ...       0.00 
freq.    1886.48  E(vib)   ...       0.00 
freq.    1888.36  E(vib)   ...       0.00 
freq.    1893.99  E(vib)   ...       0.00 

------------
INNER ENERGY
------------

The inner energy is: U= E(el) + E(ZPE) + E(vib) + E(rot) + E(trans)
    E(el)   - is the total energy from the electronic structure calculation
              = E(kin-el) + E(nuc-el) + E(el-el) + E(nuc-nuc)
    E(ZPE)  - the the zero temperature vibrational energy from the frequency calculation
    E(vib)  - the the finite temperature correction to E(ZPE) due to population
              of excited vibrational states
    E(rot)  - is the rotational thermal energy
    E(trans)- is the translational thermal energy

Summary of contributions to the inner energy U:
Electronic energy                ...   -731.94546805 Eh
Zero point energy                ...      0.06336708 Eh      39.76 kcal/mol
Thermal vibrational correction   ...      0.00490716 Eh       3.08 kcal/mol
Thermal rotational correction    ...      0.00141627 Eh       0.89 kcal/mol
Thermal translational correction ...      0.00141627 Eh       0.89 kcal/mol
-----------------------------------------------------------------------
Total thermal energy                   -731.87436126 Eh


Summary of corrections to the electronic energy:
(perhaps to be used in another calculation)
Total thermal correction                  0.00773971 Eh       4.86 kcal/mol
Non-thermal (ZPE) correction              0.06336708 Eh      39.76 kcal/mol
-----------------------------------------------------------------------
Total correction                          0.07110679 Eh      44.62 kcal/mol


--------
ENTHALPY
--------

The enthalpy is H = U + kB*T
                kB is Boltzmann's constant
Total thermal energy              ...   -731.87436126 Eh 
Thermal Enthalpy correction       ...      0.00094421 Eh       0.59 kcal/mol
-----------------------------------------------------------------------
Total Enthalpy                    ...   -731.87341705 Eh


Note: Only C1 symmetry has been detected, increase convergence thresholds 
      if your molecule has a higher symmetry. Symmetry factor of 1.0 is   
      used for the rotational entropy correction. 
 

Note: Rotational entropy computed according to Herzberg 
Infrared and Raman Spectra, Chapter V,1, Van Nostrand Reinhold, 1945 
Point Group:  C1, Symmetry Number:   1  
Rotational constants in cm-1:     0.102004     0.100688     0.054662 

Vibrational entropy computed according to the QRRHO of S. Grimme
Chem.Eur.J. 2012 18 9955 using a reference frequency of 100.0 cm-1


-------
ENTROPY
-------

The entropy contributions are T*S = T*(S(el)+S(vib)+S(rot)+S(trans))
     S(el)   - electronic entropy
     S(vib)  - vibrational entropy
     S(rot)  - rotational entropy
     S(trans)- translational entropy
The entropies will be listed as multiplied by the temperature to get
units of energy

Electronic entropy                ...      0.00000000 Eh      0.00 kcal/mol
Vibrational entropy               ...      0.00793649 Eh      4.98 kcal/mol
Rotational entropy                ...      0.01304443 Eh      8.19 kcal/mol
Translational entropy             ...      0.01872231 Eh     11.75 kcal/mol
-----------------------------------------------------------------------
Final entropy term                ...      0.03970323 Eh     24.91 kcal/mol

In case the symmetry of your molecule has not been determined correctly
or in case you have a reason to use a different symmetry number we print 
out the resulting rotational entropy values for sn=1,12:

 non-linear molecules -----------------------------------
|  sn= 1 | S(rot)=       0.01304443 Eh      8.19 kcal/mol|
|  sn= 2 | S(rot)=       0.01238998 Eh      7.77 kcal/mol|
|  sn= 3 | S(rot)=       0.01200714 Eh      7.53 kcal/mol|
|  sn= 4 | S(rot)=       0.01173552 Eh      7.36 kcal/mol|
|  sn= 5 | S(rot)=       0.01152483 Eh      7.23 kcal/mol|
|  sn= 6 | S(rot)=       0.01135269 Eh      7.12 kcal/mol|
|  sn= 7 | S(rot)=       0.01120714 Eh      7.03 kcal/mol|
|  sn= 8 | S(rot)=       0.01108106 Eh      6.95 kcal/mol|
|  sn= 9 | S(rot)=       0.01096986 Eh      6.88 kcal/mol|
|  sn=10 | S(rot)=       0.01087038 Eh      6.82 kcal/mol|
|  sn=11 | S(rot)=       0.01078039 Eh      6.76 kcal/mol|
|  sn=12 | S(rot)=       0.01069823 Eh      6.71 kcal/mol|
 linear molecules ---------------------------------------
|  Dinfh | S(rot)=       0.00807015 Eh      5.06 kcal/mol|
|  Cinfv | S(rot)=       0.00872461 Eh      5.47 kcal/mol|
 --------------------------------------------------------


-------------------
GIBBS FREE ENERGY
-------------------

The Gibbs free energy is G = H - T*S

Total enthalpy                    ...   -731.87341705 Eh 
Total entropy correction          ...     -0.03970323 Eh    -24.91 kcal/mol
-----------------------------------------------------------------------
Final Gibbs free energy         ...   -731.91312028 Eh

For completeness - the Gibbs free energy minus the electronic energy
G-E(el)                           ...      0.03234777 Eh     20.30 kcal/mol


Maximum memory used throughout the entire PROP-calculation: 26.7 MB

--------------------------------
SUGGESTED CITATIONS FOR THIS RUN
--------------------------------

Below you find a list of papers that are relevant to this ORCA run
We neither can nor want to force you to cite these papers, but we appreciate if you do
You receive ORCA, which is the product of decades of hard work by many enthusiastic individuals, for free
The only thing we kindly ask in return is that you cite our papers,
We deeply appreciate it, if you show your appreciation for ORCA by not just citing the generic ORCA reference.

Please note that relegating all ORCA citations to the supporting information does *not* help us.
SI sections are not indexed - citations you put there will not count into any citation statistics
But we need these citations in order to attract the funding resources that allow us to do what we are doing

Therefore, if you are a happy ORCA user, please consider citing a few of the papers listed below in the main body of your paper

In addition to the list printed below, the program has created the file run.bibtex that contains the list in bibtex format
You can import this file easily into all common literature databanks and citation aid programs


List of essential papers. We consider these as the minimum necessary citations

  1. Neese, F.
     Software update: the ORCA program system, version 6.0
     WIRES Comput. Molec. Sci. 2025 15(1), e70019
     doi.org/10.1002/wcms.7019

List of papers to cite with high priority. The work reported in these papers was absolutely
necessary for this run to complete.
Our perspective: the developers of density functionals and basis sets usually get cited in chemistry papers
Good! But without the algorithms to do something with them, the functionals or basis sets would not do anything.
Hence, in our opinion, the algorithm design and method developments papers are equally worthy of getting cited

  1. Neese, F.
     An improvement of the resolution of the identity approximation for the formation of the Coulomb matrix
     J. Comp. Chem. 2003 24(14), 1740-1747
     doi.org/10.1002/jcc.10318
  2. Grimme, S.; Antony, J.; Ehrlich, S.; Krieg, H.
     A consistent and accurate ab initio parametrization of density functional dispersion correction (DFT-D) for the 94 elements H-Pu
     J. Chem. Phys. 2010 132 , 154104
     doi.org/10.1063/1.3382344
  3. Grimme, S.; Ehrlich, S.; Goerigk, L.
     Effect of the damping function in dispersion corrected density functional theory
     J. Comput. Chem. 2011 32(7), 1456-1465
     doi.org/10.1002/jcc.21759
  4. Bykov, D.; Petrenko, T.; Izsak, R.; Kossmann, S.; Becker, U.; Valeev, E.; Neese, F.
     Efficient implementation of the analytic second derivatives of Hartree-Fock and hybrid DFT energies: a detailed analysis of different approximations
     Molec. Phys. 2015 113 , 1961-1977
     doi.org/10.1080/00268976.2015.1025114
  5. Neese, F.
     The SHARK Integral Generation and Digestion System
     J. Comp. Chem. 2022 44(3), 381
     doi.org/10.1002/jcc.26942

List of suggested additional citations. These are papers that are important in the 'surrounding' of 
of this run, or papers that preceded the highly important papers. If you like your results we are grateful for a citation.

  1. Neese, F.
     The ORCA program system
     WIRES Comput. Molec. Sci. 2012 2(1), 73-78
     doi.org/10.1002/wcms.81
  2. Neese, F.
     Software update: the ORCA program system, version 4.0
     WIRES Comput. Molec. Sci. 2018 8(1), 1-6
     doi.org/10.1002/wcms.1327
  3. Neese, F.; Wennmohs, F.; Becker, U.; Riplinger, C.
     The ORCA quantum chemistry program package
     J. Chem. Phys. 2020 152(22), 224108
     doi.org/10.1063/5.0004608
  4. Neese, F.
     Software update: The ORCA program system—Version 5.0
     WIRES Comput. Molec. Sci. 2022 12(1), e1606
     doi.org/10.1002/wcms.1606

List of optional additional citations

  1. Neese, F.
     Approximate second-order SCF convergence for spin unrestricted wavefunctions
     Chem. Phys. Lett. 2000 325(1-3), 93-98
     doi.org/10.1016/s0009-2614(00)00662-x

Timings for individual modules:

Sum of individual times          ...       52.852 sec (=   0.881 min)
Startup calculation              ...       12.463 sec (=   0.208 min)  23.6 %
SCF iterations                   ...       17.270 sec (=   0.288 min)  32.7 %
Property integrals               ...        8.008 sec (=   0.133 min)  15.2 %
SCF Response                     ...        1.906 sec (=   0.032 min)   3.6 %
Property calculations            ...        4.098 sec (=   0.068 min)   7.8 %
SCF Gradient evaluation          ...        8.986 sec (=   0.150 min)  17.0 %
Geometry relaxation              ...        0.120 sec (=   0.002 min)   0.2 %
                             ****ORCA TERMINATED NORMALLY****
TOTAL RUN TIME: 0 days 0 hours 0 minutes 59 seconds 341 msec
