
                                 *****************
                                 * O   R   C   A *
                                 *****************

                                            #,                                       
                                            ###                                      
                                            ####                                     
                                            #####                                    
                                            ######                                   
                                           ########,                                 
                                     ,,################,,,,,                         
                               ,,#################################,,                 
                          ,,##########################################,,             
                       ,#########################################, ''#####,          
                    ,#############################################,,   '####,        
                  ,##################################################,,,,####,       
                ,###########''''           ''''###############################       
              ,#####''   ,,,,##########,,,,          '''####'''          '####       
            ,##' ,,,,###########################,,,                        '##       
           ' ,,###''''                  '''############,,,                           
         ,,##''                                '''############,,,,        ,,,,,,###''
      ,#''                                            '''#######################'''  
     '                                                          ''''####''''         
             ,#######,   #######,   ,#######,      ##                                
            ,#'     '#,  ##    ##  ,#'     '#,    #''#        ,####,    ,#,          
            ##       ##  ##   ,#'  ##            #'  '#       #'       ,# #          
            ##       ##  #######   ##           ,######,      #####,      #          
            '#,     ,#'  ##    ##  '#,     ,#' ,#      #,     #,   #      #          
             '#######'   ##     ##  '#######'  #'      '#     '####' #    #          



                #########################################################
                #                        -***-                          #
                #          Department of theory and spectroscopy        #
                #                                                       #
                #                      Frank Neese                      #
                #                                                       #
                #     Directorship, Architecture, Infrastructure        #
                #                    SHARK, DRIVERS                     #
                #        Core code/Algorithms in most modules           #
                #                                                       #
                #        Max Planck Institute fuer Kohlenforschung      #
                #                Kaiser Wilhelm Platz 1                 #
                #                 D-45470 Muelheim/Ruhr                 #
                #                      Germany                          #
                #                                                       #
                #                  All rights reserved                  #
                #                        -***-                          #
                #########################################################


                         Program Version 6.1.0  -  RELEASE   -
                                (GIT: $679e74b$)
                          ($2025-06-10 18:02:51 +0200$)


 With contributions from (in alphabetic order):
[Max-Planck-Institut fuer Kohlenforschung]                               
  Daniel Aravena         : Magnetic Suceptibility                        
  Michael Atanasov       : Ab Initio Ligand Field Theory (pilot matlab implementation)
  Alexander A. Auer      : GIAO ZORA, VPT2 properties, NMR spectrum      
  Ute Becker             : All parallelization in ORCA, NUMFREQ, NUMCALC 
  Giovanni Bistoni       : ED, misc. LED, open-shell LED, HFLD           
  Dmytro Bykov           : pre 5.0 version of the SCF Hessian            
  Marcos Casanova-Páez   : Triplet and SCS-CIS(D). UHF-(DLPNO)-IP/EA/STEOM-CCSD. UHF-CVS-IP/STEOM-CCSD   
  Vijay G. Chilkuri      : MRCI spin determinant printing, contributions to CSF-ICE 
  Pauline Colinet        : FMM embedding                                 
  Dipayan Datta          : RHF DLPNO-CCSD density                        
  Achintya Kumar Dutta   : EOM-CC, STEOM-CC                              
  Nicolas Foglia         : Exact transition moments, OPA infrastructure, MCD improvements    
  Dmitry Ganyushin       : Spin-Orbit,Spin-Spin,Magnetic field MRCI      
  Miquel Garcia-Rates    : C-PCM and meta-GGA Hessian, CCSD/C-PCM, Gaussian charge scheme 
  Tiago L. C. Gouveia    : GS-ROHF, GS-ROCIS                             
  Yang Guo               : DLPNO-NEVPT2, F12-NEVPT2, CIM, IAO-localization        
  Andreas Hansen         : Spin unrestricted coupled pair/coupled cluster methods 
  Ingolf Harden          : AUTO-CI MPn and infrastructure                
  Benjamin Helmich-Paris : MC-RPA, TRAH-(SCF,CASSCF), AVAS, COSX integrals, SCF dyn. polar., MC-PDFT, srDFT 
  Lee Huntington         : MR-EOM, pCC                                   
  Robert Izsak           : Overlap fitted RIJCOSX, COSX-SCS-MP3, EOM     
  Riya Kayal             : Wick's Theorem for AUTO-CI, AUTO-CI UHF-CCSDT 
  Emily Kempfer          : AUTO-CI RHF CISDT and CCSDT, approximate NEVPT4
  Christian Kollmar      : KDIIS, OOCD, Brueckner-CCSD(T), CCSD density, CASPT2, CASPT2-K, improved NEVPT2 
  Axel Koslowski         : Symmetry handling                             
  Simone Kossmann        : meta-GGA functionals, TD-DFT gradient, OOMP2, (MP2 Hessian; deprecated post 5.0) 
  Lucas Lang             : DCDCAS, Hyperfine gauge corrections, ICE-SOC+SSC
  Marvin Lechner         : AUTO-CI (C++ implementation), FIC-MRCC        
  Spencer Leger          : CASSCF response                               
  Dagmar Lenk            : GEPOL surface, SMD, ORCA-2-JSON               
  Dimitrios Liakos       : Extrapolation schemes; Compound Job, Property file
  Dimitrios Manganas     : Further ROCIS development; embedding schemes. LFT, Crystal Embedding 
  Dimitrios Pantazis     : SARC Basis sets                               
  Anastasios Papadopoulos: AUTO-CI, single reference methods and gradients 
  Taras Petrenko         : pre 6.0 DFT Hessian and TD-DFT gradient,  ECA, NRVS 
  Petra Pikulova         : Analytic Raman intensities                    
  Peter Pinski           : DLPNO-MP2, DLPNO-MP2 Gradient                 
  Shashank Vittal Rao    : ES-AILFT, MagRelax                            
  Christoph Reimann      : Effective Core Potentials                     
  Marius Retegan         : Local ZFS, SOC                                
  Christoph Riplinger    : Optimizer, TS searches, QM/MM, DLPNO-CCSD(T), (RO)-DLPNO pert. Triples 
  Michael Roemelt        : Original ROCIS implementation, recursive CI coupling coefficients
  Masaaki Saitow         : Open-shell DLPNO-CCSD energy and density      
  Barbara Sandhoefer     : DKH picture change effects                    
  Yorick L. A. Schmerwitz: GMF and freeze-and-release deltaSCF, NEB S-IDPP initial path                    
  Kantharuban Sivalingam : CASSCF convergence/infrastructure, NEVPT2, NEVPT3, NEVPT4(SD), FIC-MRCI and CEPA variants
  Bernardo de Souza      : ESD, SOC TD-DFT                               
  Georgi L. Stoychev     : AutoAux, RI-MP2 NMR, DLPNO-MP2 response, X2C  
  Van Anh Tran           : RI-MP2 g-tensors                              
  Willem Van den Heuvel  : Paramagnetic NMR                              
  Zikuan Wang            : NOTCH, Electric field optimization            
  Frank Wennmohs         : Technical directorship and infrastructure     
  Hang Xu                : AUTO-CI-Response properties                   
                                                                         
[FACCTs GmbH]                                                            
  Markus Bursch, Nicolas Foglia, Miquel Garcia-Rates, Ingolf Harden, Hagen Neugebauer, Anastasios Papadopoulos, 
  Christoph Riplinger, Bernardo de Souza, Georgi L. Stoychev                                                    
                                                                 
  APM, various basis sets, CI-OPT, improved COSX, DLPNO-Multilevel,           
  DOCKER, DRACO, updates on ESD, Fragmentator, GOAT, IRC, LR-CPCM, L-BFGS, MBIS, meta-GGA TD-DFT gradient, ML-optimized integration grids, 
  MM, NACMEs, nearIR, NEB, NEB-TS, NL-DFT gradient (VV10), 2- and 3-layer-ONIOM, interface openCOSMO-RS, QMMM,   
  Crystal-QMMM, RESP, rigid body optimization, SF, symmetry and pop. for TD-DFT, various functionals, SOLVATOR                                   
                                                                         
[Other institutions]                                                     
  V. Asgeirsson          : NEB                                           
  Christoph Bannwarth    : sTDA-DFT, sTD-DFT, PBEh-3c, B97-3c, D3        
  Giovanni Bistoni       : ETS/NOCV, ADLD/ADEX, COVALED                  
  Martin Brehm           : Molecular dynamics                            
  Ronald Cardenas        : ETS/NOCV                                      
  Martina Colucci        : COVALED                                       
  Sebastian Ehlert       : rSCAN, r2SCAN, r2SCAN-3c, D4, dhf basis sets  
  Marvin Friede          : D4 for Fr, Ra, Ac-Lr                          
  Lars Goerigk           : TD-DFT with DH, B97 family of functionals     
  Stefan Grimme          : VdW corrections, initial TS optimization, DFT functionals, gCP, sTDA/sTD-DF 
  Waldemar Hujo          : DFT-NL                                        
  H. Jonsson             : NEB                                           
  Holger Kruse           : gCP                                           
  Marcel Mueller         : wB97X-3c, vDZP basis set                      
  Hagen Neugebauer       : wr2SCAN, Native XTB                           
  Gianluca Regni         : ADLD/ADEX                                     
  Tobias Risthaus        : pre 6.0 range-separated hybrid DFT and stability analysis
  Lukas Wittmann         : regularized MP2, r2SCAN double-hybrids, wr2SCAN        
                                                                         
We gratefully acknowledge several colleagues who have allowed us to      
interface, adapt or use parts of their codes:                            
  Ed Valeev, F. Pavosevic, A. Kumar             : LibInt (2-el integral package), F12 methods 
  Garnet Chan, S. Sharma, J. Yang, R. Olivares  : DMRG                   
  Ulf Ekstrom                                   : XCFun DFT Library      
  Mihaly Kallay                                 : mrcc  (arbitrary order and MRCC methods)
  Frank Weinhold                                : gennbo (NPA and NBO analysis)           
  Simon Mueller                                 : openCOSMO-RS                            
  Christopher J. Cramer and Donald G. Truhlar   : smd solvation model                     
  S Lehtola, MJT Oliveira, MAL Marques          : LibXC Library                           
  Liviu Ungur et al                             : ANISO software                          


 Your calculation uses the libint2 library for the computation of 2-el integrals
 For citations please refer to: http://libint.valeyev.net

 Your ORCA version has been built with support for libXC version: 7.0.0
 For citations please refer to: https://libxc.gitlab.io

 This ORCA versions uses:
   CBLAS   interface :  Fast vector & matrix operations
   LAPACKE interface :  Fast linear algebra routines
   SCALAPACK package :  Parallel linear algebra routines
   Shared memory     :  Shared parallel matrices
   BLAS/LAPACK       :  OpenBLAS 0.3.29  USE64BITINT DYNAMIC_ARCH NO_AFFINITY Prescott SINGLE_THREADED
        Core in use  :  Prescott
   Copyright (c) 2011-2014, The OpenBLAS Project


  ***********************************
  * Starting time: Wed Aug 13 11:40:59 2025
  * Host name:     cuda7
  * Process ID:    177290
  * Working dir.:  /local/scratch/mehlhorn/61882
  ***********************************



***************************************
The coordinates will be read from file: start.xyz
***************************************


Your calculation utilizes the geometrical counterpoise correction gCP
Please cite in your paper:
H.Kruse, S. Grimme J.Chem.Phys., 136, (2012), 154101 
   

Your calculation utilizes the atom-pairwise dispersion correction
with the Becke-Johnson damping scheme (D3BJ)


Warning: RI is on but no J-basis has been assigned. Assigning Def2/J (nothing to worry about!)
================================================================================

cite the ECPs for Zr [Def2-ECP] as follows:
Ce-Yb(ecp-28): M. Dolg, H. Stoll, H.Preuss, J. Chem. Phys., 1989, 90, 1730-1734.
Y-Cd(ecp-28), Hf-Hg(ecp-46): D. Andrae,U. Haeussermann, M. Dolg, H. Stoll, H. Preuss, Theor. Chim. Acta, 1990, 77, 123-141.
In-Sb(ecp-28), Tl-Bi(ecp-46): B. Metz, H. Stoll, M. Dolg, J. Chem. Phys., 2000, 113, 2563-2569.
Te-Xe(ecp-28), Po-Rn(ecp-46): K. A. Peterson, D. Figgen, E. Goll, H. Stoll, M. Dolg, J. Chem. Phys., 2003, 119, 11113-11123.
Rb(ecp-28), Cs(ecp-46): T. Leininger, A. Nicklass, W. Kuechle, H. Stoll, M. Dolg, A. Bergner, Chem. Phys. Lett., 1996, 255, 274-280.
Sr(ecp-28), Ba(ecp-46): M. Kaupp, P. V. Schleyer, H. Stoll and H. Preuss, J. Chem. Phys., 1991, 94, 1360-1366.
La(ecp-46): M. Dolg, H. Stoll, A. Savin, H. Preuss, Theor. Chim. Acta, 1989, 75, 173-194.
Lu(ecp-28): X. Cao, M. Dolg, J. Chem. Phys., 2001, 115, 7348-7355.

ECP parameters for Zr [Def2-ECP] have been obtained from:
TURBOMOLE (7.0.2)

----- Orbital basis set information -----
Your calculation utilizes the basis: def2-SV(P)
   F. Weigend and R. Ahlrichs, Phys. Chem. Chem. Phys. 7, 3297 (2005).

----- AuxJ basis set information -----
Your calculation utilizes the auxiliary basis: def2/J
   H-Rn: F. Weigend, Phys. Chem. Chem. Phys. 8, 1057 (2006).
   Fr-Lr: K. Eichkorn, F. Weigend, O. Treutler, R. Ahlrichs; Theor. Chem. Acc. 97, 119 (1997).

================================================================================
                                        WARNINGS
                       Please study these warnings very carefully!
================================================================================


WARNING: Gradients are needed
  ===> : At least TightSCF should be used for SCF convergence

WARNING: Geometry Optimization
  ===> : Switching off AutoStart
         For restart on a previous wavefunction, please use MOREAD

================================================================================
                                       INPUT FILE
================================================================================
NAME = run.inp
|  1> # Geometry optimization for (AlH3)n cluster
|  2> 
|  3> %pal nprocs 24  end
|  4> 
|  5> %geom MaxIter 500 end
|  6> 
|  7> 
|  8> ! PBE def2-SV(P)
|  9> ! RKS	# closed shell for AlH3
| 10> ! D3    #  dispersion correction
| 11> ! gCP(DFT/SV(P))
| 12> ! Freq 	# Frequency analysis to check the stabiltity of the structures
| 13> 
| 14> ! NoPop # population analysis not necessary	
| 15> 
| 16> ! DEFGRID2
| 17> ! NormalSCF
| 18> ! SloppyOpt
| 19> 
| 20> ! SmallPrint
| 21> 
| 22> 
| 23> * xyzFile 0 1 start.xyz # only maingroup elements H and Al so there should be no net spin
| 24> 
| 25>                          ****END OF INPUT****
================================================================================

                       *****************************
                       * Geometry Optimization Run *
                       *****************************

Geometry optimization settings:
Update method            Update   .... BFGS
Choice of coordinates    CoordSys .... (2022) Redundant Internals
Initial Hessian          InHess   .... Almloef's Model
Max. no of cycles        MaxIter  .... 500

Convergence Tolerances:
Energy Change            TolE     ....  8.0000e-05 Eh
Max. Gradient            TolMAXG  ....  5.0000e-03 Eh/bohr
RMS Gradient             TolRMSG  ....  1.0000e-03 Eh/bohr
Max. Displacement        TolMAXD  ....  3.0000e-02 bohr
RMS Displacement         TolRMSD  ....  2.0000e-02 bohr
Strict Convergence                .... False

------------------------------------------------------------------------------
                        ORCA OPTIMIZATION COORDINATE SETUP
------------------------------------------------------------------------------

The optimization will be done in redundant internal coordinates (2022)
Making redundant internal coordinates   ...  (2022 redundants) done
Evaluating the initial hessian          ...  (Almloef) done
Evaluating the coordinates              ...  done
Calculating the B-matrix                .... done
Calculating the G-matrix                .... done
The number of degrees of freedom        .... 1044

    -----------------------------------------------------------------
                    Redundant Internal Coordinates


    -----------------------------------------------------------------
         Definition                    Initial Value    Approx d2E/dq
    -----------------------------------------------------------------
      1. B(Zr  2,Zr  1)                  3.4178         0.037221   
      2. B(Zr  3,Zr  0)                  3.4221         0.036640   
      3. B(Zr  4,Zr  1)                  3.4207         0.036822   
      4. B(Zr  4,Zr  3)                  3.4242         0.036351   
      5. B(Zr  5,Zr  2)                  3.4142         0.037713   
      6. B(Zr  5,Zr  0)                  3.4238         0.036412   
      7. B(O   6,Zr  5)                  2.1341         0.367972   
      8. B(O   6,Zr  3)                  2.1434         0.355628   
      9. B(O   6,Zr  0)                  2.0970         0.421717   
     10. B(O   7,Zr  4)                  2.1242         0.381618   
     11. B(O   7,Zr  2)                  2.1378         0.363026   
     12. B(O   7,Zr  1)                  2.0958         0.423615   
     13. B(O   8,Zr  2)                  2.0947         0.425287   
     14. B(O   8,Zr  5)                  2.1424         0.356998   
     15. B(O   8,Zr  1)                  2.1296         0.374146   
     16. B(O   9,Zr  0)                  2.1326         0.370059   
     17. B(O   9,Zr  3)                  2.1010         0.415557   
     18. B(O   9,Zr  4)                  2.1478         0.349880   
     19. B(O  10,Zr  3)                  2.1272         0.377395   
     20. B(O  10,Zr  4)                  2.1002         0.416787   
     21. B(O  10,Zr  1)                  2.1458         0.352545   
     22. B(O  11,Zr  5)                  2.0976         0.420832   
     23. B(O  11,Zr  2)                  2.1246         0.381053   
     24. B(O  11,Zr  0)                  2.1407         0.359116   
     25. B(O  12,Zr  0)                  1.9690         0.675004   
     26. B(O  13,Zr  0)                  1.9767         0.656085   
     27. B(O  14,Zr  0)                  2.0690         0.467426   
     28. B(O  15,Zr  0)                  2.0385         0.522887   
     29. B(O  16,Zr  1)                  2.0381         0.523691   
     30. B(O  17,Zr  1)                  2.0687         0.468003   
     31. B(O  18,Zr  1)                  1.9757         0.658558   
     32. B(O  19,Zr  1)                  1.9695         0.673544   
     33. B(O  20,Zr  2)                  1.9741         0.662395   
     34. B(O  21,Zr  2)                  2.0370         0.525783   
     35. B(O  22,Zr  2)                  1.9661         0.682198   
     36. B(O  23,Zr  2)                  2.0697         0.466232   
     37. B(O  24,Zr  3)                  2.0735         0.459732   
     38. B(O  25,Zr  3)                  1.9680         0.677409   
     39. B(O  26,Zr  3)                  2.0386         0.522676   
     40. B(O  27,Zr  3)                  1.9781         0.652607   
     41. B(O  28,Zr  4)                  1.9688         0.675457   
     42. B(O  29,Zr  4)                  2.0665         0.471668   
     43. B(O  30,Zr  4)                  1.9757         0.658523   
     44. B(O  31,Zr  4)                  2.0439         0.512632   
     45. B(O  32,Zr  5)                  2.0378         0.524253   
     46. B(O  33,Zr  5)                  1.9756         0.658746   
     47. B(O  34,Zr  5)                  2.0719         0.462405   
     48. B(O  35,Zr  5)                  1.9709         0.670102   
     49. B(C  36,O  33)                  1.2981         0.784464   
     50. B(C  36,O  12)                  1.2980         0.784757   
     51. B(C  37,O  25)                  1.2981         0.784450   
     52. B(C  37,O  13)                  1.2983         0.783863   
     53. B(C  38,O  21)                  1.2966         0.788710   
     54. B(C  38,O  14)                  1.2985         0.783202   
     55. B(C  39,O  29)                  1.2990         0.781666   
     56. B(C  39,O  15)                  1.2970         0.787543   
     57. B(C  40,O  34)                  1.2993         0.780944   
     58. B(C  40,O  16)                  1.2971         0.787331   
     59. B(C  41,O  17)                  1.2990         0.781619   
     60. B(C  41,O  26)                  1.2969         0.787679   
     61. B(C  42,O  22)                  1.2978         0.785164   
     62. B(C  42,O  18)                  1.2980         0.784549   
     63. B(C  43,O  19)                  1.2981         0.784406   
     64. B(C  43,O  30)                  1.2982         0.784014   
     65. B(C  44,O  35)                  1.2981         0.784429   
     66. B(C  44,O  20)                  1.2981         0.784410   
     67. B(C  45,O  31)                  1.2974         0.786328   
     68. B(C  45,O  23)                  1.2992         0.781023   
     69. B(C  46,O  24)                  1.2992         0.781062   
     70. B(C  46,O  32)                  1.2971         0.787224   
     71. B(C  47,O  28)                  1.2981         0.784374   
     72. B(C  47,O  27)                  1.2983         0.783685   
     73. B(H  48,C  41)                  1.0867         0.364446   
     74. B(H  49,C  42)                  1.0899         0.360181   
     75. B(H  50,C  38)                  1.0864         0.364917   
     76. B(H  51,C  37)                  1.0899         0.360221   
     77. B(H  52,C  43)                  1.0899         0.360250   
     78. B(H  53,C  47)                  1.0899         0.360246   
     79. B(H  54,C  39)                  1.0868         0.364320   
     80. B(H  55,C  45)                  1.0870         0.364107   
     81. B(H  56,C  40)                  1.0868         0.364317   
     82. B(H  57,C  46)                  1.0867         0.364435   
     83. B(H  58,C  36)                  1.0898         0.360342   
     84. B(H  59,C  44)                  1.0899         0.360245   
     85. B(Al 61,Al 60)                  3.1381         0.049888   
     86. B(Al 61,O  23)                  3.2345         0.010000   
     87. B(Al 61,O  21)                  3.2293         0.010000   
     88. B(Al 62,Al 61)                  3.2326         0.035243   
     89. B(Al 62,Al 60)                  2.6933         0.255612   
     90. B(Al 62,O  22)                  3.2525         0.010000   
     91. B(Al 63,Al 62)                  3.2336         0.035117   
     92. B(Al 63,Al 60)                  3.1540         0.047058   
     93. B(Al 64,O  20)                  3.0996         0.010000   
     94. B(Al 64,Al 62)                  3.2868         0.028889   
     95. B(Al 64,O  22)                  3.1316         0.010000   
     96. B(Al 65,Al 64)                  3.2942         0.028114   
     97. B(Al 65,Al 61)                  3.2683         0.030912   
     98. B(Al 66,Al 64)                  3.2877         0.028790   
     99. B(Al 66,Al 63)                  3.2658         0.031202   
    100. B(Al 67,Al 66)                  3.2392         0.034400   
    101. B(Al 67,Al 65)                  3.2278         0.035882   
    102. B(Al 67,Al 64)                  3.1524         0.047320   
    103. B(H  68,Al 67)                  1.5954         0.394215   
    104. B(H  69,Al 67)                  1.6751         0.294144   
    105. B(H  69,Al 64)                  1.6772         0.291805   
    106. B(H  69,H  59)                  2.9430         0.010000   
    107. B(H  70,Al 67)                  1.6763         0.292824   
    108. B(H  70,Al 66)                  1.6809         0.287900   
    109. B(H  71,Al 67)                  1.6742         0.295129   
    110. B(H  71,Al 65)                  1.6777         0.291269   
    111. B(H  72,Al 65)                  1.5993         0.388588   
    112. B(H  73,Al 65)                  1.6004         0.386963   
    113. B(H  73,H  59)                  3.1186         0.010000   
    114. B(H  73,C  44)                  3.0503         0.010000   
    115. B(H  73,O  20)                  2.6652         0.010000   
    116. B(H  73,O  21)                  2.5405         0.010000   
    117. B(H  74,Al 65)                  1.6753         0.293894   
    118. B(H  74,Al 61)                  1.6703         0.299378   
    119. B(H  74,C  38)                  3.2333         0.010000   
    120. B(H  74,H  50)                  2.9560         0.010000   
    121. B(H  74,O  21)                  2.6091         0.010000   
    122. B(H  75,Al 61)                  1.5955         0.394012   
    123. B(H  75,C  38)                  3.2512         0.010000   
    124. B(H  75,H  55)                  3.1594         0.010000   
    125. B(H  75,O  23)                  3.0918         0.010000   
    126. B(H  75,H  50)                  2.9093         0.010000   
    127. B(H  76,Al 65)                  1.6758         0.293324   
    128. B(H  76,Al 64)                  1.6827         0.286052   
    129. B(H  76,O  20)                  2.6523         0.010000   
    130. B(H  77,Al 62)                  1.6947         0.273670   
    131. B(H  77,Al 61)                  1.6748         0.294420   
    132. B(H  77,C  45)                  3.2121         0.010000   
    133. B(H  77,O  22)                  3.2105         0.010000   
    134. B(H  77,H  55)                  2.9294         0.010000   
    135. B(H  77,O  23)                  2.6496         0.010000   
    136. B(H  78,Al 64)                  1.6695         0.300205   
    137. B(H  78,Al 62)                  1.6857         0.282877   
    138. B(H  78,C  42)                  3.1178         0.010000   
    139. B(H  78,H  49)                  2.8400         0.010000   
    140. B(H  78,O  22)                  2.5215         0.010000   
    141. B(H  79,Al 62)                  1.6124         0.370337   
    142. B(H  79,C  42)                  3.1316         0.010000   
    143. B(H  79,H  55)                  2.9969         0.010000   
    144. B(H  79,O  22)                  2.9372         0.010000   
    145. B(H  79,H  49)                  2.8491         0.010000   
    146. B(H  80,Al 63)                  1.6761         0.293072   
    147. B(H  80,Al 62)                  1.6972         0.271192   
    148. B(H  81,Al 66)                  1.6773         0.291765   
    149. B(H  81,Al 63)                  1.6716         0.297945   
    150. B(H  82,Al 63)                  1.5951         0.394544   
    151. B(H  83,Al 66)                  1.5996         0.388077   
    152. B(H  84,Al 64)                  1.6092         0.374643   
    153. B(H  84,H  59)                  3.2449         0.010000   
    154. B(H  84,C  42)                  2.9865         0.010000   
    155. B(H  84,H  49)                  2.9042         0.010000   
    156. B(H  84,O  20)                  2.8933         0.010000   
    157. B(H  84,O  22)                  2.8105         0.010000   
    158. B(H  85,Al 66)                  1.6715         0.298045   
    159. B(H  85,Al 64)                  1.6749         0.294328   
    160. B(H  86,Al 60)                  1.6130         0.369442   
    161. B(H  87,Al 60)                  1.6925         0.275864   
    162. B(H  87,Al 61)                  1.6746         0.294692   
    163. B(H  88,Al 63)                  1.6758         0.293409   
    164. B(H  88,Al 60)                  1.6933         0.275130   
    165. B(H  89,Al 62)                  1.6941         0.274260   
    166. B(H  89,Al 60)                  1.6892         0.279278   
    167. B(H  90,Al 66)                  1.5996         0.388169   
    168. B(H  91,Al 62)                  1.6935         0.274910   
    169. B(H  91,Al 60)                  1.6885         0.279938   
    170. A(O  13,Zr  0,O  15)           82.5543         0.532351   
    171. A(O  11,Zr  0,O  14)           70.9982         0.466127   
    172. A(O  12,Zr  0,O  14)           81.1110         0.524031   
    173. A(O   9,Zr  0,O  11)           92.1596         0.446707   
    174. A(O  11,Zr  0,O  12)           82.7376         0.498836   
    175. A(Zr  3,Zr  0,O  15)           98.7913         0.347333   
    176. A(Zr  3,Zr  0,O  12)          126.4098         0.362704   
    177. A(O   6,Zr  0,O  12)           94.4937         0.514016   
    178. A(Zr  5,Zr  0,O  14)          103.9794         0.340503   
    179. A(O   6,Zr  0,O  13)           82.9710         0.511290   
    180. A(O   9,Zr  0,O  12)          161.7027         0.501630   
    181. A(Zr  3,Zr  0,Zr  5)           70.3131         0.247235   
    182. A(Zr  3,Zr  0,O   9)           35.7585         0.327890   
    183. A(O  14,Zr  0,O  15)           74.5065         0.499601   
    184. A(O  13,Zr  0,O  14)          136.8356         0.521241   
    185. A(O   6,Zr  0,O   9)           67.4238         0.459957   
    186. A(Zr  5,Zr  0,O  13)          109.9621         0.360563   
    187. A(Zr  5,Zr  0,O  12)           74.4936         0.362316   
    188. A(O   6,Zr  0,O  14)          138.0246         0.480096   
    189. A(O   9,Zr  0,O  13)           91.6095         0.498983   
    190. A(Zr  5,Zr  0,O   6)           36.3499         0.334713   
    191. A(O  12,Zr  0,O  13)           83.0461         0.558730   
    192. A(Zr  3,Zr  0,O   6)           36.6562         0.335061   
    193. A(O   9,Zr  0,O  14)          113.9085         0.468698   
    194. A(O  12,Zr  0,O  15)          125.0513         0.535213   
    195. A(Zr  3,Zr  0,O  11)           90.9202         0.326273   
    196. A(O  11,Zr  0,O  13)          145.5011         0.496208   
    197. A(O   6,Zr  0,O  11)           67.0400         0.457445   
    198. A(Zr  5,Zr  0,O   9)           91.1085         0.327552   
    199. A(Zr  5,Zr  0,O  11)           35.6936         0.325937   
    200. A(Zr  3,Zr  0,O  13)           72.8858         0.360948   
    201. A(Zr  3,Zr  0,O  14)          145.7582         0.340859   
    202. A(O   6,Zr  0,O  15)          135.4423         0.490148   
    203. A(Zr  5,Zr  0,O  15)          158.9163         0.346967   
    204. A(O  11,Zr  0,O  15)          130.8275         0.475821   
    205. A(O   9,Zr  0,O  15)           71.1237         0.478457   
    206. A(O  16,Zr  1,O  19)          124.6894         0.535149   
    207. A(O  10,Zr  1,O  16)          132.0778         0.474341   
    208. A(Zr  2,Zr  1,O   8)           35.6519         0.329339   
    209. A(Zr  2,Zr  1,O  17)          144.3171         0.341829   
    210. A(Zr  4,Zr  1,O  18)          108.7109         0.361484   
    211. A(Zr  2,Zr  1,O  19)          127.4775         0.363545   
    212. A(O   7,Zr  1,O  18)           82.4615         0.512079   
    213. A(Zr  4,Zr  1,O   8)           90.9665         0.328752   
    214. A(O   7,Zr  1,O  10)           67.0152         0.456281   
    215. A(Zr  4,Zr  1,O  10)           35.8784         0.325547   
    216. A(Zr  2,Zr  1,O   7)           36.5845         0.336190   
    217. A(Zr  4,Zr  1,O  16)          159.5374         0.347712   
    218. A(O   8,Zr  1,O  18)           92.6320         0.500354   
    219. A(O   7,Zr  1,O  17)          137.9829         0.480603   
    220. A(Zr  2,Zr  1,Zr  4)           70.0107         0.248202   
    221. A(Zr  4,Zr  1,O  17)          104.5918         0.341211   
    222. A(O  16,Zr  1,O  18)           82.5929         0.532883   
    223. A(O  16,Zr  1,O  17)           74.7536         0.499859   
    224. A(O   7,Zr  1,O  19)           95.2156         0.514240   
    225. A(O   8,Zr  1,O  16)           71.0885         0.479563   
    226. A(O   8,Zr  1,O  10)           92.1713         0.446102   
    227. A(O  10,Zr  1,O  17)           71.0510         0.464659   
    228. A(O  17,Zr  1,O  19)           81.3311         0.523940   
    229. A(Zr  2,Zr  1,O  16)           98.2785         0.348345   
    230. A(O   7,Zr  1,O  16)          134.8613         0.490696   
    231. A(O   8,Zr  1,O  17)          112.4773         0.469750   
    232. A(O  18,Zr  1,O  19)           82.9406         0.558900   
    233. A(O   8,Zr  1,O  19)          162.4873         0.502454   
    234. A(O  10,Zr  1,O  18)          144.3395         0.494854   
    235. A(Zr  2,Zr  1,O  10)           90.7600         0.326126   
    236. A(Zr  4,Zr  1,O   7)           36.1251         0.335587   
    237. A(Zr  4,Zr  1,O  19)           74.6088         0.362875   
    238. A(O  17,Zr  1,O  18)          137.5929         0.521730   
    239. A(O  10,Zr  1,O  19)           81.9861         0.496927   
    240. A(Zr  2,Zr  1,O  18)           73.4362         0.362151   
    241. A(O   7,Zr  1,O   8)           67.3581         0.461258   
    242. A(Zr  1,Zr  2,O  11)           91.4872         0.330336   
    243. A(Zr  5,Zr  2,O  11)           35.7711         0.331054   
    244. A(O   7,Zr  2,O  21)          132.5898         0.477255   
    245. A(Zr  1,Zr  2,O  21)          160.0174         0.348579   
    246. A(Zr  5,Zr  2,O   7)           91.5541         0.328413   
    247. A(Zr  1,Zr  2,O   8)           36.3391         0.336410   
    248. A(O   8,Zr  2,O  11)           67.5667         0.463136   
    249. A(Zr  1,Zr  2,O  22)           74.3801         0.364340   
    250. A(Zr  5,Zr  2,O  20)           72.8916         0.363323   
    251. A(O   8,Zr  2,O  20)           82.4484         0.513014   
    252. A(O  20,Zr  2,O  22)           83.4586         0.560880   
    253. A(O  21,Zr  2,O  22)          124.3976         0.536844   
    254. A(Zr  1,Zr  2,Zr  5)           70.5301         0.249067   
    255. A(O  21,Zr  2,O  23)           74.8058         0.499877   
    256. A(O   7,Zr  2,O  11)           93.0554         0.449969   
    257. A(O  20,Zr  2,O  23)          137.3266         0.521928   
    258. A(O   7,Zr  2,O  22)           81.3053         0.500829   
    259. A(O  11,Zr  2,O  21)           71.0850         0.481537   
    260. A(O  22,Zr  2,O  23)           80.8127         0.524824   
    261. A(O   7,Zr  2,O   8)           67.2259         0.459055   
    262. A(O  11,Zr  2,O  23)          112.9148         0.471002   
    263. A(Zr  5,Zr  2,O  22)          127.5996         0.365159   
    264. A(Zr  5,Zr  2,O  23)          144.9942         0.342363   
    265. A(Zr  1,Zr  2,O   7)           35.7531         0.327703   
    266. A(Zr  5,Zr  2,O  21)           98.2466         0.349351   
    267. A(Zr  5,Zr  2,O   8)           36.7890         0.337146   
    268. A(O   7,Zr  2,O  20)          144.3900         0.498092   
    269. A(Zr  1,Zr  2,O  23)          104.5503         0.341612   
    270. A(O  11,Zr  2,O  22)          162.7458         0.505371   
    271. A(O   8,Zr  2,O  22)           95.2776         0.515851   
    272. A(O   7,Zr  2,O  23)           71.0857         0.466834   
    273. A(O   8,Zr  2,O  21)          135.0344         0.491417   
    274. A(O   8,Zr  2,O  23)          138.2277         0.480616   
    275. A(Zr  1,Zr  2,O  20)          108.9249         0.362510   
    276. A(O  11,Zr  2,O  20)           92.0940         0.502604   
    277. A(O  20,Zr  2,O  21)           82.1565         0.533868   
    278. A(Zr  0,Zr  3,O  24)          104.1413         0.339915   
    279. A(O   6,Zr  3,O  10)           92.6840         0.447507   
    280. A(Zr  0,Zr  3,O  10)           91.3497         0.328954   
    281. A(O  24,Zr  3,O  25)           81.2697         0.522749   
    282. A(Zr  0,Zr  3,Zr  4)           70.5112         0.247175   
    283. A(O  24,Zr  3,O  26)           74.5725         0.498024   
    284. A(O   9,Zr  3,O  10)           67.4405         0.460370   
    285. A(O   6,Zr  3,O  26)          131.8629         0.474932   
    286. A(O   9,Zr  3,O  26)          135.2869         0.488778   
    287. A(O   9,Zr  3,O  25)           95.3500         0.512944   
    288. A(Zr  4,Zr  3,O  10)           35.6397         0.328523   
    289. A(O  25,Zr  3,O  26)          124.1285         0.535532   
    290. A(O  26,Zr  3,O  27)           82.5840         0.531778   
    291. A(O  10,Zr  3,O  24)          112.8765         0.468959   
    292. A(O   9,Zr  3,O  27)           82.4008         0.509380   
    293. A(O   6,Zr  3,O  27)          144.5862         0.494820   
    294. A(Zr  0,Zr  3,O  27)          109.0666         0.360621   
    295. A(Zr  4,Zr  3,O   6)           91.2883         0.325324   
    296. A(Zr  4,Zr  3,O  26)           98.5195         0.346846   
    297. A(Zr  0,Zr  3,O  26)          159.6908         0.347309   
    298. A(O   6,Zr  3,O   9)           67.1543         0.455410   
    299. A(Zr  4,Zr  3,O   9)           36.7675         0.333803   
    300. A(O   6,Zr  3,O  25)           82.2770         0.498261   
    301. A(Zr  0,Zr  3,O  25)           74.8234         0.362924   
    302. A(Zr  0,Zr  3,O   9)           36.3808         0.334243   
    303. A(O  10,Zr  3,O  25)          162.6102         0.503801   
    304. A(O   6,Zr  3,O  24)           70.7667         0.463884   
    305. A(Zr  4,Zr  3,O  24)          144.6987         0.339465   
    306. A(Zr  0,Zr  3,O   6)           35.7386         0.325749   
    307. A(Zr  4,Zr  3,O  25)          127.4529         0.362432   
    308. A(O  10,Zr  3,O  27)           91.8334         0.500314   
    309. A(O  10,Zr  3,O  26)           71.2366         0.480156   
    310. A(O  25,Zr  3,O  27)           83.0442         0.558543   
    311. A(Zr  4,Zr  3,O  27)           72.7645         0.360134   
    312. A(O  24,Zr  3,O  27)          137.8137         0.519103   
    313. A(O   9,Zr  3,O  24)          137.8465         0.477334   
    314. A(Zr  1,Zr  4,O  29)          143.6365         0.341657   
    315. A(Zr  3,Zr  4,O  29)          104.9958         0.340922   
    316. A(O  10,Zr  4,O  28)           95.9716         0.512951   
    317. A(O  10,Zr  4,O  30)           82.1969         0.510521   
    318. A(O  28,Zr  4,O  30)           83.1699         0.559196   
    319. A(O  28,Zr  4,O  29)           81.4701         0.524988   
    320. A(O   9,Zr  4,O  29)           71.1929         0.464677   
    321. A(O   9,Zr  4,O  30)          143.7468         0.494153   
    322. A(O   9,Zr  4,O  31)          132.8362         0.471826   
    323. A(Zr  1,Zr  4,O  31)           97.7406         0.346465   
    324. A(O  29,Zr  4,O  30)          138.0371         0.522490   
    325. A(O   7,Zr  4,O  28)          163.2476         0.504575   
    326. A(Zr  3,Zr  4,O  30)          108.2254         0.360688   
    327. A(O   7,Zr  4,O  30)           92.7800         0.502194   
    328. A(Zr  1,Zr  4,O  30)           73.2165         0.361481   
    329. A(O  10,Zr  4,O  29)          138.0805         0.479855   
    330. A(O   7,Zr  4,O  29)          111.5805         0.472133   
    331. A(Zr  1,Zr  4,O   7)           35.5676         0.329828   
    332. A(O   7,Zr  4,O   9)           92.6279         0.447088   
    333. A(O   9,Zr  4,O  28)           81.4660         0.496488   
    334. A(Zr  3,Zr  4,O  28)           74.8720         0.362254   
    335. A(Zr  3,Zr  4,O   9)           35.8396         0.324454   
    336. A(Zr  1,Zr  4,O   9)           91.2865         0.325141   
    337. A(Zr  3,Zr  4,O   7)           91.1364         0.329127   
    338. A(Zr  1,Zr  4,O  10)           36.7827         0.334681   
    339. A(O  29,Zr  4,O  31)           74.5878         0.498601   
    340. A(O  28,Zr  4,O  31)          124.2200         0.533284   
    341. A(O   7,Zr  4,O  10)           67.3327         0.461555   
    342. A(O  10,Zr  4,O  31)          134.5199         0.487292   
    343. A(Zr  3,Zr  4,O  31)          159.8567         0.345716   
    344. A(O   7,Zr  4,O  31)           70.9535         0.479424   
    345. A(Zr  1,Zr  4,O  28)          128.4022         0.363051   
    346. A(O   9,Zr  4,O  10)           67.0767         0.454305   
    347. A(Zr  1,Zr  4,Zr  3)           70.3529         0.247352   
    348. A(Zr  3,Zr  4,O  10)           36.1701         0.333967   
    349. A(O  30,Zr  4,O  31)           82.5132         0.530739   
    350. A(O  11,Zr  5,O  32)          134.5888         0.490194   
    351. A(Zr  2,Zr  5,O  33)          108.5470         0.362981   
    352. A(O  34,Zr  5,O  35)           81.0212         0.522254   
    353. A(O  33,Zr  5,O  35)           82.9301         0.558386   
    354. A(O  32,Zr  5,O  35)          124.3040         0.534741   
    355. A(O  33,Zr  5,O  34)          137.7003         0.520581   
    356. A(O   8,Zr  5,O  35)           81.8724         0.497613   
    357. A(O   6,Zr  5,O  32)           70.9887         0.478189   
    358. A(O   6,Zr  5,O  35)          163.0273         0.500423   
    359. A(O  32,Zr  5,O  34)           74.6860         0.498841   
    360. A(O  11,Zr  5,O  34)          138.0591         0.478956   
    361. A(O   6,Zr  5,O  34)          112.3757         0.467287   
    362. A(O  11,Zr  5,O  33)           82.3360         0.511476   
    363. A(Zr  2,Zr  5,O   6)           91.0130         0.329148   
    364. A(O   8,Zr  5,O  33)          144.0875         0.496035   
    365. A(O   6,Zr  5,O  33)           92.7016         0.498834   
    366. A(O  32,Zr  5,O  33)           82.8231         0.533020   
    367. A(Zr  0,Zr  5,O  33)           73.2469         0.360812   
    368. A(Zr  0,Zr  5,Zr  2)           70.2487         0.248272   
    369. A(O   8,Zr  5,O  34)           70.9914         0.464703   
    370. A(Zr  0,Zr  5,O  32)           98.0436         0.347120   
    371. A(Zr  0,Zr  5,O  11)           36.5453         0.334596   
    372. A(Zr  0,Zr  5,O  35)          128.0528         0.361865   
    373. A(O   6,Zr  5,O   8)           92.4852         0.445772   
    374. A(Zr  2,Zr  5,O  35)           75.0196         0.364043   
    375. A(Zr  2,Zr  5,O   8)           35.8419         0.327508   
    376. A(O   8,Zr  5,O  11)           67.1890         0.456777   
    377. A(Zr  0,Zr  5,O   6)           35.6201         0.327247   
    378. A(O   6,Zr  5,O  11)           67.1515         0.459306   
    379. A(Zr  2,Zr  5,O  11)           36.3048         0.336555   
    380. A(O   8,Zr  5,O  32)          132.1715         0.475531   
    381. A(Zr  2,Zr  5,O  32)          159.4681         0.349179   
    382. A(Zr  0,Zr  5,O  34)          144.3305         0.339889   
    383. A(O  11,Zr  5,O  35)           95.9617         0.513114   
    384. A(Zr  2,Zr  5,O  34)          104.6191         0.341891   
    385. A(Zr  0,Zr  5,O   8)           91.2052         0.325620   
    386. A(Zr  0,O   6,Zr  5)          108.0300         0.459482   
    387. A(Zr  3,O   6,Zr  5)          134.3052         0.445461   
    388. A(Zr  0,O   6,Zr  3)          107.6052         0.456632   
    389. A(Zr  2,O   7,Zr  4)          133.9817         0.450090   
    390. A(Zr  1,O   7,Zr  4)          108.3074         0.462928   
    391. A(Zr  1,O   7,Zr  2)          107.6624         0.458725   
    392. A(Zr  1,O   8,Zr  2)          108.0090         0.461590   
    393. A(Zr  1,O   8,Zr  5)          134.8430         0.447118   
    394. A(Zr  2,O   8,Zr  5)          107.3690         0.457655   
    395. A(Zr  0,O   9,Zr  4)          134.8085         0.444604   
    396. A(Zr  3,O   9,Zr  4)          107.3929         0.454061   
    397. A(Zr  0,O   9,Zr  3)          107.8607         0.458723   
    398. A(Zr  1,O  10,Zr  3)          134.6928         0.446802   
    399. A(Zr  3,O  10,Zr  4)          108.1902         0.460618   
    400. A(Zr  1,O  10,Zr  4)          107.3390         0.454933   
    401. A(Zr  0,O  11,Zr  2)          134.5516         0.449086   
    402. A(Zr  2,O  11,Zr  5)          107.9241         0.462245   
    403. A(Zr  0,O  11,Zr  5)          107.7611         0.457270   
    404. A(Zr  0,O  12,C  36)          131.6203         0.511521   
    405. A(Zr  0,O  13,C  37)          133.5115         0.508703   
    406. A(Zr  0,O  14,C  38)          140.0939         0.477625   
    407. A(Zr  0,O  15,C  39)          129.0031         0.488113   
    408. A(Zr  1,O  16,C  40)          129.0096         0.488228   
    409. A(Zr  1,O  17,C  41)          140.1975         0.477556   
    410. A(Zr  1,O  18,C  42)          132.7603         0.509143   
    411. A(Zr  1,O  19,C  43)          131.3941         0.511271   
    412. A(Zr  2,O  20,Al 64)          108.1267         0.254838   
    413. A(C  44,O  20,Al 64)          114.8112         0.237833   
    414. A(Zr  2,O  20,C  44)          133.7153         0.509679   
    415. A(Zr  2,O  21,C  38)          129.9457         0.488746   
    416. A(C  38,O  21,Al 61)           98.0714         0.222778   
    417. A(Zr  2,O  21,Al 61)          107.4686         0.230295   
    418. A(C  42,O  22,Al 64)          108.4733         0.233947   
    419. A(C  42,O  22,Al 62)          106.5427         0.220093   
    420. A(Zr  2,O  22,Al 62)          118.4924         0.236016   
    421. A(Al 62,O  22,Al 64)           61.9388         0.139308   
    422. A(Zr  2,O  22,Al 64)          107.1887         0.251553   
    423. A(Zr  2,O  22,C  42)          131.8029         0.512586   
    424. A(C  45,O  23,Al 61)          112.2639         0.221903   
    425. A(Zr  2,O  23,Al 61)          106.4037         0.225907   
    426. A(Zr  2,O  23,C  45)          139.3743         0.477156   
    427. A(Zr  3,O  24,C  46)          140.2270         0.475929   
    428. A(Zr  3,O  25,C  37)          131.0306         0.511824   
    429. A(Zr  3,O  26,C  41)          129.1670         0.488092   
    430. A(Zr  3,O  27,C  47)          133.5926         0.508177   
    431. A(Zr  4,O  28,C  47)          130.8828         0.511538   
    432. A(Zr  4,O  29,C  39)          140.2019         0.478248   
    433. A(Zr  4,O  30,C  43)          133.1908         0.509074   
    434. A(Zr  4,O  31,C  45)          128.3473         0.486189   
    435. A(Zr  5,O  32,C  46)          128.9257         0.488312   
    436. A(Zr  5,O  33,C  36)          133.1471         0.509160   
    437. A(Zr  5,O  34,C  40)          139.6982         0.476423   
    438. A(Zr  5,O  35,C  44)          130.7129         0.510785   
    439. A(O  12,C  36,H  58)          116.2789         0.365119   
    440. A(O  12,C  36,O  33)          127.4729         0.466587   
    441. A(O  33,C  36,H  58)          116.2481         0.365095   
    442. A(O  13,C  37,O  25)          127.4537         0.466488   
    443. A(O  25,C  37,H  51)          116.2902         0.365073   
    444. A(O  13,C  37,H  51)          116.2560         0.365027   
    445. A(O  14,C  38,H  50)          115.3253         0.365784   
    446. A(O  14,C  38,O  21)          129.3048         0.466879   
    447. A(O  21,C  38,H  50)          115.3699         0.366224   
    448. A(O  15,C  39,O  29)          129.2421         0.466585   
    449. A(O  15,C  39,H  54)          115.3671         0.366028   
    450. A(O  29,C  39,H  54)          115.3902         0.365559   
    451. A(O  16,C  40,H  56)          115.3200         0.366010   
    452. A(O  34,C  40,H  56)          115.3925         0.365500   
    453. A(O  16,C  40,O  34)          129.2869         0.466483   
    454. A(O  17,C  41,O  26)          129.3040         0.466594   
    455. A(O  17,C  41,H  48)          115.3675         0.365576   
    456. A(O  26,C  41,H  48)          115.3280         0.366060   
    457. A(O  18,C  42,O  22)          127.4127         0.466641   
    458. A(O  22,C  42,H  49)          116.3331         0.365123   
    459. A(O  18,C  42,H  49)          116.2541         0.365074   
    460. A(O  30,C  43,H  52)          116.2444         0.365044   
    461. A(O  19,C  43,H  52)          116.2737         0.365075   
    462. A(O  19,C  43,O  30)          127.4816         0.466500   
    463. A(O  20,C  44,H  59)          116.3106         0.365074   
    464. A(O  20,C  44,O  35)          127.3657         0.466545   
    465. A(O  35,C  44,H  59)          116.3233         0.365076   
    466. A(O  31,C  45,H  55)          115.3552         0.365894   
    467. A(O  23,C  45,H  55)          115.4162         0.365470   
    468. A(O  23,C  45,O  31)          129.2278         0.466382   
    469. A(O  32,C  46,H  57)          115.3241         0.366022   
    470. A(O  24,C  46,H  57)          115.3560         0.365530   
    471. A(O  24,C  46,O  32)          129.3197         0.466484   
    472. A(O  27,C  47,O  28)          127.4780         0.466460   
    473. A(O  28,C  47,H  53)          116.2760         0.365072   
    474. A(O  27,C  47,H  53)          116.2459         0.365017   
    475. A(H  88,Al 60,H  89)           89.7662         0.339104   
    476. A(H  87,Al 60,H  89)           90.3441         0.339255   
    477. A(H  86,Al 60,H  89)          140.5154         0.356358   
    478. A(Al 63,Al 60,H  89)           77.9137         0.293566   
    479. A(Al 62,Al 60,H  89)           37.3089         0.389040   
    480. A(Al 61,Al 60,H  89)           77.8102         0.296288   
    481. A(H  87,Al 60,H  88)          168.7055         0.338408   
    482. A(H  86,Al 60,H  88)           93.4842         0.355454   
    483. A(Al 62,Al 60,H  88)           86.1423         0.388026   
    484. A(Al 61,Al 60,H  88)          149.1614         0.295587   
    485. A(Al 63,Al 60,H  87)          149.7347         0.292997   
    486. A(Al 61,Al 60,H  87)           21.1366         0.295711   
    487. A(Al 63,Al 60,H  86)          113.2484         0.306939   
    488. A(Al 61,Al 60,H  86)          114.0935         0.309839   
    489. A(H  88,Al 60,H  91)           84.3587         0.339237   
    490. A(H  86,Al 60,H  87)           93.6049         0.355615   
    491. A(Al 62,Al 60,H  87)           87.1072         0.388206   
    492. A(Al 62,Al 60,Al 63)           66.6082         0.333580   
    493. A(Al 61,Al 60,Al 63)          128.9430         0.257972   
    494. A(Al 61,Al 60,Al 62)           66.8286         0.336835   
    495. A(Al 63,Al 60,H  88)           20.4714         0.292874   
    496. A(H  89,Al 60,H  91)           74.5884         0.340086   
    497. A(H  87,Al 60,H  91)           84.7841         0.339388   
    498. A(H  86,Al 60,H  91)          144.8930         0.356501   
    499. A(Al 63,Al 60,H  91)           65.2900         0.293675   
    500. A(Al 62,Al 60,H  91)           37.2801         0.389201   
    501. A(Al 61,Al 60,H  91)           65.2257         0.296398   
    502. A(H  75,Al 61,H  87)          122.1499         0.363602   
    503. A(H  74,Al 61,H  87)          107.4051         0.347050   
    504. A(Al 65,Al 61,H  87)           97.6376         0.277281   
    505. A(Al 62,Al 61,H  87)           70.6021         0.282953   
    506. A(Al 60,Al 61,H  87)           21.3745         0.298824   
    507. A(H  75,Al 61,H  77)          113.6120         0.363544   
    508. A(H  74,Al 61,H  77)          100.1136         0.346996   
    509. A(Al 65,Al 61,H  77)           92.1621         0.277242   
    510. A(Al 62,Al 61,H  77)           16.4870         0.282912   
    511. A(Al 60,Al 61,H  77)           66.1914         0.298780   
    512. A(H  74,Al 61,H  75)          120.0989         0.364584   
    513. A(Al 65,Al 61,H  75)          132.4098         0.290074   
    514. A(Al 62,Al 61,H  75)          125.8773         0.296132   
    515. A(Al 60,Al 61,H  75)          135.4740         0.313081   
    516. A(Al 65,Al 61,H  74)           12.3539         0.277955   
    517. A(Al 62,Al 61,H  74)           99.6079         0.283647   
    518. A(Al 60,Al 61,H  74)          102.7230         0.299574   
    519. A(O  23,Al 61,H  87)          138.5035         0.198788   
    520. A(H  77,Al 61,H  87)           86.3056         0.346076   
    521. A(Al 62,Al 61,Al 65)           89.3014         0.231020   
    522. A(Al 60,Al 61,Al 65)           90.8978         0.242641   
    523. A(Al 60,Al 61,Al 62)           49.9911         0.247270   
    524. A(O  21,Al 61,O  23)           45.4029         0.136081   
    525. A(O  23,Al 61,H  77)           54.7906         0.198765   
    526. A(O  23,Al 61,H  75)           70.4809         0.206248   
    527. A(O  23,Al 61,H  74)           94.4755         0.199181   
    528. A(O  23,Al 61,Al 65)           97.6694         0.169391   
    529. A(O  23,Al 61,Al 62)           71.2695         0.171813   
    530. A(O  23,Al 61,Al 60)          120.5101         0.178589   
    531. A(O  21,Al 61,H  87)          156.9367         0.199266   
    532. A(O  21,Al 61,H  77)           85.0142         0.199243   
    533. A(O  21,Al 61,H  75)           80.8726         0.206758   
    534. A(O  21,Al 61,H  74)           53.5406         0.199660   
    535. A(O  21,Al 61,Al 65)           61.4487         0.169741   
    536. A(O  21,Al 61,Al 62)           97.8874         0.172173   
    537. A(O  21,Al 61,Al 60)          139.7296         0.178979   
    538. A(H  80,Al 62,H  89)           86.9168         0.337268   
    539. A(H  79,Al 62,H  89)          105.8270         0.355409   
    540. A(H  78,Al 62,H  89)          149.3118         0.339650   
    541. A(Al 64,Al 62,H  89)          138.7936         0.271428   
    542. A(Al 63,Al 62,H  89)           75.4276         0.279669   
    543. A(Al 61,Al 62,H  89)           74.8755         0.279824   
    544. A(Al 60,Al 62,H  89)           37.1818         0.387812   
    545. A(H  79,Al 62,H  91)          174.5705         0.355552   
    546. A(O  22,Al 62,H  89)          154.6926         0.195418   
    547. A(H  79,Al 62,H  80)          108.3747         0.354732   
    548. A(H  78,Al 62,H  80)           78.4982         0.339013   
    549. A(H  77,Al 62,H  80)          153.8301         0.337147   
    550. A(Al 63,Al 62,H  80)           16.4367         0.279184   
    551. A(Al 61,Al 62,H  80)          138.6388         0.279339   
    552. A(Al 60,Al 62,H  80)           79.7899         0.387052   
    553. A(H  78,Al 62,H  79)          104.3664         0.357281   
    554. A(H  77,Al 62,H  79)           97.7935         0.355279   
    555. A(Al 64,Al 62,H  79)          115.3433         0.284260   
    556. A(Al 63,Al 62,H  79)          122.4309         0.293081   
    557. A(Al 61,Al 62,H  79)          112.2039         0.293247   
    558. A(Al 60,Al 62,H  79)          142.7672         0.408830   
    559. A(H  77,Al 62,H  78)           95.6165         0.339528   
    560. A(Al 64,Al 62,H  78)           11.5376         0.272710   
    561. A(Al 63,Al 62,H  78)           83.9174         0.281009   
    562. A(Al 61,Al 62,H  78)           98.6189         0.281165   
    563. A(Al 60,Al 62,H  78)          112.8663         0.389911   
    564. A(Al 64,Al 62,H  77)           90.3338         0.271339   
    565. A(Al 63,Al 62,H  77)          138.7101         0.279576   
    566. A(Al 61,Al 62,H  77)           16.2881         0.279731   
    567. A(Al 60,Al 62,H  77)           79.1606         0.387666   
    568. A(H  77,Al 62,H  89)           85.6645         0.337780   
    569. A(O  22,Al 62,H  77)           73.4350         0.195366   
    570. A(Al 63,Al 62,Al 64)           81.1418         0.228748   
    571. A(Al 61,Al 62,Al 64)           90.6800         0.228861   
    572. A(Al 60,Al 62,Al 64)          101.8268         0.308009   
    573. A(Al 61,Al 62,Al 63)          122.8168         0.235180   
    574. A(Al 60,Al 62,Al 63)           63.5339         0.317903   
    575. A(Al 60,Al 62,Al 61)           63.1803         0.318089   
    576. A(O  22,Al 62,H  91)          113.2473         0.195475   
    577. A(O  22,Al 62,H  80)          118.0588         0.195148   
    578. A(O  22,Al 62,H  79)           64.2839         0.202904   
    579. A(O  22,Al 62,H  78)           49.9055         0.196166   
    580. A(O  22,Al 62,Al 64)           57.2244         0.166997   
    581. A(O  22,Al 62,Al 63)          129.8361         0.170521   
    582. A(O  22,Al 62,Al 61)           87.2038         0.170587   
    583. A(O  22,Al 62,Al 60)          144.6801         0.216758   
    584. A(H  89,Al 62,H  91)           74.3343         0.338035   
    585. A(H  80,Al 62,H  91)           77.0478         0.337401   
    586. A(H  78,Al 62,H  91)           76.1354         0.339784   
    587. A(H  77,Al 62,H  91)           76.7859         0.337913   
    588. A(Al 64,Al 62,H  91)           64.8571         0.271526   
    589. A(Al 63,Al 62,H  91)           62.9654         0.279772   
    590. A(Al 61,Al 62,H  91)           62.4734         0.279926   
    591. A(Al 64,Al 62,H  80)           78.9533         0.270964   
    592. A(Al 60,Al 62,H  91)           37.1532         0.387972   
    593. A(H  81,Al 63,H  88)          100.6117         0.346515   
    594. A(H  80,Al 63,H  88)           85.7827         0.345556   
    595. A(Al 66,Al 63,H  88)           93.3261         0.277493   
    596. A(Al 62,Al 63,H  88)           69.7156         0.282604   
    597. A(Al 60,Al 63,H  88)           20.6951         0.295864   
    598. A(H  81,Al 63,H  82)          120.4179         0.364369   
    599. A(Al 66,Al 63,H  82)          133.1559         0.290562   
    600. A(Al 62,Al 63,H  82)          127.8930         0.296027   
    601. A(Al 60,Al 63,H  82)          130.7273         0.310206   
    602. A(H  80,Al 63,H  81)          109.7420         0.346448   
    603. A(Al 66,Al 63,H  81)           12.8098         0.278149   
    604. A(Al 62,Al 63,H  81)          107.4476         0.283278   
    605. A(Al 60,Al 63,H  81)           99.9058         0.296583   
    606. A(Al 66,Al 63,H  80)           98.9027         0.277444   
    607. A(Al 62,Al 63,H  80)           16.6498         0.282554   
    608. A(Al 60,Al 63,H  80)           66.3399         0.295810   
    609. A(Al 62,Al 63,Al 66)           95.0969         0.231205   
    610. A(Al 60,Al 63,Al 66)           89.3699         0.240945   
    611. A(H  80,Al 63,H  82)          117.4860         0.363343   
    612. A(Al 60,Al 63,Al 62)           49.8579         0.245065   
    613. A(H  82,Al 63,H  88)          116.4839         0.363415   
    614. A(H  84,Al 64,H  85)          124.4797         0.360411   
    615. A(H  76,Al 64,H  85)          106.9208         0.344333   
    616. A(H  69,Al 64,H  85)           81.6882         0.345486   
    617. A(Al 67,Al 64,H  85)           70.4481         0.296272   
    618. A(Al 65,Al 64,H  85)           98.0530         0.273229   
    619. A(Al 62,Al 64,H  85)           87.8759         0.274367   
    620. A(H  78,Al 64,H  84)          101.4467         0.361628   
    621. A(H  76,Al 64,H  84)          126.0645         0.358664   
    622. A(H  69,Al 64,H  84)           90.3757         0.359882   
    623. A(Al 67,Al 64,H  84)          110.2416         0.307905   
    624. A(Al 66,Al 64,H  84)          129.3909         0.284619   
    625. A(Al 65,Al 64,H  84)          131.6914         0.283570   
    626. A(Al 62,Al 64,H  84)          112.9398         0.284772   
    627. A(Al 66,Al 64,H  85)           10.7350         0.274223   
    628. A(O  20,Al 64,H  78)           97.6428         0.212343   
    629. A(H  76,Al 64,H  78)           89.9920         0.345478   
    630. A(H  69,Al 64,H  78)          167.9859         0.346636   
    631. A(H  78,Al 64,H  85)           93.1805         0.347139   
    632. A(Al 67,Al 64,H  78)          148.2700         0.297201   
    633. A(Al 66,Al 64,H  78)          100.4592         0.275053   
    634. A(Al 65,Al 64,H  78)           97.4496         0.274055   
    635. A(Al 62,Al 64,H  78)           11.6510         0.275199   
    636. A(H  69,Al 64,H  76)           81.2083         0.343835   
    637. A(Al 67,Al 64,H  76)           70.3088         0.294938   
    638. A(Al 66,Al 64,H  76)           98.8455         0.273031   
    639. A(Al 65,Al 64,H  76)           11.2090         0.272044   
    640. A(Al 62,Al 64,H  76)           81.6254         0.273174   
    641. A(Al 67,Al 64,H  69)           19.8719         0.295868   
    642. A(Al 66,Al 64,H  69)           73.0737         0.273862   
    643. A(Al 65,Al 64,H  69)           72.7042         0.272871   
    644. A(Al 62,Al 64,H  69)          156.3363         0.274006   
    645. A(Al 66,Al 64,Al 67)           60.3508         0.238391   
    646. A(Al 65,Al 64,Al 67)           60.0436         0.237590   
    647. A(O  22,Al 64,Al 67)          142.6315         0.185431   
    648. A(Al 62,Al 64,Al 67)          136.6715         0.238507   
    649. A(Al 65,Al 64,Al 66)           89.2392         0.221783   
    650. A(Al 62,Al 64,Al 66)           93.6778         0.222603   
    651. A(Al 62,Al 64,Al 65)           87.9359         0.221887   
    652. A(O  20,Al 64,O  22)           49.7780         0.146128   
    653. A(O  22,Al 64,H  85)          145.3862         0.208560   
    654. A(O  22,Al 64,H  78)           53.3857         0.209096   
    655. A(O  22,Al 64,H  76)           84.2060         0.207791   
    656. A(O  22,Al 64,H  69)          132.8696         0.208327   
    657. A(O  22,Al 64,Al 66)          153.7957         0.175173   
    658. A(O  22,Al 64,Al 65)           95.3717         0.174711   
    659. A(O  22,Al 64,Al 62)           60.8368         0.175240   
    660. A(O  20,Al 64,H  85)          161.8770         0.211792   
    661. A(O  20,Al 64,H  84)           67.4483         0.218684   
    662. A(O  20,Al 64,H  76)           58.7966         0.211002   
    663. A(O  20,Al 64,H  69)           84.8319         0.211553   
    664. A(O  20,Al 64,Al 67)           93.0576         0.188038   
    665. A(O  20,Al 64,Al 66)          151.1842         0.177502   
    666. A(O  20,Al 64,Al 65)           66.2218         0.177028   
    667. A(O  20,Al 64,Al 62)           99.9735         0.177571   
    668. A(O  22,Al 64,H  84)           63.4953         0.215271   
    669. A(H  74,Al 65,H  76)           89.5140         0.345702   
    670. A(H  73,Al 65,H  76)           93.2214         0.362194   
    671. A(H  72,Al 65,H  76)           93.7186         0.362453   
    672. A(H  71,Al 65,H  76)           82.7281         0.345181   
    673. A(Al 67,Al 65,H  76)           68.1159         0.283538   
    674. A(Al 64,Al 65,H  76)           11.2553         0.273087   
    675. A(Al 61,Al 65,H  76)           81.9138         0.277083   
    676. A(H  73,Al 65,H  74)           95.4225         0.362314   
    677. A(H  72,Al 65,H  74)           86.0827         0.362574   
    678. A(H  71,Al 65,H  74)          169.5384         0.345294   
    679. A(Al 67,Al 65,H  74)          154.3926         0.283623   
    680. A(Al 64,Al 65,H  74)           98.6855         0.273168   
    681. A(Al 61,Al 65,H  74)           12.3162         0.277165   
    682. A(H  72,Al 65,H  73)          172.9111         0.380150   
    683. A(H  71,Al 65,H  73)           92.0246         0.361760   
    684. A(Al 67,Al 65,H  73)           98.0364         0.296127   
    685. A(Al 64,Al 65,H  73)           98.7535         0.285000   
    686. A(Al 61,Al 65,H  73)          105.4209         0.289255   
    687. A(H  71,Al 65,H  72)           87.4232         0.362019   
    688. A(Al 67,Al 65,H  72)           83.2370         0.296324   
    689. A(Al 64,Al 65,H  72)           87.8428         0.285186   
    690. A(Al 61,Al 65,H  72)           77.0212         0.289445   
    691. A(Al 67,Al 65,H  71)           15.6255         0.283228   
    692. A(Al 64,Al 65,H  71)           72.8602         0.272794   
    693. A(Al 61,Al 65,H  71)          157.3032         0.276784   
    694. A(Al 64,Al 65,Al 67)           57.7993         0.228569   
    695. A(Al 61,Al 65,Al 67)          142.7827         0.231598   
    696. A(Al 61,Al 65,Al 64)           89.9239         0.223938   
    697. A(H  83,Al 66,H  85)           88.6741         0.363362   
    698. A(H  81,Al 66,H  85)           81.1337         0.346208   
    699. A(H  70,Al 66,H  85)           82.7650         0.345432   
    700. A(Al 67,Al 66,H  85)           67.8806         0.282388   
    701. A(Al 64,Al 66,H  85)           10.7572         0.274749   
    702. A(Al 63,Al 66,H  85)           71.8771         0.278163   
    703. A(H  81,Al 66,H  83)           92.3892         0.362043   
    704. A(H  70,Al 66,H  83)           92.1999         0.361220   
    705. A(Al 67,Al 66,H  83)           94.7277         0.294293   
    706. A(Al 64,Al 66,H  83)           93.1374         0.286185   
    707. A(Al 63,Al 66,H  83)          100.6682         0.289809   
    708. A(H  70,Al 66,H  81)          163.1416         0.344200   
    709. A(Al 67,Al 66,H  81)          147.9700         0.281458   
    710. A(Al 64,Al 66,H  81)           90.7261         0.273856   
    711. A(Al 63,Al 66,H  81)           12.7655         0.277254   
    712. A(Al 67,Al 66,H  70)           15.2127         0.280878   
    713. A(Al 64,Al 66,H  70)           72.8284         0.273299   
    714. A(Al 63,Al 66,H  70)          151.0907         0.276687   
    715. A(Al 64,Al 66,Al 67)           57.7558         0.227989   
    716. A(Al 63,Al 66,Al 67)          136.3338         0.230543   
    717. A(Al 63,Al 66,Al 64)           80.6506         0.224953   
    718. A(H  85,Al 66,H  90)           94.0531         0.363376   
    719. A(H  81,Al 66,H  90)           87.6257         0.362057   
    720. A(H  70,Al 66,H  90)           88.5614         0.361234   
    721. A(Al 67,Al 66,H  90)           86.6971         0.294304   
    722. A(Al 64,Al 66,H  90)           89.6210         0.286196   
    723. A(Al 63,Al 66,H  90)           79.8247         0.289820   
    724. A(H  70,Al 67,H  71)          110.4628         0.345846   
    725. A(H  69,Al 67,H  71)           87.9753         0.346108   
    726. A(H  68,Al 67,H  71)          121.0876         0.363726   
    727. A(Al 66,Al 67,H  71)          103.0961         0.281958   
    728. A(Al 65,Al 67,H  71)           15.6598         0.283808   
    729. A(Al 64,Al 67,H  71)           77.2373         0.296399   
    730. A(H  69,Al 67,H  70)           88.4751         0.345652   
    731. A(H  68,Al 67,H  70)          124.4387         0.363239   
    732. A(Al 66,Al 67,H  70)           15.2556         0.281616   
    733. A(Al 65,Al 67,H  70)          101.2005         0.283462   
    734. A(Al 64,Al 67,H  70)           77.0054         0.296031   
    735. A(H  68,Al 67,H  69)          111.4712         0.363518   
    736. A(Al 66,Al 67,H  69)           74.5701         0.281812   
    737. A(Al 65,Al 67,H  69)           74.7466         0.283661   
    738. A(Al 64,Al 67,H  69)           19.8988         0.296242   
    739. A(Al 66,Al 67,H  68)          135.2135         0.295024   
    740. A(Al 65,Al 67,H  68)          133.5111         0.296999   
    741. A(Al 64,Al 67,H  68)          131.3681         0.310443   
    742. A(Al 65,Al 67,Al 66)           91.2655         0.235091   
    743. A(Al 64,Al 67,Al 66)           61.8934         0.244534   
    744. A(Al 64,Al 67,Al 65)           62.1571         0.246025   
    745. A(Al 64,H  69,Al 67)          140.2293         0.345450   
    746. A(Al 66,H  70,Al 67)          149.5317         0.344409   
    747. A(Al 65,H  71,Al 67)          148.7146         0.345537   
    748. A(Al 61,H  74,Al 65)          155.3299         0.346892   
    749. A(Al 64,H  76,Al 65)          157.5357         0.344135   
    750. A(Al 61,H  77,Al 62)          147.2249         0.341806   
    751. A(Al 62,H  78,Al 64)          156.8114         0.344831   
    752. A(Al 62,H  80,Al 63)          146.9135         0.341024   
    753. A(Al 63,H  81,Al 66)          154.4247         0.346188   
    754. A(Al 64,H  85,Al 66)          158.5077         0.346717   
    755. A(Al 60,H  87,Al 61)          137.4889         0.342316   
    756. A(Al 60,H  88,Al 63)          138.8336         0.341914   
    757. A(Al 60,H  89,Al 62)          105.5093         0.338925   
    758. A(Al 60,H  91,Al 62)          105.5667         0.339192   
    759. D(Zr  5,Zr  2,Zr  1,Zr  4)    104.8838         0.010000   
    760. D(Zr  5,Zr  2,Zr  1,O   7)    122.7010         0.010000   
    761. D(O   7,Zr  2,Zr  1,Zr  4)    -17.8172         0.010000   
    762. D(Zr  4,Zr  3,Zr  0,Zr  5)   -104.3670         0.010000   
    763. D(Zr  4,Zr  3,Zr  0,O   6)   -122.1836         0.010000   
    764. D(O   6,Zr  3,Zr  0,Zr  5)     17.8166         0.010000   
    765. D(Zr  3,Zr  4,Zr  1,Zr  2)   -104.3567         0.010000   
    766. D(O   7,Zr  4,Zr  3,Zr  0)     75.3068         0.010000   
    767. D(O   7,Zr  4,Zr  1,Zr  2)     18.0190         0.010000   
    768. D(Zr  3,Zr  4,Zr  1,O   7)   -122.3757         0.010000   
    769. D(Zr  1,Zr  4,Zr  3,O   6)     75.1011         0.010000   
    770. D(Zr  1,Zr  4,Zr  3,Zr  0)    104.7356         0.010000   
    771. D(Zr  2,Zr  5,Zr  0,O   6)    122.2365         0.010000   
    772. D(O   6,Zr  5,Zr  0,Zr  3)    -17.9502         0.010000   
    773. D(Zr  2,Zr  5,Zr  0,Zr  3)    104.2863         0.010000   
    774. D(O   6,Zr  5,Zr  2,Zr  1)    -75.3761         0.010000   
    775. D(Zr  0,Zr  5,Zr  2,O   7)    -75.4316         0.010000   
    776. D(Zr  0,Zr  5,Zr  2,Zr  1)   -104.8948         0.010000   
    777. D(Zr  5,O   6,Zr  3,Zr  0)   -139.7716         0.010000   
    778. D(Zr  0,O   6,Zr  5,Zr  2)    -52.7702         0.010000   
    779. D(Zr  0,O   6,Zr  5,O   8)    -88.6001         0.010000   
    780. D(Zr  3,O   6,Zr  5,Zr  0)    139.6559         0.010000   
    781. D(Zr  3,O   6,Zr  0,O   9)    -24.0261         0.010000   
    782. D(Zr  3,O   6,Zr  0,Zr  5)   -150.9189         0.010000   
    783. D(Zr  0,O   6,Zr  3,O   9)     24.4616         0.010000   
    784. D(Zr  5,O   6,Zr  0,Zr  3)    150.9189         0.010000   
    785. D(Zr  0,O   6,Zr  3,Zr  4)     52.9450         0.010000   
    786. D(Zr  1,O   7,Zr  2,Zr  5)    -52.5301         0.010000   
    787. D(Zr  2,O   7,Zr  1,Zr  4)    150.8078         0.010000   
    788. D(Zr  4,O   7,Zr  1,Zr  2)   -150.8078         0.010000   
    789. D(Zr  1,O   7,Zr  2,O   8)    -24.2052         0.010000   
    790. D(Zr  2,O   7,Zr  1,O   8)     23.7597         0.010000   
    791. D(Zr  2,O   7,Zr  4,Zr  1)   -139.7684         0.010000   
    792. D(Zr  1,O   7,Zr  4,O   9)     88.5361         0.010000   
    793. D(Zr  1,O   7,Zr  4,Zr  3)     52.7065         0.010000   
    794. D(Zr  4,O   7,Zr  2,Zr  1)    139.9450         0.010000   
    795. D(Zr  1,O   8,Zr  2,Zr  5)    151.4746         0.010000   
    796. D(Zr  2,O   8,Zr  5,Zr  0)     52.6717         0.010000   
    797. D(Zr  1,O   8,Zr  5,Zr  2)   -140.1696         0.010000   
    798. D(Zr  5,O   8,Zr  2,Zr  1)   -151.4746         0.010000   
    799. D(Zr  1,O   8,Zr  5,Zr  0)    -87.4979         0.010000   
    800. D(Zr  2,O   8,Zr  1,O   7)    -24.3299         0.010000   
    801. D(Zr  5,O   8,Zr  1,Zr  2)    139.9989         0.010000   
    802. D(Zr  2,O   8,Zr  1,Zr  4)    -52.4035         0.010000   
    803. D(Zr  1,O   8,Zr  2,O   7)     23.8462         0.010000   
    804. D(Zr  3,O   9,Zr  0,Zr  5)     52.8817         0.010000   
    805. D(Zr  0,O   9,Zr  4,Zr  1)     87.0964         0.010000   
    806. D(Zr  4,O   9,Zr  3,Zr  0)    151.2633         0.010000   
    807. D(Zr  0,O   9,Zr  4,Zr  3)    139.8335         0.010000   
    808. D(Zr  3,O   9,Zr  0,O   6)     24.5798         0.010000   
    809. D(Zr  0,O   9,Zr  3,Zr  4)   -151.2633         0.010000   
    810. D(Zr  3,O   9,Zr  4,Zr  1)    -52.7371         0.010000   
    811. D(Zr  0,O   9,Zr  3,O   6)    -24.0641         0.010000   
    812. D(Zr  4,O   9,Zr  0,Zr  3)   -139.7078         0.010000   
    813. D(Zr  1,O  10,Zr  4,O   7)    -23.9966         0.010000   
    814. D(Zr  1,O  10,Zr  4,Zr  3)   -151.4180         0.010000   
    815. D(Zr  4,O  10,Zr  3,Zr  0)    -52.7294         0.010000   
    816. D(Zr  1,O  10,Zr  3,Zr  4)    140.0288         0.010000   
    817. D(Zr  1,O  10,Zr  3,Zr  0)     87.2994         0.010000   
    818. D(Zr  4,O  10,Zr  1,Zr  2)     53.0098         0.010000   
    819. D(Zr  3,O  10,Zr  1,Zr  4)   -140.2565         0.010000   
    820. D(Zr  3,O  10,Zr  1,Zr  2)    -87.2467         0.010000   
    821. D(Zr  3,O  10,Zr  4,Zr  1)    151.4180         0.010000   
    822. D(Zr  2,O  11,Zr  0,Zr  3)     87.1060         0.010000   
    823. D(Zr  2,O  11,Zr  5,Zr  0)   -151.3841         0.010000   
    824. D(Zr  0,O  11,Zr  5,O   6)     24.0896         0.010000   
    825. D(Zr  0,O  11,Zr  5,Zr  2)    151.3841         0.010000   
    826. D(Zr  5,O  11,Zr  2,Zr  1)     52.6680         0.010000   
    827. D(Zr  5,O  11,Zr  0,Zr  3)    -53.1425         0.010000   
    828. D(Zr  0,O  11,Zr  2,Zr  1)    -87.5368         0.010000   
    829. D(Zr  2,O  11,Zr  0,Zr  5)    140.2485         0.010000   
    830. D(Zr  0,O  11,Zr  2,Zr  5)   -140.2048         0.010000   
    831. D(C  36,O  12,Zr  0,Zr  5)     -1.4013         0.010000   
    832. D(C  36,O  12,Zr  0,Zr  3)     48.8794         0.010000   
    833. D(C  37,O  13,Zr  0,Zr  5)    -56.8634         0.010000   
    834. D(C  37,O  13,Zr  0,Zr  3)      4.0021         0.010000   
    835. D(C  38,O  14,Zr  0,Zr  5)      9.0761         0.010000   
    836. D(C  38,O  14,Zr  0,Zr  3)    -66.3734         0.010000   
    837. D(C  39,O  15,Zr  0,Zr  5)    -15.0915         0.010000   
    838. D(C  39,O  15,Zr  0,Zr  3)    -71.9658         0.010000   
    839. D(C  40,O  16,Zr  1,Zr  4)     18.1363         0.010000   
    840. D(C  40,O  16,Zr  1,Zr  2)     71.3961         0.010000   
    841. D(C  41,O  17,Zr  1,Zr  4)     -5.7676         0.010000   
    842. D(C  41,O  17,Zr  1,Zr  2)     70.1644         0.010000   
    843. D(C  42,O  18,Zr  1,Zr  4)     58.0649         0.010000   
    844. D(C  42,O  18,Zr  1,Zr  2)     -3.4272         0.010000   
    845. D(C  43,O  19,Zr  1,Zr  4)      3.3690         0.010000   
    846. D(C  43,O  19,Zr  1,Zr  2)    -45.4957         0.010000   
    847. D(Al 64,O  20,Zr  2,Zr  1)    100.0988         0.010000   
    848. D(C  44,O  20,Zr  2,Zr  5)      4.2884         0.010000   
    849. D(C  44,O  20,Zr  2,Zr  1)    -57.4040         0.010000   
    850. D(Al 61,O  21,Zr  2,Zr  1)   -133.2544         0.010000   
    851. D(C  38,O  21,Zr  2,Zr  5)    -70.2121         0.010000   
    852. D(C  38,O  21,Zr  2,Zr  1)    -16.1541         0.010000   
    853. D(Al 64,O  22,Zr  2,Zr  1)   -140.4034         0.010000   
    854. D(C  42,O  22,Zr  2,Zr  5)     45.0768         0.010000   
    855. D(C  42,O  22,Zr  2,Zr  1)     -4.2211         0.010000   
    856. D(Al 61,O  23,Zr  2,Zr  1)   -158.6499         0.010000   
    857. D(C  45,O  23,Zr  2,Zr  5)    -73.6163         0.010000   
    858. D(C  45,O  23,Zr  2,Zr  1)      3.1056         0.010000   
    859. D(C  46,O  24,Zr  3,Zr  4)     69.8867         0.010000   
    860. D(C  46,O  24,Zr  3,Zr  0)     -6.2536         0.010000   
    861. D(C  37,O  25,Zr  3,Zr  4)    -44.9095         0.010000   
    862. D(C  37,O  25,Zr  3,Zr  0)      5.0573         0.010000   
    863. D(C  41,O  26,Zr  3,Zr  4)     71.1780         0.010000   
    864. D(C  41,O  26,Zr  3,Zr  0)     15.7317         0.010000   
    865. D(C  47,O  27,Zr  3,Zr  4)     -4.8404         0.010000   
    866. D(C  47,O  27,Zr  3,Zr  0)     56.6824         0.010000   
    867. D(C  47,O  28,Zr  4,Zr  3)     -5.8840         0.010000   
    868. D(C  47,O  28,Zr  4,Zr  1)     42.9128         0.010000   
    869. D(C  39,O  29,Zr  4,Zr  3)      3.9766         0.010000   
    870. D(C  39,O  29,Zr  4,Zr  1)    -73.1229         0.010000   
    871. D(C  43,O  30,Zr  4,Zr  3)    -60.5443         0.010000   
    872. D(C  43,O  30,Zr  4,Zr  1)      1.4834         0.010000   
    873. D(C  45,O  31,Zr  4,Zr  3)    -20.3499         0.010000   
    874. D(C  45,O  31,Zr  4,Zr  1)    -72.4153         0.010000   
    875. D(C  46,O  32,Zr  5,Zr  2)     18.5215         0.010000   
    876. D(C  46,O  32,Zr  5,Zr  0)     71.9537         0.010000   
    877. D(C  36,O  33,Zr  5,Zr  2)     61.5391         0.010000   
    878. D(C  36,O  33,Zr  5,Zr  0)     -0.2156         0.010000   
    879. D(C  40,O  34,Zr  5,Zr  2)     -3.4034         0.010000   
    880. D(C  40,O  34,Zr  5,Zr  0)     72.9734         0.010000   
    881. D(C  44,O  35,Zr  5,Zr  2)      4.8691         0.010000   
    882. D(C  44,O  35,Zr  5,Zr  0)    -44.3087         0.010000   
    883. D(O  12,C  36,O  33,Zr  5)     -0.7004         0.047211   
    884. D(H  58,C  36,O  12,Zr  0)   -178.2332         0.047250   
    885. D(O  33,C  36,O  12,Zr  0)      1.8905         0.047250   
    886. D(H  58,C  36,O  33,Zr  5)    179.4233         0.047211   
    887. D(H  51,C  37,O  25,Zr  3)    175.5513         0.047209   
    888. D(O  13,C  37,O  25,Zr  3)     -4.5782         0.047209   
    889. D(H  51,C  37,O  13,Zr  0)    177.7409         0.047130   
    890. D(O  25,C  37,O  13,Zr  0)     -2.1296         0.047130   
    891. D(H  50,C  38,O  21,Zr  2)   -162.5134         0.070209   
    892. D(O  14,C  38,O  21,Al 61)    138.3620         0.070209   
    893. D(O  14,C  38,O  21,Zr  2)     17.4158         0.070209   
    894. D(H  50,C  38,O  14,Zr  0)   -156.4343         0.056670   
    895. D(O  21,C  38,O  14,Zr  0)     23.6364         0.056670   
    896. D(H  54,C  39,O  29,Zr  4)   -154.7872         0.046836   
    897. D(O  15,C  39,O  29,Zr  4)     25.5203         0.046836   
    898. D(H  54,C  39,O  15,Zr  0)   -159.6578         0.047625   
    899. D(O  29,C  39,O  15,Zr  0)     20.0347         0.047625   
    900. D(H  56,C  40,O  34,Zr  5)    152.1801         0.046739   
    901. D(O  16,C  40,O  34,Zr  5)    -28.1417         0.046739   
    902. D(H  56,C  40,O  16,Zr  1)    162.0556         0.047597   
    903. D(O  34,C  40,O  16,Zr  1)    -17.6229         0.047597   
    904. D(H  48,C  41,O  26,Zr  3)    161.1100         0.047644   
    905. D(O  17,C  41,O  26,Zr  3)    -18.6240         0.047644   
    906. D(H  48,C  41,O  17,Zr  1)    154.9217         0.046830   
    907. D(O  26,C  41,O  17,Zr  1)    -25.3443         0.046830   
    908. D(H  49,C  42,O  22,Zr  2)   -176.4230         0.083874   
    909. D(O  18,C  42,O  22,Al 64)    139.4986         0.083874   
    910. D(O  18,C  42,O  22,Zr  2)      3.7157         0.083874   
    911. D(H  49,C  42,O  18,Zr  1)   -177.9079         0.061269   
    912. D(O  22,C  42,O  18,Zr  1)      1.9535         0.061269   
    913. D(H  52,C  43,O  30,Zr  4)   -179.9299         0.047150   
    914. D(O  19,C  43,O  30,Zr  4)      0.2886         0.047150   
    915. D(H  52,C  43,O  19,Zr  1)    176.3496         0.047203   
[...]
freq.     160.09  E(vib)   ...       0.39 
freq.     161.11  E(vib)   ...       0.39 
freq.     161.92  E(vib)   ...       0.39 
freq.     162.96  E(vib)   ...       0.39 
freq.     164.11  E(vib)   ...       0.39 
freq.     168.05  E(vib)   ...       0.38 
freq.     168.97  E(vib)   ...       0.38 
freq.     172.14  E(vib)   ...       0.38 
freq.     173.15  E(vib)   ...       0.38 
freq.     174.05  E(vib)   ...       0.38 
freq.     187.06  E(vib)   ...       0.36 
freq.     187.72  E(vib)   ...       0.36 
freq.     188.50  E(vib)   ...       0.36 
freq.     190.38  E(vib)   ...       0.36 
freq.     192.07  E(vib)   ...       0.36 
freq.     192.64  E(vib)   ...       0.36 
freq.     193.52  E(vib)   ...       0.36 
freq.     205.69  E(vib)   ...       0.35 
freq.     206.40  E(vib)   ...       0.35 
freq.     208.03  E(vib)   ...       0.34 
freq.     209.30  E(vib)   ...       0.34 
freq.     211.16  E(vib)   ...       0.34 
freq.     212.79  E(vib)   ...       0.34 
freq.     224.15  E(vib)   ...       0.33 
freq.     225.28  E(vib)   ...       0.33 
freq.     229.80  E(vib)   ...       0.32 
freq.     232.59  E(vib)   ...       0.32 
freq.     233.34  E(vib)   ...       0.32 
freq.     236.51  E(vib)   ...       0.32 
freq.     245.60  E(vib)   ...       0.31 
freq.     251.94  E(vib)   ...       0.30 
freq.     256.16  E(vib)   ...       0.30 
freq.     259.32  E(vib)   ...       0.30 
freq.     260.41  E(vib)   ...       0.30 
freq.     261.34  E(vib)   ...       0.30 
freq.     262.78  E(vib)   ...       0.29 
freq.     264.59  E(vib)   ...       0.29 
freq.     265.83  E(vib)   ...       0.29 
freq.     266.22  E(vib)   ...       0.29 
freq.     267.08  E(vib)   ...       0.29 
freq.     270.22  E(vib)   ...       0.29 
freq.     271.97  E(vib)   ...       0.29 
freq.     272.61  E(vib)   ...       0.29 
freq.     273.52  E(vib)   ...       0.29 
freq.     274.74  E(vib)   ...       0.28 
freq.     279.21  E(vib)   ...       0.28 
freq.     279.51  E(vib)   ...       0.28 
freq.     282.19  E(vib)   ...       0.28 
freq.     283.05  E(vib)   ...       0.28 
freq.     287.67  E(vib)   ...       0.27 
freq.     288.42  E(vib)   ...       0.27 
freq.     291.82  E(vib)   ...       0.27 
freq.     294.49  E(vib)   ...       0.27 
freq.     299.03  E(vib)   ...       0.26 
freq.     303.61  E(vib)   ...       0.26 
freq.     304.17  E(vib)   ...       0.26 
freq.     306.72  E(vib)   ...       0.26 
freq.     308.61  E(vib)   ...       0.26 
freq.     310.31  E(vib)   ...       0.26 
freq.     311.91  E(vib)   ...       0.25 
freq.     312.60  E(vib)   ...       0.25 
freq.     313.85  E(vib)   ...       0.25 
freq.     319.28  E(vib)   ...       0.25 
freq.     321.03  E(vib)   ...       0.25 
freq.     321.68  E(vib)   ...       0.25 
freq.     323.44  E(vib)   ...       0.25 
freq.     337.68  E(vib)   ...       0.24 
freq.     339.67  E(vib)   ...       0.23 
freq.     341.09  E(vib)   ...       0.23 
freq.     346.60  E(vib)   ...       0.23 
freq.     349.30  E(vib)   ...       0.23 
freq.     351.04  E(vib)   ...       0.23 
freq.     363.00  E(vib)   ...       0.22 
freq.     368.46  E(vib)   ...       0.21 
freq.     370.72  E(vib)   ...       0.21 
freq.     378.13  E(vib)   ...       0.21 
freq.     385.07  E(vib)   ...       0.20 
freq.     392.27  E(vib)   ...       0.20 
freq.     396.90  E(vib)   ...       0.20 
freq.     400.38  E(vib)   ...       0.19 
freq.     400.69  E(vib)   ...       0.19 
freq.     404.27  E(vib)   ...       0.19 
freq.     415.85  E(vib)   ...       0.18 
freq.     418.63  E(vib)   ...       0.18 
freq.     421.72  E(vib)   ...       0.18 
freq.     422.28  E(vib)   ...       0.18 
freq.     425.11  E(vib)   ...       0.18 
freq.     450.84  E(vib)   ...       0.17 
freq.     460.45  E(vib)   ...       0.16 
freq.     471.36  E(vib)   ...       0.15 
freq.     478.66  E(vib)   ...       0.15 
freq.     479.46  E(vib)   ...       0.15 
freq.     479.58  E(vib)   ...       0.15 
freq.     501.20  E(vib)   ...       0.14 
freq.     520.91  E(vib)   ...       0.13 
freq.     530.47  E(vib)   ...       0.13 
freq.     537.57  E(vib)   ...       0.12 
freq.     542.65  E(vib)   ...       0.12 
freq.     544.61  E(vib)   ...       0.12 
freq.     564.81  E(vib)   ...       0.11 
freq.     578.56  E(vib)   ...       0.11 
freq.     588.43  E(vib)   ...       0.10 
freq.     605.66  E(vib)   ...       0.10 
freq.     608.72  E(vib)   ...       0.10 
freq.     614.85  E(vib)   ...       0.10 
freq.     616.29  E(vib)   ...       0.09 
freq.     622.40  E(vib)   ...       0.09 
freq.     636.05  E(vib)   ...       0.09 
freq.     666.10  E(vib)   ...       0.08 
freq.     673.72  E(vib)   ...       0.08 
freq.     675.40  E(vib)   ...       0.08 
freq.     683.72  E(vib)   ...       0.07 
freq.     685.93  E(vib)   ...       0.07 
freq.     688.13  E(vib)   ...       0.07 
freq.     706.86  E(vib)   ...       0.07 
freq.     711.59  E(vib)   ...       0.07 
freq.     731.31  E(vib)   ...       0.06 
freq.     735.17  E(vib)   ...       0.06 
freq.     735.36  E(vib)   ...       0.06 
freq.     736.01  E(vib)   ...       0.06 
freq.     736.36  E(vib)   ...       0.06 
freq.     738.04  E(vib)   ...       0.06 
freq.     738.73  E(vib)   ...       0.06 
freq.     739.06  E(vib)   ...       0.06 
freq.     739.34  E(vib)   ...       0.06 
freq.     739.65  E(vib)   ...       0.06 
freq.     740.69  E(vib)   ...       0.06 
freq.     741.24  E(vib)   ...       0.06 
freq.     743.78  E(vib)   ...       0.06 
freq.     767.74  E(vib)   ...       0.06 
freq.     784.48  E(vib)   ...       0.05 
freq.     787.02  E(vib)   ...       0.05 
freq.     804.98  E(vib)   ...       0.05 
freq.     817.59  E(vib)   ...       0.05 
freq.     821.27  E(vib)   ...       0.05 
freq.     841.11  E(vib)   ...       0.04 
freq.     855.87  E(vib)   ...       0.04 
freq.     879.95  E(vib)   ...       0.04 
freq.     882.86  E(vib)   ...       0.04 
freq.     901.34  E(vib)   ...       0.03 
freq.     924.98  E(vib)   ...       0.03 
freq.     962.53  E(vib)   ...       0.03 
freq.     978.75  E(vib)   ...       0.03 
freq.     997.31  E(vib)   ...       0.02 
freq.     999.73  E(vib)   ...       0.02 
freq.    1000.21  E(vib)   ...       0.02 
freq.    1000.21  E(vib)   ...       0.02 
freq.    1000.49  E(vib)   ...       0.02 
freq.    1000.90  E(vib)   ...       0.02 
freq.    1001.76  E(vib)   ...       0.02 
freq.    1002.06  E(vib)   ...       0.02 
freq.    1005.34  E(vib)   ...       0.02 
freq.    1005.59  E(vib)   ...       0.02 
freq.    1005.98  E(vib)   ...       0.02 
freq.    1006.40  E(vib)   ...       0.02 
freq.    1011.28  E(vib)   ...       0.02 
freq.    1023.16  E(vib)   ...       0.02 
freq.    1048.42  E(vib)   ...       0.02 
freq.    1117.26  E(vib)   ...       0.01 
freq.    1342.27  E(vib)   ...       0.01 
freq.    1348.07  E(vib)   ...       0.01 
freq.    1348.45  E(vib)   ...       0.01 
freq.    1349.79  E(vib)   ...       0.01 
freq.    1349.98  E(vib)   ...       0.01 
freq.    1350.19  E(vib)   ...       0.01 
freq.    1353.44  E(vib)   ...       0.01 
freq.    1353.99  E(vib)   ...       0.01 
freq.    1354.80  E(vib)   ...       0.01 
freq.    1355.21  E(vib)   ...       0.01 
freq.    1355.56  E(vib)   ...       0.01 
freq.    1357.09  E(vib)   ...       0.01 
freq.    1358.42  E(vib)   ...       0.01 
freq.    1361.51  E(vib)   ...       0.01 
freq.    1361.83  E(vib)   ...       0.01 
freq.    1361.90  E(vib)   ...       0.01 
freq.    1363.57  E(vib)   ...       0.01 
freq.    1364.52  E(vib)   ...       0.01 
freq.    1365.94  E(vib)   ...       0.01 
freq.    1367.55  E(vib)   ...       0.01 
freq.    1367.86  E(vib)   ...       0.01 
freq.    1371.51  E(vib)   ...       0.01 
freq.    1371.92  E(vib)   ...       0.01 
freq.    1379.54  E(vib)   ...       0.01 
freq.    1524.97  E(vib)   ...       0.00 
freq.    1540.81  E(vib)   ...       0.00 
freq.    1549.95  E(vib)   ...       0.00 
freq.    1560.66  E(vib)   ...       0.00 
freq.    1561.98  E(vib)   ...       0.00 
freq.    1567.54  E(vib)   ...       0.00 
freq.    1573.35  E(vib)   ...       0.00 
freq.    1574.99  E(vib)   ...       0.00 
freq.    1623.27  E(vib)   ...       0.00 
freq.    1626.14  E(vib)   ...       0.00 
freq.    1628.75  E(vib)   ...       0.00 
freq.    1632.42  E(vib)   ...       0.00 
freq.    1635.00  E(vib)   ...       0.00 
freq.    1635.47  E(vib)   ...       0.00 
freq.    1651.53  E(vib)   ...       0.00 
freq.    1682.07  E(vib)   ...       0.00 
freq.    1685.19  E(vib)   ...       0.00 
freq.    1722.19  E(vib)   ...       0.00 
freq.    1733.87  E(vib)   ...       0.00 
freq.    1746.61  E(vib)   ...       0.00 
freq.    1798.76  E(vib)   ...       0.00 
freq.    1799.36  E(vib)   ...       0.00 
freq.    1805.00  E(vib)   ...       0.00 
freq.    1822.98  E(vib)   ...       0.00 
freq.    1834.83  E(vib)   ...       0.00 
freq.    1863.80  E(vib)   ...       0.00 
freq.    1871.89  E(vib)   ...       0.00 
freq.    1878.80  E(vib)   ...       0.00 
freq.    1882.75  E(vib)   ...       0.00 
freq.    1884.74  E(vib)   ...       0.00 
freq.    1888.06  E(vib)   ...       0.00 
freq.    1890.65  E(vib)   ...       0.00 
freq.    1899.03  E(vib)   ...       0.00 
freq.    1904.50  E(vib)   ...       0.00 
freq.    1914.32  E(vib)   ...       0.00 
freq.    1959.27  E(vib)   ...       0.00 
freq.    2895.18  E(vib)   ...       0.00 
freq.    2896.34  E(vib)   ...       0.00 
freq.    2896.62  E(vib)   ...       0.00 
freq.    2897.24  E(vib)   ...       0.00 
freq.    2898.01  E(vib)   ...       0.00 
freq.    2899.19  E(vib)   ...       0.00 
freq.    2902.04  E(vib)   ...       0.00 
freq.    2908.95  E(vib)   ...       0.00 
freq.    2909.74  E(vib)   ...       0.00 
freq.    2911.20  E(vib)   ...       0.00 
freq.    2911.82  E(vib)   ...       0.00 
freq.    2921.78  E(vib)   ...       0.00 

------------
INNER ENERGY
------------

The inner energy is: U= E(el) + E(ZPE) + E(vib) + E(rot) + E(trans)
    E(el)   - is the total energy from the electronic structure calculation
              = E(kin-el) + E(nuc-el) + E(el-el) + E(nuc-nuc)
    E(ZPE)  - the the zero temperature vibrational energy from the frequency calculation
    E(vib)  - the the finite temperature correction to E(ZPE) due to population
              of excited vibrational states
    E(rot)  - is the rotational thermal energy
    E(trans)- is the translational thermal energy

Summary of contributions to the inner energy U:
Electronic energy                ...  -4952.48083500 Eh
Zero point energy                ...      0.48376126 Eh     303.56 kcal/mol
Thermal vibrational correction   ...      0.07446720 Eh      46.73 kcal/mol
Thermal rotational correction    ...      0.00141627 Eh       0.89 kcal/mol
Thermal translational correction ...      0.00141627 Eh       0.89 kcal/mol
-----------------------------------------------------------------------
Total thermal energy                  -4951.91977400 Eh


Summary of corrections to the electronic energy:
(perhaps to be used in another calculation)
Total thermal correction                  0.07729974 Eh      48.51 kcal/mol
Non-thermal (ZPE) correction              0.48376126 Eh     303.56 kcal/mol
-----------------------------------------------------------------------
Total correction                          0.56106100 Eh     352.07 kcal/mol


--------
ENTHALPY
--------

The enthalpy is H = U + kB*T
                kB is Boltzmann's constant
Total thermal energy              ...  -4951.91977400 Eh 
Thermal Enthalpy correction       ...      0.00094421 Eh       0.59 kcal/mol
-----------------------------------------------------------------------
Total Enthalpy                    ...  -4951.91882979 Eh


Note: Only C1 symmetry has been detected, increase convergence thresholds 
      if your molecule has a higher symmetry. Symmetry factor of 1.0 is   
      used for the rotational entropy correction. 
 

Note: Rotational entropy computed according to Herzberg 
Infrared and Raman Spectra, Chapter V,1, Van Nostrand Reinhold, 1945 
Point Group:  C1, Symmetry Number:   1  
Rotational constants in cm-1:     0.001559     0.000733     0.000710 

Vibrational entropy computed according to the QRRHO of S. Grimme
Chem.Eur.J. 2012 18 9955 using a reference frequency of 100.0 cm-1


-------
ENTROPY
-------

The entropy contributions are T*S = T*(S(el)+S(vib)+S(rot)+S(trans))
     S(el)   - electronic entropy
     S(vib)  - vibrational entropy
     S(rot)  - rotational entropy
     S(trans)- translational entropy
The entropies will be listed as multiplied by the temperature to get
units of energy

Electronic entropy                ...      0.00000000 Eh      0.00 kcal/mol
Vibrational entropy               ...      0.13247081 Eh     83.13 kcal/mol
Rotational entropy                ...      0.01939260 Eh     12.17 kcal/mol
Translational entropy             ...      0.02263251 Eh     14.20 kcal/mol
-----------------------------------------------------------------------
Final entropy term                ...      0.17449592 Eh    109.50 kcal/mol

In case the symmetry of your molecule has not been determined correctly
or in case you have a reason to use a different symmetry number we print 
out the resulting rotational entropy values for sn=1,12:

 non-linear molecules -----------------------------------
|  sn= 1 | S(rot)=       0.01939260 Eh     12.17 kcal/mol|
|  sn= 2 | S(rot)=       0.01873815 Eh     11.76 kcal/mol|
|  sn= 3 | S(rot)=       0.01835531 Eh     11.52 kcal/mol|
|  sn= 4 | S(rot)=       0.01808369 Eh     11.35 kcal/mol|
|  sn= 5 | S(rot)=       0.01787300 Eh     11.22 kcal/mol|
|  sn= 6 | S(rot)=       0.01770086 Eh     11.11 kcal/mol|
|  sn= 7 | S(rot)=       0.01755531 Eh     11.02 kcal/mol|
|  sn= 8 | S(rot)=       0.01742923 Eh     10.94 kcal/mol|
|  sn= 9 | S(rot)=       0.01731803 Eh     10.87 kcal/mol|
|  sn=10 | S(rot)=       0.01721855 Eh     10.80 kcal/mol|
|  sn=11 | S(rot)=       0.01712856 Eh     10.75 kcal/mol|
|  sn=12 | S(rot)=       0.01704640 Eh     10.70 kcal/mol|
 linear molecules ---------------------------------------
|  Dinfh | S(rot)=       0.01217159 Eh      7.64 kcal/mol|
|  Cinfv | S(rot)=       0.01282605 Eh      8.05 kcal/mol|
 --------------------------------------------------------


-------------------
GIBBS FREE ENERGY
-------------------

The Gibbs free energy is G = H - T*S

Total enthalpy                    ...  -4951.91882979 Eh 
Total entropy correction          ...     -0.17449592 Eh   -109.50 kcal/mol
-----------------------------------------------------------------------
Final Gibbs free energy         ...  -4952.09332571 Eh

For completeness - the Gibbs free energy minus the electronic energy
G-E(el)                           ...      0.38750929 Eh    243.17 kcal/mol


Maximum memory used throughout the entire PROP-calculation: 178.7 MB

--------------------------------
SUGGESTED CITATIONS FOR THIS RUN
--------------------------------

Below you find a list of papers that are relevant to this ORCA run
We neither can nor want to force you to cite these papers, but we appreciate if you do
You receive ORCA, which is the product of decades of hard work by many enthusiastic individuals, for free
The only thing we kindly ask in return is that you cite our papers,
We deeply appreciate it, if you show your appreciation for ORCA by not just citing the generic ORCA reference.

Please note that relegating all ORCA citations to the supporting information does *not* help us.
SI sections are not indexed - citations you put there will not count into any citation statistics
But we need these citations in order to attract the funding resources that allow us to do what we are doing

Therefore, if you are a happy ORCA user, please consider citing a few of the papers listed below in the main body of your paper

In addition to the list printed below, the program has created the file run.bibtex that contains the list in bibtex format
You can import this file easily into all common literature databanks and citation aid programs


List of essential papers. We consider these as the minimum necessary citations

  1. Neese, F.
     Software update: the ORCA program system, version 6.0
     WIRES Comput. Molec. Sci. 2025 15(1), e70019
     doi.org/10.1002/wcms.7019

List of papers to cite with high priority. The work reported in these papers was absolutely
necessary for this run to complete.
Our perspective: the developers of density functionals and basis sets usually get cited in chemistry papers
Good! But without the algorithms to do something with them, the functionals or basis sets would not do anything.
Hence, in our opinion, the algorithm design and method developments papers are equally worthy of getting cited

  1. Neese, F.
     An improvement of the resolution of the identity approximation for the formation of the Coulomb matrix
     J. Comp. Chem. 2003 24(14), 1740-1747
     doi.org/10.1002/jcc.10318
  2. Grimme, S.; Antony, J.; Ehrlich, S.; Krieg, H.
     A consistent and accurate ab initio parametrization of density functional dispersion correction (DFT-D) for the 94 elements H-Pu
     J. Chem. Phys. 2010 132 , 154104
     doi.org/10.1063/1.3382344
  3. Grimme, S.; Ehrlich, S.; Goerigk, L.
     Effect of the damping function in dispersion corrected density functional theory
     J. Comput. Chem. 2011 32(7), 1456-1465
     doi.org/10.1002/jcc.21759
  4. Bykov, D.; Petrenko, T.; Izsak, R.; Kossmann, S.; Becker, U.; Valeev, E.; Neese, F.
     Efficient implementation of the analytic second derivatives of Hartree-Fock and hybrid DFT energies: a detailed analysis of different approximations
     Molec. Phys. 2015 113 , 1961-1977
     doi.org/10.1080/00268976.2015.1025114
  5. Helmich-Paris, B.
     A trust-region augmented Hessian implementation for restricted and unrestricted Hartree–Fock and Kohn–Sham methods
     J. Chem. Phys. 2021 154 , 164104
     doi.org/10.1063/5.0040798
  6. Neese, F.
     The SHARK Integral Generation and Digestion System
     J. Comp. Chem. 2022 44(3), 381
     doi.org/10.1002/jcc.26942

List of suggested additional citations. These are papers that are important in the 'surrounding' of 
of this run, or papers that preceded the highly important papers. If you like your results we are grateful for a citation.

  1. Neese, F.
     The ORCA program system
     WIRES Comput. Molec. Sci. 2012 2(1), 73-78
     doi.org/10.1002/wcms.81
  2. Neese, F.
     Software update: the ORCA program system, version 4.0
     WIRES Comput. Molec. Sci. 2018 8(1), 1-6
     doi.org/10.1002/wcms.1327
  3. Neese, F.; Wennmohs, F.; Becker, U.; Riplinger, C.
     The ORCA quantum chemistry program package
     J. Chem. Phys. 2020 152(22), 224108
     doi.org/10.1063/5.0004608
  4. Neese, F.
     Software update: The ORCA program system—Version 5.0
     WIRES Comput. Molec. Sci. 2022 12(1), e1606
     doi.org/10.1002/wcms.1606

List of optional additional citations

  1. Neese, F.
     Approximate second-order SCF convergence for spin unrestricted wavefunctions
     Chem. Phys. Lett. 2000 325(1-3), 93-98
     doi.org/10.1016/s0009-2614(00)00662-x

Timings for individual modules:

Sum of individual times          ...    10785.652 sec (= 179.761 min)
Startup calculation              ...      313.439 sec (=   5.224 min)   2.9 %
SCF iterations                   ...     2807.998 sec (=  46.800 min)  26.0 %
Property integrals               ...     2442.975 sec (=  40.716 min)  22.7 %
SCF Response                     ...     2236.681 sec (=  37.278 min)  20.7 %
Property calculations            ...     2058.252 sec (=  34.304 min)  19.1 %
SCF Gradient evaluation          ...      877.445 sec (=  14.624 min)   8.1 %
Geometry relaxation              ...       48.862 sec (=   0.814 min)   0.5 %
                             ****ORCA TERMINATED NORMALLY****
TOTAL RUN TIME: 0 days 3 hours 0 minutes 4 seconds 418 msec
