
                                 *****************
                                 * O   R   C   A *
                                 *****************

                                            #,                                       
                                            ###                                      
                                            ####                                     
                                            #####                                    
                                            ######                                   
                                           ########,                                 
                                     ,,################,,,,,                         
                               ,,#################################,,                 
                          ,,##########################################,,             
                       ,#########################################, ''#####,          
                    ,#############################################,,   '####,        
                  ,##################################################,,,,####,       
                ,###########''''           ''''###############################       
              ,#####''   ,,,,##########,,,,          '''####'''          '####       
            ,##' ,,,,###########################,,,                        '##       
           ' ,,###''''                  '''############,,,                           
         ,,##''                                '''############,,,,        ,,,,,,###''
      ,#''                                            '''#######################'''  
     '                                                          ''''####''''         
             ,#######,   #######,   ,#######,      ##                                
            ,#'     '#,  ##    ##  ,#'     '#,    #''#        ,####,    ,#,          
            ##       ##  ##   ,#'  ##            #'  '#       #'       ,# #          
            ##       ##  #######   ##           ,######,      #####,      #          
            '#,     ,#'  ##    ##  '#,     ,#' ,#      #,     #,   #      #          
             '#######'   ##     ##  '#######'  #'      '#     '####' #    #          



                #########################################################
                #                        -***-                          #
                #          Department of theory and spectroscopy        #
                #                                                       #
                #                      Frank Neese                      #
                #                                                       #
                #     Directorship, Architecture, Infrastructure        #
                #                    SHARK, DRIVERS                     #
                #        Core code/Algorithms in most modules           #
                #                                                       #
                #        Max Planck Institute fuer Kohlenforschung      #
                #                Kaiser Wilhelm Platz 1                 #
                #                 D-45470 Muelheim/Ruhr                 #
                #                      Germany                          #
                #                                                       #
                #                  All rights reserved                  #
                #                        -***-                          #
                #########################################################


                         Program Version 6.1.0  -  RELEASE   -
                                (GIT: $679e74b$)
                          ($2025-06-10 18:02:51 +0200$)


 With contributions from (in alphabetic order):
[Max-Planck-Institut fuer Kohlenforschung]                               
  Daniel Aravena         : Magnetic Suceptibility                        
  Michael Atanasov       : Ab Initio Ligand Field Theory (pilot matlab implementation)
  Alexander A. Auer      : GIAO ZORA, VPT2 properties, NMR spectrum      
  Ute Becker             : All parallelization in ORCA, NUMFREQ, NUMCALC 
  Giovanni Bistoni       : ED, misc. LED, open-shell LED, HFLD           
  Dmytro Bykov           : pre 5.0 version of the SCF Hessian            
  Marcos Casanova-Páez   : Triplet and SCS-CIS(D). UHF-(DLPNO)-IP/EA/STEOM-CCSD. UHF-CVS-IP/STEOM-CCSD   
  Vijay G. Chilkuri      : MRCI spin determinant printing, contributions to CSF-ICE 
  Pauline Colinet        : FMM embedding                                 
  Dipayan Datta          : RHF DLPNO-CCSD density                        
  Achintya Kumar Dutta   : EOM-CC, STEOM-CC                              
  Nicolas Foglia         : Exact transition moments, OPA infrastructure, MCD improvements    
  Dmitry Ganyushin       : Spin-Orbit,Spin-Spin,Magnetic field MRCI      
  Miquel Garcia-Rates    : C-PCM and meta-GGA Hessian, CCSD/C-PCM, Gaussian charge scheme 
  Tiago L. C. Gouveia    : GS-ROHF, GS-ROCIS                             
  Yang Guo               : DLPNO-NEVPT2, F12-NEVPT2, CIM, IAO-localization        
  Andreas Hansen         : Spin unrestricted coupled pair/coupled cluster methods 
  Ingolf Harden          : AUTO-CI MPn and infrastructure                
  Benjamin Helmich-Paris : MC-RPA, TRAH-(SCF,CASSCF), AVAS, COSX integrals, SCF dyn. polar., MC-PDFT, srDFT 
  Lee Huntington         : MR-EOM, pCC                                   
  Robert Izsak           : Overlap fitted RIJCOSX, COSX-SCS-MP3, EOM     
  Riya Kayal             : Wick's Theorem for AUTO-CI, AUTO-CI UHF-CCSDT 
  Emily Kempfer          : AUTO-CI RHF CISDT and CCSDT, approximate NEVPT4
  Christian Kollmar      : KDIIS, OOCD, Brueckner-CCSD(T), CCSD density, CASPT2, CASPT2-K, improved NEVPT2 
  Axel Koslowski         : Symmetry handling                             
  Simone Kossmann        : meta-GGA functionals, TD-DFT gradient, OOMP2, (MP2 Hessian; deprecated post 5.0) 
  Lucas Lang             : DCDCAS, Hyperfine gauge corrections, ICE-SOC+SSC
  Marvin Lechner         : AUTO-CI (C++ implementation), FIC-MRCC        
  Spencer Leger          : CASSCF response                               
  Dagmar Lenk            : GEPOL surface, SMD, ORCA-2-JSON               
  Dimitrios Liakos       : Extrapolation schemes; Compound Job, Property file
  Dimitrios Manganas     : Further ROCIS development; embedding schemes. LFT, Crystal Embedding 
  Dimitrios Pantazis     : SARC Basis sets                               
  Anastasios Papadopoulos: AUTO-CI, single reference methods and gradients 
  Taras Petrenko         : pre 6.0 DFT Hessian and TD-DFT gradient,  ECA, NRVS 
  Petra Pikulova         : Analytic Raman intensities                    
  Peter Pinski           : DLPNO-MP2, DLPNO-MP2 Gradient                 
  Shashank Vittal Rao    : ES-AILFT, MagRelax                            
  Christoph Reimann      : Effective Core Potentials                     
  Marius Retegan         : Local ZFS, SOC                                
  Christoph Riplinger    : Optimizer, TS searches, QM/MM, DLPNO-CCSD(T), (RO)-DLPNO pert. Triples 
  Michael Roemelt        : Original ROCIS implementation, recursive CI coupling coefficients
  Masaaki Saitow         : Open-shell DLPNO-CCSD energy and density      
  Barbara Sandhoefer     : DKH picture change effects                    
  Yorick L. A. Schmerwitz: GMF and freeze-and-release deltaSCF, NEB S-IDPP initial path                    
  Kantharuban Sivalingam : CASSCF convergence/infrastructure, NEVPT2, NEVPT3, NEVPT4(SD), FIC-MRCI and CEPA variants
  Bernardo de Souza      : ESD, SOC TD-DFT                               
  Georgi L. Stoychev     : AutoAux, RI-MP2 NMR, DLPNO-MP2 response, X2C  
  Van Anh Tran           : RI-MP2 g-tensors                              
  Willem Van den Heuvel  : Paramagnetic NMR                              
  Zikuan Wang            : NOTCH, Electric field optimization            
  Frank Wennmohs         : Technical directorship and infrastructure     
  Hang Xu                : AUTO-CI-Response properties                   
                                                                         
[FACCTs GmbH]                                                            
  Markus Bursch, Nicolas Foglia, Miquel Garcia-Rates, Ingolf Harden, Hagen Neugebauer, Anastasios Papadopoulos, 
  Christoph Riplinger, Bernardo de Souza, Georgi L. Stoychev                                                    
                                                                 
  APM, various basis sets, CI-OPT, improved COSX, DLPNO-Multilevel,           
  DOCKER, DRACO, updates on ESD, Fragmentator, GOAT, IRC, LR-CPCM, L-BFGS, MBIS, meta-GGA TD-DFT gradient, ML-optimized integration grids, 
  MM, NACMEs, nearIR, NEB, NEB-TS, NL-DFT gradient (VV10), 2- and 3-layer-ONIOM, interface openCOSMO-RS, QMMM,   
  Crystal-QMMM, RESP, rigid body optimization, SF, symmetry and pop. for TD-DFT, various functionals, SOLVATOR                                   
                                                                         
[Other institutions]                                                     
  V. Asgeirsson          : NEB                                           
  Christoph Bannwarth    : sTDA-DFT, sTD-DFT, PBEh-3c, B97-3c, D3        
  Giovanni Bistoni       : ETS/NOCV, ADLD/ADEX, COVALED                  
  Martin Brehm           : Molecular dynamics                            
  Ronald Cardenas        : ETS/NOCV                                      
  Martina Colucci        : COVALED                                       
  Sebastian Ehlert       : rSCAN, r2SCAN, r2SCAN-3c, D4, dhf basis sets  
  Marvin Friede          : D4 for Fr, Ra, Ac-Lr                          
  Lars Goerigk           : TD-DFT with DH, B97 family of functionals     
  Stefan Grimme          : VdW corrections, initial TS optimization, DFT functionals, gCP, sTDA/sTD-DF 
  Waldemar Hujo          : DFT-NL                                        
  H. Jonsson             : NEB                                           
  Holger Kruse           : gCP                                           
  Marcel Mueller         : wB97X-3c, vDZP basis set                      
  Hagen Neugebauer       : wr2SCAN, Native XTB                           
  Gianluca Regni         : ADLD/ADEX                                     
  Tobias Risthaus        : pre 6.0 range-separated hybrid DFT and stability analysis
  Lukas Wittmann         : regularized MP2, r2SCAN double-hybrids, wr2SCAN        
                                                                         
We gratefully acknowledge several colleagues who have allowed us to      
interface, adapt or use parts of their codes:                            
  Ed Valeev, F. Pavosevic, A. Kumar             : LibInt (2-el integral package), F12 methods 
  Garnet Chan, S. Sharma, J. Yang, R. Olivares  : DMRG                   
  Ulf Ekstrom                                   : XCFun DFT Library      
  Mihaly Kallay                                 : mrcc  (arbitrary order and MRCC methods)
  Frank Weinhold                                : gennbo (NPA and NBO analysis)           
  Simon Mueller                                 : openCOSMO-RS                            
  Christopher J. Cramer and Donald G. Truhlar   : smd solvation model                     
  S Lehtola, MJT Oliveira, MAL Marques          : LibXC Library                           
  Liviu Ungur et al                             : ANISO software                          


 Your calculation uses the libint2 library for the computation of 2-el integrals
 For citations please refer to: http://libint.valeyev.net

 Your ORCA version has been built with support for libXC version: 7.0.0
 For citations please refer to: https://libxc.gitlab.io

 This ORCA versions uses:
   CBLAS   interface :  Fast vector & matrix operations
   LAPACKE interface :  Fast linear algebra routines
   SCALAPACK package :  Parallel linear algebra routines
   Shared memory     :  Shared parallel matrices
   BLAS/LAPACK       :  OpenBLAS 0.3.29  USE64BITINT DYNAMIC_ARCH NO_AFFINITY Cooperlake SINGLE_THREADED
        Core in use  :  Cooperlake
   Copyright (c) 2011-2014, The OpenBLAS Project


  ***********************************
  * Starting time: Sun Aug 17 15:04:29 2025
  * Host name:     mendelevium01
  * Process ID:    4127785
  * Working dir.:  /local/scratch/mehlhorn/62093
  ***********************************



***************************************
The coordinates will be read from file: start.xyz
***************************************


Warning: RI is on but no J-basis has been assigned. Assigning Def2/J (nothing to worry about!)
================================================================================

----- Orbital basis set information -----
Your calculation utilizes the basis: def2-QZVPP
   F. Weigend and R. Ahlrichs, Phys. Chem. Chem. Phys. 7, 3297 (2005).

----- AuxJ basis set information -----
Your calculation utilizes the auxiliary basis: def2/J
   H-Rn: F. Weigend, Phys. Chem. Chem. Phys. 8, 1057 (2006).
   Fr-Lr: K. Eichkorn, F. Weigend, O. Treutler, R. Ahlrichs; Theor. Chem. Acc. 97, 119 (1997).

----- AuxC basis set information -----
Your calculation utilizes the auxiliary basis: def2-QZVPP/C
  H-La, Hf-Rn : A. Hellweg, C. Hattig, S. Hofener and W. Klopper, Theor. Chem. Acc. 117, 587 (2007).
        Ce-Lu : J. Chmela and M. E. Harding, Mol. Phys. (2018).

================================================================================
                                        WARNINGS
                       Please study these warnings very carefully!
================================================================================

WARNING: SinglePoint found together with IRC
         Switching on EnGrad - energy plus gradient calculation

WARNING: The frozen-core approximation for MP2-gradient calculations is turned on by default.

WARNING: The frozen-core approximation is turned on by default for 
         the MP2 part of double-hybrid DFT.

================================================================================
                                       INPUT FILE
================================================================================
NAME = run.inp
|  1> # Geometry optimization for (AlH3)n cluster
|  2> 
|  3> %pal nprocs 24  end
|  4> 
|  5> %irc
|  6> 	TolRMSG 8.e-6
|  7> 	TolMaxG 3.e-5
|  8> 	Scale_Displ_SD 0.01
|  9> 	InitHess read
| 10> 	Hess_Filename "run.hess"
| 11> end
| 12> ! IRC
| 13> ! PBE0-DH 
| 14> ! def2-QZVPP def2-QZVPP/C 
| 15> ! RKS	# closed shell for AlH3
| 16> 
| 17> 
| 18> ! NoPop # population analysis not necessary	
| 19> 
| 20> ! DEFGRID3
| 21> ! ExtremeSCF
| 22> 
| 23> 
| 24> ! SmallPrint
| 25> 
| 26> 
| 27> * xyzFile 0 1 start.xyz # only maingroup elements H and Al so there should be no net spin
| 28> 
| 29>                          ****END OF INPUT****
================================================================================

                     *******************************
                     * Energy+Gradient Calculation *
                     *******************************

---------------------------------
CARTESIAN COORDINATES (ANGSTROEM)
---------------------------------
  Al    -0.232223    1.505133    2.559927
  Al     0.000199   -0.000512   -0.069910
  H      0.857459   -0.922210    1.079052
  H     -1.089541   -0.898789   -0.756157
  H     -0.847249    0.928376    1.080596
  H     -1.456437    2.172342    3.282063
  H      0.003998    0.000904    3.307084
  H      1.083747    0.893564   -0.771220
  Al     0.258361   -1.502320    2.563621
  H      1.495684   -2.150792    3.280474
  H     -1.163851   -2.124195    2.314690
  H      1.196793    2.106810    2.300139

----------------------------
CARTESIAN COORDINATES (A.U.)
----------------------------
  NO LB      ZA    FRAG     MASS         X           Y           Z
   0 Al   13.0000    0    26.982   -0.438838    2.844288    4.837562
   1 Al   13.0000    0    26.982    0.000377   -0.000967   -0.132110
   2 H     1.0000    0     1.008    1.620364   -1.742725    2.039112
   3 H     1.0000    0     1.008   -2.058934   -1.698464   -1.428930
   4 H     1.0000    0     1.008   -1.601068    1.754377    2.042030
   5 H     1.0000    0     1.008   -2.752267    4.105131    6.202201
   6 H     1.0000    0     1.008    0.007555    0.001707    6.249484
   7 H     1.0000    0     1.008    2.047985    1.688592   -1.457395
   8 Al   13.0000    0    26.982    0.488231   -2.838974    4.844542
   9 H     1.0000    0     1.008    2.826432   -4.064408    6.199198
  10 H     1.0000    0     1.008   -2.199360   -4.014147    4.374131
  11 H     1.0000    0     1.008    2.261611    3.981295    4.346633

--------------------------------
INTERNAL COORDINATES (ANGSTROEM)
--------------------------------
 Al     0   0   0     0.000000000000     0.00000000     0.00000000
 Al     1   0   0     3.039247989217     0.00000000     0.00000000
 H      2   1   0     1.704269749885    73.92097562     0.00000000
 H      2   1   3     1.570150125156   127.48288656   102.56030862
 H      1   2   3     1.702741177286    26.88171117   219.09743056
 H      1   2   3     1.570142413363   131.92067840   225.96410124
 H      1   2   3     1.696098072124    86.05290637   334.57216960
 H      2   1   3     1.570122084151    99.04265049   256.69250968
 Al     7   1   2     1.696207536705   127.86308587     0.84858623
 H      9   7   1     1.570147307577   106.50349990   131.62321451
 H      9   7   1     1.572062598445   106.51772284   271.47065993
 H      1   2   3     1.572129817518    88.68774849    81.30769583

---------------------------
INTERNAL COORDINATES (A.U.)
---------------------------
 Al     0   0   0     0.000000000000     0.00000000     0.00000000
 Al     1   0   0     5.743346352690     0.00000000     0.00000000
 H      2   1   0     3.220603085609    73.92097562     0.00000000
 H      2   1   3     2.967153725687   127.48288656   102.56030862
 H      1   2   3     3.217714502021    26.88171117   219.09743056
 H      1   2   3     2.967139152509   131.92067840   225.96410124
 H      1   2   3     3.205160852586    86.05290637   334.57216960
 H      2   1   3     2.967100735867    99.04265049   256.69250968
 Al     7   1   2     3.205367710665   127.86308587     0.84858623
 H      9   7   1     2.967148401234   106.50349990   131.62321451
 H      9   7   1     2.970767776441   106.51772284   271.47065993
 H      1   2   3     2.970894802081    88.68774849    81.30769583

---------------------
BASIS SET INFORMATION
---------------------
There are 2 groups of distinct atoms

 Group   1 Type Al  : 20s14p4d2f1g contracted to 9s6p4d2f1g pattern {1031111111/821111/1111/11/1}
 Group   2 Type H   : 7s3p2d1f contracted to 4s3p2d1f pattern {4111/111/11/1}

Atom   0Al   basis set group =>   1
Atom   1Al   basis set group =>   1
Atom   2H    basis set group =>   2
Atom   3H    basis set group =>   2
Atom   4H    basis set group =>   2
Atom   5H    basis set group =>   2
Atom   6H    basis set group =>   2
Atom   7H    basis set group =>   2
Atom   8Al   basis set group =>   1
Atom   9H    basis set group =>   2
Atom  10H    basis set group =>   2
Atom  11H    basis set group =>   2
---------------------------------
AUXILIARY/J BASIS SET INFORMATION
---------------------------------
There are 2 groups of distinct atoms

 Group   1 Type Al  : 14s5p5d2f1g contracted to 8s4p3d1f1g pattern {71111111/2111/311/2/1}
 Group   2 Type H   : 5s2p1d contracted to 3s1p1d pattern {311/2/1}

Atom   0Al   basis set group =>   1
Atom   1Al   basis set group =>   1
Atom   2H    basis set group =>   2
Atom   3H    basis set group =>   2
Atom   4H    basis set group =>   2
Atom   5H    basis set group =>   2
Atom   6H    basis set group =>   2
Atom   7H    basis set group =>   2
Atom   8Al   basis set group =>   1
Atom   9H    basis set group =>   2
Atom  10H    basis set group =>   2
Atom  11H    basis set group =>   2
---------------------------------
AUXILIARY/C BASIS SET INFORMATION
---------------------------------
There are 2 groups of distinct atoms

 Group   1 Type Al  : 12s10p9d6f3g1h contracted to 12s10p9d6f3g1h pattern {111111111111/1111111111/111111111/111111/111/1}
 Group   2 Type H   : 6s4p3d2f1g contracted to 6s4p3d2f1g pattern {111111/1111/111/11/1}

Atom   0Al   basis set group =>   1
Atom   1Al   basis set group =>   1
Atom   2H    basis set group =>   2
Atom   3H    basis set group =>   2
Atom   4H    basis set group =>   2
Atom   5H    basis set group =>   2
Atom   6H    basis set group =>   2
Atom   7H    basis set group =>   2
Atom   8Al   basis set group =>   1
Atom   9H    basis set group =>   2
Atom  10H    basis set group =>   2
Atom  11H    basis set group =>   2


           ************************************************************
           *        Program running with 24 parallel MPI-processes    *
           *              working on a common directory               *
           ************************************************************
------------------------------------------------------------------------------
                             ORCA STARTUP CALCULATIONS
                           -- RI-GTO INTEGRALS CHOSEN --
------------------------------------------------------------------------------
------------------------------------------------------------------------------
                   ___                                                        
                  /   \      - P O W E R E D   B Y -                         
                 /     \                                                     
                 |  |  |   _    _      __       _____    __    __             
                 |  |  |  | |  | |    /  \     |  _  \  |  |  /  |          
                  \  \/   | |  | |   /    \    | | | |  |  | /  /          
                 / \  \   | |__| |  /  /\  \   | |_| |  |  |/  /          
                |  |  |   |  __  | /  /__\  \  |    /   |      \           
                |  |  |   | |  | | |   __   |  |    \   |  |\   \          
                \     /   | |  | | |  |  |  |  | |\  \  |  | \   \       
                 \___/    |_|  |_| |__|  |__|  |_| \__\ |__|  \__/        
                                                                              
                      - O R C A' S   B I G   F R I E N D -                    
                                      &                                       
                       - I N T E G R A L  F E E D E R -                       
                                                                              
 v1 FN, 2020, v2 2021, v3 2022-2024                                           
------------------------------------------------------------------------------


----------------------
SHARK INTEGRAL PACKAGE
----------------------

Number of atoms                             ...     12
Number of basis functions                   ...    480
Number of shells                            ...    156
Maximum angular momentum                    ...      4
Integral batch strategy                     ... SHARK/LIBINT Hybrid
RI-J (if used) integral strategy            ... SPLIT-RIJ (Revised 2003 algorithm where possible)
Printlevel                                  ...      1
Contraction scheme used                     ... SEGMENTED contraction
Prescreening option                         ... SCHWARTZ
   Thresh                                   ... 3.000e-16
   Tcut                                     ... 3.000e-16
   Tpresel                                  ... 3.000e-16 
Coulomb Range Separation                    ... NOT USED
Exchange Range Separation                   ... NOT USED
Multipole approximations                    ... NOT USED
Finite Nucleus Model                        ... NOT USED
CABS basis                                  ... NOT available
Auxiliary Coulomb fitting basis             ... AVAILABLE
   # of basis functions in Aux-J            ...    252
   # of shells in Aux-J                     ...     96
   Maximum angular momentum in Aux-J        ...      4
Auxiliary J/K fitting basis                 ... NOT available
Auxiliary Correlation fitting basis         ... AVAILABLE
   # of basis functions in Aux-C            ...   1005
   # of shells in Aux-C                     ...    267
   Maximum angular momentum in Aux-C        ...      5
Auxiliary 'external' fitting basis          ... NOT available

Checking pre-screening integrals            ... done (  0.0 sec) Dimension = 156
   => SHARK Basis and OBASIS are compatible. Storing Pre-screening
Shell pair information
Shell pair cut-off parameter TPreSel        ...   3.0e-16
Total number of shell pairs                 ...     12246
Shell pairs after pre-screening             ...     11210
Total number of primitive shell pairs       ...     29205
Primitive shell pairs kept                  ...     21436
          la=0 lb=0:   1816 shell pairs
          la=1 lb=0:   2588 shell pairs
          la=1 lb=1:    968 shell pairs
          la=2 lb=0:   1703 shell pairs
          la=2 lb=1:   1247 shell pairs
          la=2 lb=2:    429 shell pairs
          la=3 lb=0:    849 shell pairs
          la=3 lb=1:    623 shell pairs
          la=3 lb=2:    416 shell pairs
          la=3 lb=3:    106 shell pairs
          la=4 lb=0:    189 shell pairs
          la=4 lb=1:    135 shell pairs
          la=4 lb=2:     90 shell pairs
          la=4 lb=3:     45 shell pairs
          la=4 lb=4:      6 shell pairs

Checking whether 4 symmetric matrices of dimension 480 fit in memory
:Max Core in MB      =   4096.00
 MB in use           =     19.96
 MB left             =   4076.04
 MB needed           =      3.52
 Data fit in memory  = YES
Calculating RI/J V-Matrix + Cholesky decomp.... done (  0.0 sec)
Calculating RI/C V-Matrix + Cholesky decomp.... done (  0.0 sec)
Calculating Nuclear repulsion               ... done (  0.0 sec) ENN=    172.453727409380 Eh

Diagonalization of the overlap matrix:
Smallest eigenvalue                        ... 1.445e-04
Time for diagonalization                   ...    0.025 sec
Threshold for overlap eigenvalues          ... 1.000e-07
Number of eigenvalues below threshold      ... 0
Time for construction of square roots      ...    0.016 sec
Total time needed                          ...    0.043 sec

-------------------
DFT GRID GENERATION
-------------------

General Integration Accuracy     IntAcc      ... 4.959
Radial Grid Type                 RadialGrid  ... OptM3 with GC (2021)
Angular Grid (max. ang.)         AngularGrid ... 6 (Lebedev-590)
Angular grid pruning method      GridPruning ... 4 (adaptive)
Weight generation scheme         WeightScheme... mBecke (2022)
Basis function cutoff            BFCut       ... 3.0000e-16
Integration weight cutoff        WCut        ... 1.0000e-14
Partially contracted basis set               ... off
Rotationally invariant grid construction     ... off
Angular grids for H and He will be reduced by one unit

Total number of grid points                  ...   127982
Total number of batches                      ...     2006
Average number of points per batch           ...       63
Average number of grid points per atom       ...    10665

--------------------
COSX GRID GENERATION
--------------------

GRIDX 1
-------
General Integration Accuracy     IntAcc      ... 4.020
Radial Grid Type                 RadialGrid  ... OptM3 with GC (2021)
Angular Grid (max. ang.)         AngularGrid ... 2 (Lebedev-110)
Angular grid pruning method      GridPruning ... 4 (adaptive)
Weight generation scheme         WeightScheme... mBecke (2022)
Basis function cutoff            BFCut       ... 3.0000e-16
Integration weight cutoff        WCut        ... 1.0000e-14
Partially contracted basis set               ... on
Rotationally invariant grid construction     ... off
Angular grids for H and He will be reduced by one unit

Total number of grid points                  ...    12849
Total number of batches                      ...      108
Average number of points per batch           ...      118
Average number of grid points per atom       ...     1071
UseSFitting                                  ... on

GRIDX 2
-------
General Integration Accuracy     IntAcc      ... 4.338
Radial Grid Type                 RadialGrid  ... OptM3 with GC (2021)
Angular Grid (max. ang.)         AngularGrid ... 3 (Lebedev-194)
Angular grid pruning method      GridPruning ... 4 (adaptive)
Weight generation scheme         WeightScheme... mBecke (2022)
Basis function cutoff            BFCut       ... 3.0000e-16
Integration weight cutoff        WCut        ... 1.0000e-14
Partially contracted basis set               ... on
Rotationally invariant grid construction     ... off
Angular grids for H and He will be reduced by one unit

Total number of grid points                  ...    29682
Total number of batches                      ...      237
Average number of points per batch           ...      125
Average number of grid points per atom       ...     2474
UseSFitting                                  ... on

GRIDX 3
-------
General Integration Accuracy     IntAcc      ... 4.871
Radial Grid Type                 RadialGrid  ... OptM3 with GC (2021)
Angular Grid (max. ang.)         AngularGrid ... 4 (Lebedev-302)
Angular grid pruning method      GridPruning ... 4 (adaptive)
Weight generation scheme         WeightScheme... mBecke (2022)
Basis function cutoff            BFCut       ... 3.0000e-16
Integration weight cutoff        WCut        ... 1.0000e-14
Partially contracted basis set               ... on
Rotationally invariant grid construction     ... off
Angular grids for H and He will be reduced by one unit

Total number of grid points                  ...    59558
Total number of batches                      ...      472
Average number of points per batch           ...      126
Average number of grid points per atom       ...     4963
UseSFitting                                  ... on
Grids setup in   1.5 sec
Initializing property integral containers    ... done (  0.0 sec)

SHARK setup successfully completed in   1.8 seconds

Maximum memory used throughout the entire STARTUP-calculation: 42.9 MB


           ************************************************************
           *        Program running with 24 parallel MPI-processes    *
           *              working on a common directory               *
           ************************************************************
-------------------------------------------------------------------------------
                                 ORCA GUESS
                   Start orbitals & Density for SCF / CASSCF
-------------------------------------------------------------------------------

------------
SCF SETTINGS
------------
Hamiltonian:
 Density Functional     Method          .... DFT(GTOs)
 Exchange Functional    Exchange        .... PBE
   PBE kappa parameter   XKappa         ....  0.804000
   PBE mue parameter    XMuePBE         ....  0.219520
 Correlation Functional Correlation     .... PBE
   PBE beta parameter  CBetaPBE         ....  0.066725
 LDA part of GGA corr.  LDAOpt          .... PW91-LDA
 Gradients option       PostSCFGGA      .... off
 Hybrid DFT is turned on
   Fraction HF Exchange ScalHFX         ....  0.500000
   Scaling of DF-GGA-X  ScalDFX         ....  0.500000
   Scaling of DF-GGA-C  ScalDFC         ....  0.875000
   Scaling of DF-LDA-C  ScalLDAC        ....  0.875000
   Perturbative correction              ....  0.125000
 RI-approximation to the Coulomb term is turned on
   Number of AuxJ basis functions       .... 252
   RIJ-COSX (HFX calculated with COS-X)).... on


General Settings:
 Integral files         IntName         .... run
 Hartree-Fock type      HFTyp           .... RHF
 Total Charge           Charge          ....    0
 Multiplicity           Mult            ....    1
 Number of Electrons    NEL             ....   48
 Basis Dimension        Dim             ....  480
 Nuclear Repulsion      ENuc            ....    172.4537274094 Eh

Convergence Acceleration:
 AO-DIIS                CNVDIIS         .... on
   Start iteration      DIISMaxIt       ....    12
   Startup error        DIISStart       ....  0.200000
   # of expansion vecs  DIISMaxEq       ....     5
   Bias factor          DIISBfac        ....   1.050
   Max. coefficient     DIISMaxC        ....  10.000
 MO-DIIS                CNVKDIIS        .... off
 Trust-Rad. Augm. Hess. CNVTRAH         .... auto
   Auto Start mean grad. ratio tolernc. ....  1.125000
   Auto Start start iteration           ....    50
   Auto Start num. interpolation iter.  ....    10
   Max. Number of Micro iterations      ....    24
   Max. Number of Macro iterations      .... Maxiter - #DIIS iter
   Number of Davidson start vectors     ....     2
   Converg. threshold    (grad. norm)   ....   1.000e-09
   Grad. Scal. Fac. for Micro threshold ....   0.100
   Minimum threshold for Micro iter.    ....   1.000e-02
   NR start threshold (gradient norm)   ....   1.000e-04
   Initial trust radius                 ....   0.400
   Minimum AH scaling param. (alpha)    ....   1.000
   Maximum AH scaling param. (alpha)    .... 1000.000
   Quad. conv. algorithm                .... NR
   White noise on init. David. guess    .... on
   Maximum white noise                  ....   0.010
   Pseudo random numbers                .... off
   Inactive MOs                         .... canonical
   Orbital update algorithm             .... Taylor
   Preconditioner                       .... Diag
   Full preconditioner red. dimension   ....   250
 SOSCF                 CNVSOSCF           .... on
   Start iteration     SOSCFMaxIt         ....   150
   Startup grad/error  SOSCFStart         ....  0.003300
   Hessian update      SOSCFHessUp        .... L-BFGS
   Autom. constraints  SOSCFAutoConstrain .... off
 Level Shifting         CNVShift        .... on
   Level shift para.    LevelShift      ....    0.2500
   Turn off err/grad.   ShiftErr        ....    0.0010
 Zerner damping         CNVZerner       .... off
 Static damping         CNVDamp         .... on
   Fraction old density DampFac         ....    0.7000
   Max. Damping (<1)    DampMax         ....    0.9800
   Min. Damping (>=0)   DampMin         ....    0.0000
   Turn off err/grad.   DampErr         ....    0.1000

SCF Procedure:
 Maximum # iterations   MaxIter         ....   125
 SCF integral mode      SCFMode         .... Direct
   Integral package                     .... SHARK and LIBINT hybrid scheme
 Reset frequency        DirectResetFreq ....    20
 Integral Threshold     Thresh          ....  3.000e-16 Eh
 Primitive CutOff       TCut            ....  3.000e-16 Eh

Convergence Tolerance:
 Convergence Check Mode ConvCheckMode   .... All-Criteria
 Convergence forced     ConvForced      .... 0
 Energy Change          TolE            ....  1.000e-14 Eh
 Max Density Change     TolMaxP         ....  1.000e-14
 RMS Density Change     TolRMSP         ....  1.000e-14
 Orbital Gradient       TolG            ....  1.000e-09
 Orbital Rotation angle TolX            ....  1.000e-09
 DIIS Error             TolErr          ....  1.000e-14

------------------------------
INITIAL GUESS: MODEL POTENTIAL
------------------------------
Loading Hartree-Fock densities                     ... done
Calculating cut-offs                               ... done
Initializing the effective Hamiltonian             ... done
Setting up the integral package (SHARK)            ... done
Starting the Coulomb interaction                   ... done (   0.0 sec)
Making the grid                                    ... done (   0.0 sec)
Mapping shells                                     ... done
Starting the XC term evaluation                    ... done (   0.0 sec)
  promolecular density results
     # of electrons  =     47.996241550
     EX              =    -56.708165913
     EC              =     -1.234799295
     EX+EC           =    -57.942965208
Transforming the Hamiltonian                       ... done (   0.0 sec)
Diagonalizing the Hamiltonian                      ... done (   0.0 sec)
Back transforming the eigenvectors                 ... done (   0.0 sec)
Now organizing SCF variables                       ... done
                      ------------------
                      INITIAL GUESS DONE (   0.2 sec)
                      ------------------
             **** ENERGY FILE WAS UPDATED (run.en.tmp) ****
Finished Guess after   1.0 sec
Maximum memory used throughout the entire GUESS-calculation: 29.5 MB


           ************************************************************
           *        Program running with 24 parallel MPI-processes    *
           *              working on a common directory               *
           ************************************************************

-------------------------------------------------------------------------------------------
                                      ORCA LEAN-SCF
                              memory conserving SCF solver
-------------------------------------------------------------------------------------------

----------------------------------------D-I-I-S--------------------------------------------
Iteration    Energy (Eh)           Delta-E    RMSDP     MaxDP     DIISErr   Damp  Time(sec)
-------------------------------------------------------------------------------------------
               ***  Starting incremental Fock matrix formation  ***
    1    -732.2011583559014980     0.00e+00  1.30e-03  1.25e-02  9.89e-02  0.700   1.7
    2    -732.2151916890461507    -1.40e-02  1.06e-03  1.05e-02  7.21e-02  0.700   1.1
                               ***Turning on AO-DIIS***
    3    -732.2252853733555185    -1.01e-02  8.08e-04  7.36e-03  5.01e-02  0.700   1.0
    4    -732.2322977919754976    -7.01e-03  1.90e-03  1.79e-02  3.50e-02  0.000   1.0
                              *** Initializing SOSCF ***
---------------------------------------S-O-S-C-F--------------------------------------
Iteration    Energy (Eh)           Delta-E    RMSDP     MaxDP     MaxGrad    Time(sec)
--------------------------------------------------------------------------------------
    5    -732.2486383332391142    -1.63e-02  7.49e-05  8.32e-04  1.22e-03     1.1
               *** Restarting incremental Fock matrix formation ***
    6    -732.2486477929310240    -9.46e-06  4.38e-05  4.15e-04  1.70e-04     1.7
    7    -732.2486490856779255    -1.29e-06  1.26e-05  1.10e-04  6.36e-05     1.5
    8    -732.2486491828694852    -9.72e-08  2.40e-06  2.63e-05  9.58e-06     1.5
    9    -732.2486491867191489    -3.85e-09  2.70e-07  4.66e-06  1.16e-06     1.4
   10    -732.2486491868087342    -8.96e-11  4.42e-08  4.11e-07  3.76e-07     1.4
   11    -732.2486491868080520     6.82e-13  8.44e-09  1.27e-07  3.45e-08     1.3
   12    -732.2486491868066878     1.36e-12  2.60e-09  1.95e-08  5.63e-09     1.3
   13    -732.2486491868062330     4.55e-13  1.30e-09  1.97e-08  1.31e-09     1.2
   14    -732.2486491868057783     4.55e-13  1.17e-10  2.20e-09  1.01e-09     1.2
                    ***Orbital Rotation convergence achieved***
   15    -732.2486491868053236     4.55e-13  2.47e-11  3.28e-10  1.00e-09     0.9
   16    -732.2486491868050962     2.27e-13  0.00e+00  0.00e+00  1.00e-09     0.8
                           ***RMSP convergence achieved***
                           ***MAXP convergence achieved***
                       ***Gradient convergence achieved***
   17    -732.2486491868050962     0.00e+00  0.00e+00  0.00e+00  1.00e-09     0.3
                          ***Energy convergence achieved***

               *****************************************************
               *                     SUCCESS                       *
               *           SCF CONVERGED AFTER  17 CYCLES          *
               *****************************************************

Recomputing exchange energy using gridx3       ... done (    2.365 sec)
Old exchange energy                            :    -28.818810388 Eh
New exchange energy                            :    -28.818804957 Eh
Exchange energy change after final integration :      0.000005430 Eh
Total energy after final integration           :   -732.248643756 Eh
             **** ENERGY FILE WAS UPDATED (run.en.tmp) ****

----------------
TOTAL SCF ENERGY
----------------

Total Energy       :       -732.24864375644677 Eh          -19925.49859 eV

Components:
Nuclear Repulsion  :        172.45372740938041 Eh            4692.70450 eV
Electronic Energy  :       -904.70237659618556 Eh          -24618.20323 eV
One Electron Energy:      -1359.99777095715126 Eh          -37007.42077 eV
Two Electron Energy:        455.29539436096576 Eh           12389.21754 eV

Virial components:
Potential Energy   :      -1463.14534967688223 Eh          -39814.20908 eV
Kinetic Energy     :        730.89670592043558 Eh           19888.71049 eV
Virial Ratio       :          2.00184969753600

DFT components:
N(Alpha)           :       24.000002440663 electrons
N(Beta)            :       24.000002440663 electrons
N(Total)           :       48.000004881325 electrons
E(X)               :      -28.627463269109 Eh       
E(C)               :       -1.432401055585 Eh       
E(XC)              :      -30.059864324694 Eh       

---------------
SCF CONVERGENCE
---------------

  Last Energy change         ...    0.0000e+00  Tolerance :   1.0000e-14
  Last MAX-Density change    ...    0.0000e+00  Tolerance :   1.0000e-14
  Last RMS-Density change    ...    0.0000e+00  Tolerance :   1.0000e-14
  Last DIIS Error            ...    1.2227e-03  Tolerance :   1.0000e-14
  Last Orbital Gradient      ...    9.9962e-10  Tolerance :   1.0000e-09
  Last Orbital Rotation      ...    0.0000e+00  Tolerance :   1.0000e-09


----------------
ORBITAL ENERGIES
----------------

  NO   OCC          E(Eh)            E(eV) 
   0   2.0000     -56.937536     -1549.3491 
   1   2.0000     -56.937518     -1549.3486 
   2   2.0000     -56.936438     -1549.3192 
   3   2.0000      -4.433816      -120.6503 
   4   2.0000      -4.433785      -120.6494 
   5   2.0000      -4.432642      -120.6183 
   6   2.0000      -2.893739       -78.7427 
   7   2.0000      -2.893684       -78.7411 
   8   2.0000      -2.892757       -78.7159 
   9   2.0000      -2.892058       -78.6969 
  10   2.0000      -2.891931       -78.6935 
  11   2.0000      -2.890642       -78.6584 
  12   2.0000      -2.887413       -78.5705 
  13   2.0000      -2.887384       -78.5697 
  14   2.0000      -2.886169       -78.5366 
  15   2.0000      -0.612505       -16.6671 
  16   2.0000      -0.506241       -13.7755 
  17   2.0000      -0.503241       -13.6939 
  18   2.0000      -0.408287       -11.1100 
  19   2.0000      -0.401389       -10.9223 
  20   2.0000      -0.389488       -10.5985 
  21   2.0000      -0.381081       -10.3697 
  22   2.0000      -0.367910       -10.0113 
  23   2.0000      -0.360826        -9.8186 
  24   0.0000      -0.002974        -0.0809 
  25   0.0000       0.001682         0.0458 
  26   0.0000       0.009874         0.2687 
  27   0.0000       0.011363         0.3092 
  28   0.0000       0.034106         0.9281 
  29   0.0000       0.039976         1.0878 
  30   0.0000       0.042732         1.1628 
  31   0.0000       0.051342         1.3971 
  32   0.0000       0.067423         1.8347 
  33   0.0000       0.068402         1.8613 
  34   0.0000       0.068732         1.8703 
*Only the first 10 virtual orbitals were printed.
-------
TIMINGS
-------

Total SCF time: 0 days 0 hours 0 min 24 sec 

Total time                  ....      24.035 sec
Sum of individual times     ....      23.712 sec  ( 98.7%)

SCF preparation             ....       0.867 sec  (  3.6%)
Fock matrix formation       ....      21.076 sec  ( 87.7%)
  Startup                   ....       0.025 sec  (  0.1% of F)
  Split-RI-J                ....       0.782 sec  (  3.7% of F)
  Chain of spheres X        ....      16.962 sec  ( 80.5% of F)
  XC integration            ....       2.998 sec  ( 14.2% of F)
    XC Preparation          ....       0.000 sec  (  0.0% of XC)
    Basis function eval.    ....       0.446 sec  ( 14.9% of XC)
    Density eval.           ....       0.651 sec  ( 21.7% of XC)
    XC-Functional eval.     ....       0.036 sec  (  1.2% of XC)
    XC-Potential eval.      ....       1.233 sec  ( 41.1% of XC)
Diagonalization             ....       0.000 sec  (  0.0%)
Density matrix formation    ....       0.200 sec  (  0.8%)
Total Energy calculation    ....       0.092 sec  (  0.4%)
Population analysis         ....       0.000 sec  (  0.0%)
Orbital Transformation      ....       0.150 sec  (  0.6%)
Orbital Orthonormalization  ....       0.000 sec  (  0.0%)
DIIS solution               ....       0.538 sec  (  2.2%)
SOSCF solution              ....       0.786 sec  (  3.3%)
Finished LeanSCF after  24.1 sec

Maximum memory used throughout the entire LEANSCF-calculation: 44.3 MB


           ************************************************************
           *        Program running with 24 parallel MPI-processes    *
           *              working on a common directory               *
           ************************************************************

------------------------------------------------------------------------------
                                ORCA  MP2 
------------------------------------------------------------------------------

Freezing NCore=30 chemical core electrons

----------------------
RI-MP2 ENERGY+GRADIENT
----------------------
Dimension of the orbital basis            ...  480
Dimension of the AuxC basis               ... 1005
Memory devoted to MP2                     ... 4096 MB   
Data format for matrix containers         ... DOUBLE
Compression type for matrix containers    ... UNCOMPRESSED
Overall scaling of the MP2 energy         ...   1.250e-01

-----------------------
SHARK RI TRANSFORMATION
-----------------------

Number of basis functions                ...    480
Number of aux functions                  ...   1005
Number of operators                      ...      1
Generation of IJK                        ... YES
Generation of IAK                        ... YES
Generation of ABK                        ... NO
Orbital Range Operator  0:    0-  23 to   24- 479

Aux basis identifier                     ...   AUXC
Contraction scheme used                  ... SEGMENTED
Do orthogonalization                     ... YES
All operator combinations                ... NO
Transpose (ia|K)                         ... NO
Integral generator used                  ... LIBINT
Starting integral generation + trafo... 
Half trafo (segmented) done. Total time =  0.2 sec. integrals=  0.1 sec trafo=  0.1 sec
Integral generation and half transformation done (  0.2 sec)

Reading or making V^(-1/2)          ... done (  0.0 sec)
Sorting IJK integrals               ... done (  0.0 sec)
Sorting IAK integrals               ... done (  0.1 sec)

SHARK RI integral transformation done. Total time =  0.3 sec.

Opening buffers                              ... done
Frozen core precalculation                   ... done

Starting loop over batches of integrals:

Operator 0  - window                       ... ( 15- 23)x( 24-479)
Operator 0  - Memory available             ...  4096 MB
Operator 0  - Memory needed per MO         ...   3.5 MB
Operator 0  - Number of orbitals per batch ... 1
Operator 0  - Number of batches            ... 1

OPERATOR  0   PASS   0:  MOs    15 ...   15 +   16 ...   16 +   17 ...   17 +   18 ...   18
                            +   19 ...   19 +   20 ...   20 +   21 ...   21 +   22 ...   22
                            +   23 ...   23
  Reading integrals       ... ok
Closing buffer GIPV ( 0.03 GB; CompressionRatio= 1.00)
Time spent in pair loops =     0.669 sec
Deleting buffers (Ka|jb) ...done

-----------------------------------------------
 RI-MP2 CORRELATION ENERGY:     -0.050941523 Eh
-----------------------------------------------


---------------------
MP2 DENSITY FORMATION
---------------------

Completing the external part of the density      ... done
Storing the unrelaxed density                    ... done

Re-sorting 3-index density container for op 0    ... done
Computing external part of the Lagrangian        ... done
Calculating the xc-kernel                        ... done
Calculating G(D)                                 ... done
Completing the Lagrangian                        ... done
Solving the Z-vector equations                   ... Using XC Grid                  ... (run.grid_cpscf.tmp) 
Recalculating density on grid  ... (run.grho_cpscf0.tmp) done
Calculating the xc-kernel      ... (run.fxc_cpscf0.tmp) done

-------------------
SHARK CP-SCF DRIVER
-------------------

Dimension of the orbital basis          ...    480
Dimension of the CPSCF-problem          ...  10944
Number of operators                     ...      1
Max. number of iterations               ...    128
Convergence Tolerance                   ... 3.0e-06
Number of perturbations                 ...      1
Perturbation type                       ... REAL

----------------------------
POPLE LINEAR EQUATION SOLVER
----------------------------

  ITERATION   0:   ||err||_max =   8.7707e-03 (   0.6 sec)
  ITERATION   1:   ||err||_max =   9.2272e-04 (   0.6 sec)
  ITERATION   2:   ||err||_max =   1.7607e-04 (   0.6 sec)
  ITERATION   3:   ||err||_max =   2.0103e-05 (   0.6 sec)
  ITERATION   4:   ||err||_max =   4.6783e-06 (   0.6 sec)
  ITERATION   5:   ||err||_max =   8.4915e-07 (   0.6 sec)
done
Finalizing the relaxed density                   ... done
Transforming P to the AO basis                   ... done
Storing the relaxed density                      ... done

------------------------------------
ENERGY WEIGHTED DENSITY FINALIZATION
------------------------------------

Gathering the parts of the W-matrix              ... done
Forming the Z-density                            ... done
Transforming Z to the AO basis                   ... done
Calculating G(Z)                                 ... done
Finalizing the W-matrix                          ... done
Transforming W to the AO basis and storing       ... done

----------------------------------
MP2 DERIVATIVE INTEGRAL GENERATION
----------------------------------

Input SCF Electron Density              ... run.scfp
Input Correlated Electron Density       ... run.pmp2re
Input Energy Weighted Density           ... run.wmp2.tmp

Nuclear repulsion gradient              ... done (  0.0 sec)
HCore & Overlap gradient  (SHARK)       ... done (  0.0 sec)
Two-electron RIJ gradient terms         ... done (  0.9 sec)

-----------------------------------------------------------
MP2 COSX Grid Generation
-----------------------------------------------------------

General Integration Accuracy     IntAcc      ... 4.871
Radial Grid Type                 RadialGrid  ... OptM3 with GC (2021)
Angular Grid (max. ang.)         AngularGrid ... 4 (Lebedev-302)
Angular grid pruning method      GridPruning ... 4 (adaptive)
Weight generation scheme         WeightScheme... mBecke (2022)
Basis function cutoff            BFCut       ... 3.0000e-16
Integration weight cutoff        WCut        ... 1.0000e-14
Partially contracted basis set               ... on
Rotationally invariant grid construction     ... off
Angular grids for H and He will be reduced by one unit

Total number of grid points                  ...    59558
Total number of batches                      ...      472
Average number of points per batch           ...      126
Average number of grid points per atom       ...     4963
UseSFitting                                  ... on
Two-electron COSX gradient terms        ... 
Integration Timings:
Total Time                  =     3.5 sec
Basis fcn evaluation        =     0.0 sec
Density evaluation          =     0.1 sec
A evaluation                =     2.9 sec
A derivative evaluation     =     0.0 sec
S-fit derivative evaluation =     0.0 sec
anal. over. der. evaluation =     0.0 sec
num. over. der. evaluation  =     0.1 sec
K(P) evaluation             =     0.1 sec
finalize                    =     0.0 sec

done (  3.8 sec)
DFT XC gradient                         ... done (  0.9 sec)

-------
TIMINGS
-------

Total time                :   15.813 sec
Integral trafo            :    0.413 sec (  2.6%)
FC preparation            :    0.177 sec (  1.1%)
I/O of integrals          :    0.103 sec (  0.6%)
K(i,j) operators          :    0.086 sec (  0.5%)
T(i,j) pair energies      :    0.014 sec (  0.1%)
V**(-1/2)                 :    0.199 sec (  1.3%)
Gamma(ia|P)               :    0.089 sec (  0.6%)
Gamma-Trafo               :    0.055 sec (  0.4%)
D(virtual)                :    0.008 sec (  0.1%)
D(internal)               :    0.048 sec (  0.3%)
W(virtual)                :    0.017 sec (  0.1%)
W(internal)               :    0.034 sec (  0.2%)
L(virtual)                :    0.259 sec (  1.6%)
L(internal)               :    0.002 sec (  0.0%)
XC kernel                 :    0.031 sec (  0.2%)
G(D)                      :    1.580 sec ( 10.0%)
G(Z)                      :    1.567 sec (  9.9%)
Z-vector solution         :    3.751 sec ( 23.7%)
3-index derivative        :    0.784 sec (  5.0%)
2-index derivative        :    0.035 sec (  0.2%)
Fock matrix gradient      :    5.661 sec ( 35.8%)


---------------------------------------
MP2 TOTAL ENERGY:     -732.299585279 Eh
---------------------------------------

The final MP2 gradient
  0:   0.00000259   0.00001149  -0.00000168
  1:  -0.00000050  -0.00000039  -0.00000424
  2:  -0.00000470   0.00000016  -0.00000238
  3:   0.00000064   0.00000149  -0.00000101
  4:   0.00000311  -0.00000328  -0.00000084
  5:   0.00000195  -0.00000179  -0.00000331
  6:   0.00000053  -0.00000017   0.00000468
  7:  -0.00000051  -0.00000118   0.00000066
  8:  -0.00000096  -0.00000967  -0.00000039
  9:  -0.00000225   0.00000113  -0.00000348
 10:   0.00000195   0.00000107  -0.00000105
 11:  -0.00000248  -0.00000087  -0.00000109

-----------------------------------
NORM OF THE MP2 GRADIENT:  0.000020
-----------------------------------

Maximum memory used throughout the entire MP2-calculation: 167.2 MB

-------------------------   --------------------
FINAL SINGLE POINT ENERGY      -732.299585278975
-------------------------   --------------------



           ************************************************************
           *        Program running with 24 parallel MPI-processes    *
           *              working on a common directory               *
           ************************************************************

------------------------------------------------------------------------------
                              ORCA PROPERTY CALCULATIONS
------------------------------------------------------------------------------

GBWName                                 ... run.gbw
Number of atoms                         ...     12
Number of basis functions               ...    480
Max core memory                         ...   4096 MB

Electric properties:
Dipole moment                           ... YES
Quadrupole moment                       ...  NO
Static polarizability (Dipole/Dipole)   ...  NO
Static polarizability (Dipole/Quad.)    ...  NO
Static polarizability (Quad./Quad.)     ...  NO
Static polarizability (Velocity)        ...  NO
Static hyperpolarizability              ...  NO

Atomic electric properties:
Dipole moment                           ...  NO
Quadrupole moment                       ...  NO
Static polarizability                   ...  NO

Choice of electric origin               ... Center of mass
Position of electric origin             ...     0.016624     0.001430     3.182396

General magnetic properties:
Magnetizability                         ...  NO

EPR properties:
g-Tensor (aka g-matrix)                 ...  NO
Zero-Field splitting spin-orbit         ...  NO
Zero-field splitting spin-spin          ...  NO
Hyperfine couplings                     ...  NO (   0 nuclei)
Quadrupole couplings                    ...  NO (   0 nuclei)
Contact density                         ...  NO (   0 nuclei)

NMR properties:
Chemical shifts                         ...  NO (   0 nuclei)
Spin-rotation constants                 ...  NO (   0 nuclei)
Spin-spin couplings                     ...  NO (   0 nuclei,    0 pairs)

Choice of magnetic origin               ... GIAO
Position of magnetic origin             ...     0.000000     0.000000     0.000000

Properties with geometric perturbations:
SCF Hessian                             ...  NO
IR spectrum                             ...  NO
VCD spectrum                            ...  NO
X-ray spectroscopy properties:
SCF XES/XAS/RIXS spectra                ...  NO

SCF SOC stabilization energy            ...  NO
Diagonal Born-Oppenheimer correction    ...  NO

-------------
DIPOLE MOMENT
-------------

Method             : SCF
Type of density    : Electron Density
Multiplicity       :   1
Irrep              :   0
Energy             :  -732.2486437564467678 Eh
Basis              : AO
                                X                 Y                 Z
Electronic contribution:     -0.003802659       0.002490789       0.134485699
Nuclear contribution   :      0.001391209      -0.000779447      -0.038627295
                        -----------------------------------------
Total Dipole Moment    :     -0.002411451       0.001711342       0.095858404
                        -----------------------------------------
Magnitude (a.u.)       :      0.095904001
Magnitude (Debye)      :      0.243768597



--------------------
Rotational spectrum 
--------------------
 
Rotational constants in cm-1:             0.107407             0.106607             0.057517 
Rotational constants in MHz :          3219.992106          3195.985217          1724.316607 

Dipole components along the rotational axes: 
x,y,z [a.u.] :    -0.012077     0.095105     0.002596 
x,y,z [Debye]:    -0.030697     0.241738     0.006599 

 

-------------
DIPOLE MOMENT
-------------

Method             : MP2
Type of density    : Electron Density
Multiplicity       :   1
Level              : Unrelaxed density
Irrep              :   0
Energy             :     0.0000000000000000 Eh
Basis              : AO
                                X                 Y                 Z
Electronic contribution:     -0.003795349       0.002491406       0.134383899
Nuclear contribution   :      0.001391209      -0.000779447      -0.038627295
                        -----------------------------------------
Total Dipole Moment    :     -0.002404140       0.001711959       0.095756604
                        -----------------------------------------
Magnitude (a.u.)       :      0.095802076
Magnitude (Debye)      :      0.243509526



--------------------
Rotational spectrum 
--------------------
 
Rotational constants in cm-1:             0.107407             0.106607             0.057517 
Rotational constants in MHz :          3219.992106          3195.985217          1724.316607 

Dipole components along the rotational axes: 
x,y,z [a.u.] :    -0.012063     0.095004     0.002588 
x,y,z [Debye]:    -0.030661     0.241482     0.006579 

 

-------------
DIPOLE MOMENT
-------------

Method             : MP2
Type of density    : Electron Density
Multiplicity       :   1
Level              : Relaxed density
Irrep              :   0
Energy             :     0.0000000000000000 Eh
Basis              : AO
                                X                 Y                 Z
Electronic contribution:     -0.003762794       0.002491122       0.133587389
Nuclear contribution   :      0.001391209      -0.000779447      -0.038627295
                        -----------------------------------------
Total Dipole Moment    :     -0.002371585       0.001711675       0.094960093
                        -----------------------------------------
Magnitude (a.u.)       :      0.095005124
Magnitude (Debye)      :      0.241483834



--------------------
Rotational spectrum 
--------------------
 
Rotational constants in cm-1:             0.107407             0.106607             0.057517 
Rotational constants in MHz :          3219.992106          3195.985217          1724.316607 

Dipole components along the rotational axes: 
x,y,z [a.u.] :    -0.011950     0.094216     0.002552 
x,y,z [Debye]:    -0.030376     0.239478     0.006487 

 

Dipole moment calculation done in   0.0 sec 

Maximum memory used throughout the entire PROP-calculation: 28.3 MB



--------------------------------------------------------------------------------
                   Intrinsic Reaction Coordinate Calculation
--------------------------------------------------------------------------------

System:
Nr. of atoms                        .... 12
Algorithm: SD (steepest descent step) plus correction
Settings:
Max. no of cycles        MaxIter    .... 20
Direction                           .... Forward and backward
Initial displacement Hessian type   .... Read
Hessian Filename                    .... run.hess
Following Hessian mode              .... 0
Initial displacement type           .... Energy
  Initial displacement energy change.... 2.000 mEh
Coordinate system following type    .... Cartesian
Length of steepest descent step     .... 0.010 bohr
Do parabolic fit 
  if SD step is uphill              .... YES
Do Correction to SD step            .... YES
Scaling for length of correction
  compared to SD step               .... 0.333
Do parabolic fit to SD correction   .... YES
Only interpolate for parabolic fit  .... YES
Do update to length of
  SD step and correction            .... YES
Convergence Tolerances:
  Max. Gradient            TolMAXG  ....  3.0000e-05 Eh/bohr
  RMS Gradient             TolRMSG  ....  8.0000e-06 Eh/bohr
Storing full IRC trajectory in      .... run_IRC_Full_trj.xyz
Storing forward trajectory in       .... run_IRC_F_trj.xyz
Storing backward trajectory in      .... run_IRC_B_trj.xyz


 ...good, the file run.hess exists
Reading the hessian file           ...... done
Determining length of initial displacement:
  Requested energy change (quadratic behavior): 2.000 mEh
  Resulting scaling factor for initial displacement along normalized TS mode: 12.4547

         *************************************************************
         *                          FORWARD IRC                      *
         *************************************************************

Iteration    E(Eh)      dE(kcal/mol)  max(|G|)   RMS(G) 
Convergence thresholds                0.000030  0.000008            
    0      -731.698774   377.013970    0.069784  0.021181
    1      -731.700184   376.129332    0.070469  0.021330
    2      -731.701609   375.235200    0.071152  0.021478
    3      -731.703048   374.331907    0.071831  0.021628
    4      -731.704502   373.419730    0.072508  0.021778
    5      -731.705969   372.499005    0.073179  0.021928
    6      -731.707449   371.570034    0.073845  0.022078
    7      -731.708942   370.633208    0.074504  0.022227
    8      -731.710447   369.688933    0.075157  0.022377
    9      -731.711963   368.737647    0.075801  0.022526
   10      -731.713490   367.779800    0.076436  0.022674
   11      -731.715026   366.815934    0.077062  0.022821
   12      -731.716570   365.846562    0.077677  0.022967
   13      -731.718123   364.872218    0.078281  0.023111
   14      -731.719683   363.893506    0.078873  0.023254
   15      -731.721248   362.911085    0.079452  0.023395
   16      -731.722819   361.925637    0.080017  0.023534
   17      -731.724393   360.937918    0.080567  0.023671
   18      -731.725969   359.948591    0.081103  0.023806
   19      -731.727547   358.958503    0.081622  0.023939

         *************************************************************
         *  MAXIMUM NUMBER OF ITERATIONS REACHED - STOPPING IRC RUN  *
         *************************************************************


         *************************************************************
         *                          BACKWARD IRC                     *
         *************************************************************

Iteration    E(Eh)      dE(kcal/mol)  max(|G|)   RMS(G) 
Convergence thresholds                0.000030  0.000008            
    0      -731.710109   369.901163    0.074369  0.022356
    1      -731.711672   368.920662    0.075026  0.022507
    2      -731.713244   367.933838    0.075670  0.022656
    3      -731.714826   366.941452    0.076302  0.022804
    4      -731.716415   365.944128    0.076919  0.022951
    5      -731.718011   364.942536    0.077521  0.023095
    6      -731.719613   363.937559    0.078106  0.023237
    7      -731.721218   362.929985    0.078675  0.023376
    8      -731.722827   361.920545    0.079226  0.023513
    9      -731.724437   360.910292    0.079759  0.023647
   10      -731.726047   359.900001    0.080272  0.023778
   11      -731.727655   358.890760    0.080765  0.023905
   12      -731.729260   357.883601    0.081238  0.024029
   13      -731.730860   356.879562    0.081689  0.024150
   14      -731.732454   355.879745    0.082119  0.024267
   15      -731.734038   354.885352    0.082526  0.024380
   16      -731.735612   353.897558    0.082910  0.024489
   17      -731.737174   352.917596    0.083271  0.024594
   18      -731.738721   351.946657    0.083608  0.024695
   19      -731.740252   350.986027    0.083921  0.024792

         *************************************************************
         *  MAXIMUM NUMBER OF ITERATIONS REACHED - STOPPING IRC RUN  *
         *************************************************************


---------------------------------------------------------------
                       IRC PATH SUMMARY              
---------------------------------------------------------------
All gradients are in Eh/Bohr.

Step        E(Eh)      dE(kcal/mol)  max(|G|)   RMS(G) 
   1      -731.740252   350.986027    0.083921  0.024792
   2      -731.738721   351.946657    0.083608  0.024695
   3      -731.737174   352.917596    0.083271  0.024594
   4      -731.735612   353.897558    0.082910  0.024489
   5      -731.734038   354.885352    0.082526  0.024380
   6      -731.732454   355.879745    0.082119  0.024267
   7      -731.730860   356.879562    0.081689  0.024150
   8      -731.729260   357.883601    0.081238  0.024029
   9      -731.727655   358.890760    0.080765  0.023905
  10      -731.726047   359.900001    0.080272  0.023778
  11      -731.724437   360.910292    0.079759  0.023647
  12      -731.722827   361.920545    0.079226  0.023513
  13      -731.721218   362.929985    0.078675  0.023376
  14      -731.719613   363.937559    0.078106  0.023237
  15      -731.718011   364.942536    0.077521  0.023095
  16      -731.716415   365.944128    0.076919  0.022951
  17      -731.714826   366.941452    0.076302  0.022804
  18      -731.713244   367.933838    0.075670  0.022656
  19      -731.711672   368.920662    0.075026  0.022507
  20      -731.710109   369.901163    0.074369  0.022356
  21      -732.299585    0.000000    0.000011  0.000003 <= TS
  22      -731.698774   377.013970    0.069784  0.021181
  23      -731.700184   376.129332    0.070469  0.021330
  24      -731.701609   375.235200    0.071152  0.021478
  25      -731.703048   374.331907    0.071831  0.021628
  26      -731.704502   373.419730    0.072508  0.021778
  27      -731.705969   372.499005    0.073179  0.021928
  28      -731.707449   371.570034    0.073845  0.022078
  29      -731.708942   370.633208    0.074504  0.022227
  30      -731.710447   369.688933    0.075157  0.022377
  31      -731.711963   368.737647    0.075801  0.022526
  32      -731.713490   367.779800    0.076436  0.022674
  33      -731.715026   366.815934    0.077062  0.022821
  34      -731.716570   365.846562    0.077677  0.022967
  35      -731.718123   364.872218    0.078281  0.023111
  36      -731.719683   363.893506    0.078873  0.023254
  37      -731.721248   362.911085    0.079452  0.023395
  38      -731.722819   361.925637    0.080017  0.023534
  39      -731.724393   360.937918    0.080567  0.023671
  40      -731.725969   359.948591    0.081103  0.023806
  41      -731.727547   358.958503    0.081622  0.023939

--------------------------------
SUGGESTED CITATIONS FOR THIS RUN
--------------------------------

Below you find a list of papers that are relevant to this ORCA run
We neither can nor want to force you to cite these papers, but we appreciate if you do
You receive ORCA, which is the product of decades of hard work by many enthusiastic individuals, for free
The only thing we kindly ask in return is that you cite our papers,
We deeply appreciate it, if you show your appreciation for ORCA by not just citing the generic ORCA reference.

Please note that relegating all ORCA citations to the supporting information does *not* help us.
SI sections are not indexed - citations you put there will not count into any citation statistics
But we need these citations in order to attract the funding resources that allow us to do what we are doing

Therefore, if you are a happy ORCA user, please consider citing a few of the papers listed below in the main body of your paper

In addition to the list printed below, the program has created the file run.bibtex that contains the list in bibtex format
You can import this file easily into all common literature databanks and citation aid programs


List of essential papers. We consider these as the minimum necessary citations

  1. Neese, F.
     Software update: the ORCA program system, version 6.0
     WIRES Comput. Molec. Sci. 2025 15(1), e70019
     doi.org/10.1002/wcms.7019

List of papers to cite with high priority. The work reported in these papers was absolutely
necessary for this run to complete.
Our perspective: the developers of density functionals and basis sets usually get cited in chemistry papers
Good! But without the algorithms to do something with them, the functionals or basis sets would not do anything.
Hence, in our opinion, the algorithm design and method developments papers are equally worthy of getting cited

  1. Neese, F.
     An improvement of the resolution of the identity approximation for the formation of the Coulomb matrix
     J. Comp. Chem. 2003 24(14), 1740-1747
     doi.org/10.1002/jcc.10318
  2. Neese, F.; Schwabe, T.; Grimme, S.
     Analytic derivatives for perturbatively corrected 'double hybrid' density functionals: Theory, implementation, and applications
     J. Chem. Phys. 2007 126(12), Art. No. 124115
     doi.org/10.1063/1.2712433
  3. Neese, F.; Wennmohs, F.; Hansen, A.; Becker, U.
     Efficient, approximate and parallel Hartree-Fock and hybrid DFT calculations. A 'chain-of-spheres' algorithm for the Hartree-Fock exchange
     Chem. Phys. 2009 356(1-3), 98-109
     doi.org/10.1016/j.chemphys.2008.10.036
  4. Kossmann, S.; Neese, F.
     Efficient Structure Optimization with Second-Order Many-Body Perturbation Theory: The RIJCOSX-MP2 Method
     J. Theo. Comp. Chem. 2010 6 , 2325-2338
     doi.org/10.1021/ct100199k
  5. Helmich-Paris, B.; de Souza, B.; Neese, F.; Izsák, R.
     An improved chain of spheres for exchange algorithm
     J. Chem. Phys. 2021 155(10), 104109
     doi.org/10.1063/5.0058766
  6. Neese, F.
     The SHARK Integral Generation and Digestion System
     J. Comp. Chem. 2022 44(3), 381
     doi.org/10.1002/jcc.26942

List of suggested additional citations. These are papers that are important in the 'surrounding' of 
of this run, or papers that preceded the highly important papers. If you like your results we are grateful for a citation.

  1. Izsak, R.; Neese, F.
     An overlap fitted chain of spheres exchange method
     J. Chem. Phys. 2011 135 , 144105
     doi.org/10.1063/1.3646921
  2. Izsak, R.; Hansen, A.; Neese, F.
     The resolution of identity and chain of spheres approximations for the LPNO-CCSD singles Fock term
     Molec. Phys. 2012 110 , 2413-2417
     doi.org/10.1080/00268976.2012.687466
  3. Neese, F.
     The ORCA program system
     WIRES Comput. Molec. Sci. 2012 2(1), 73-78
     doi.org/10.1002/wcms.81
  4. Izsak, R.; Neese, F.; Klopper, W.
     Robust fitting techniques in the chain of spheres approximation to the Fock exchange: The role of the complementary space
     J. Chem. Phys. 2013 139 , 
     doi.org/10.1063/1.4819264
  5. Neese, F.
     Software update: the ORCA program system, version 4.0
     WIRES Comput. Molec. Sci. 2018 8(1), 1-6
     doi.org/10.1002/wcms.1327
  6. Neese, F.; Wennmohs, F.; Becker, U.; Riplinger, C.
     The ORCA quantum chemistry program package
     J. Chem. Phys. 2020 152(22), 224108
     doi.org/10.1063/5.0004608
  7. Neese, F.
     Software update: The ORCA program system—Version 5.0
     WIRES Comput. Molec. Sci. 2022 12(1), e1606
     doi.org/10.1002/wcms.1606

List of optional additional citations

  1. Neese, F.
     Approximate second-order SCF convergence for spin unrestricted wavefunctions
     Chem. Phys. Lett. 2000 325(1-3), 93-98
     doi.org/10.1016/s0009-2614(00)00662-x

Timings for individual modules:

Sum of individual times          ...     7203.881 sec (= 120.065 min)
Startup calculation              ...      456.984 sec (=   7.616 min)   6.3 %
SCF iterations                   ...     3721.736 sec (=  62.029 min)  51.7 %
Property calculations            ...        1.198 sec (=   0.020 min)   0.0 %
MP2 module                       ...     3023.963 sec (=  50.399 min)  42.0 %
                             ****ORCA TERMINATED NORMALLY****
TOTAL RUN TIME: 0 days 2 hours 0 minutes 15 seconds 450 msec
