
                                 *****************
                                 * O   R   C   A *
                                 *****************

                                            #,                                       
                                            ###                                      
                                            ####                                     
                                            #####                                    
                                            ######                                   
                                           ########,                                 
                                     ,,################,,,,,                         
                               ,,#################################,,                 
                          ,,##########################################,,             
                       ,#########################################, ''#####,          
                    ,#############################################,,   '####,        
                  ,##################################################,,,,####,       
                ,###########''''           ''''###############################       
              ,#####''   ,,,,##########,,,,          '''####'''          '####       
            ,##' ,,,,###########################,,,                        '##       
           ' ,,###''''                  '''############,,,                           
         ,,##''                                '''############,,,,        ,,,,,,###''
      ,#''                                            '''#######################'''  
     '                                                          ''''####''''         
             ,#######,   #######,   ,#######,      ##                                
            ,#'     '#,  ##    ##  ,#'     '#,    #''#        ,####,    ,#,          
            ##       ##  ##   ,#'  ##            #'  '#       #'       ,# #          
            ##       ##  #######   ##           ,######,      #####,      #          
            '#,     ,#'  ##    ##  '#,     ,#' ,#      #,     #,   #      #          
             '#######'   ##     ##  '#######'  #'      '#     '####' #    #          



                #########################################################
                #                        -***-                          #
                #          Department of theory and spectroscopy        #
                #                                                       #
                #                      Frank Neese                      #
                #                                                       #
                #     Directorship, Architecture, Infrastructure        #
                #                    SHARK, DRIVERS                     #
                #        Core code/Algorithms in most modules           #
                #                                                       #
                #        Max Planck Institute fuer Kohlenforschung      #
                #                Kaiser Wilhelm Platz 1                 #
                #                 D-45470 Muelheim/Ruhr                 #
                #                      Germany                          #
                #                                                       #
                #                  All rights reserved                  #
                #                        -***-                          #
                #########################################################


                         Program Version 6.1.0  -  RELEASE   -
                                (GIT: $679e74b$)
                          ($2025-06-10 18:02:51 +0200$)


 With contributions from (in alphabetic order):
[Max-Planck-Institut fuer Kohlenforschung]                               
  Daniel Aravena         : Magnetic Suceptibility                        
  Michael Atanasov       : Ab Initio Ligand Field Theory (pilot matlab implementation)
  Alexander A. Auer      : GIAO ZORA, VPT2 properties, NMR spectrum      
  Ute Becker             : All parallelization in ORCA, NUMFREQ, NUMCALC 
  Giovanni Bistoni       : ED, misc. LED, open-shell LED, HFLD           
  Dmytro Bykov           : pre 5.0 version of the SCF Hessian            
  Marcos Casanova-Páez   : Triplet and SCS-CIS(D). UHF-(DLPNO)-IP/EA/STEOM-CCSD. UHF-CVS-IP/STEOM-CCSD   
  Vijay G. Chilkuri      : MRCI spin determinant printing, contributions to CSF-ICE 
  Pauline Colinet        : FMM embedding                                 
  Dipayan Datta          : RHF DLPNO-CCSD density                        
  Achintya Kumar Dutta   : EOM-CC, STEOM-CC                              
  Nicolas Foglia         : Exact transition moments, OPA infrastructure, MCD improvements    
  Dmitry Ganyushin       : Spin-Orbit,Spin-Spin,Magnetic field MRCI      
  Miquel Garcia-Rates    : C-PCM and meta-GGA Hessian, CCSD/C-PCM, Gaussian charge scheme 
  Tiago L. C. Gouveia    : GS-ROHF, GS-ROCIS                             
  Yang Guo               : DLPNO-NEVPT2, F12-NEVPT2, CIM, IAO-localization        
  Andreas Hansen         : Spin unrestricted coupled pair/coupled cluster methods 
  Ingolf Harden          : AUTO-CI MPn and infrastructure                
  Benjamin Helmich-Paris : MC-RPA, TRAH-(SCF,CASSCF), AVAS, COSX integrals, SCF dyn. polar., MC-PDFT, srDFT 
  Lee Huntington         : MR-EOM, pCC                                   
  Robert Izsak           : Overlap fitted RIJCOSX, COSX-SCS-MP3, EOM     
  Riya Kayal             : Wick's Theorem for AUTO-CI, AUTO-CI UHF-CCSDT 
  Emily Kempfer          : AUTO-CI RHF CISDT and CCSDT, approximate NEVPT4
  Christian Kollmar      : KDIIS, OOCD, Brueckner-CCSD(T), CCSD density, CASPT2, CASPT2-K, improved NEVPT2 
  Axel Koslowski         : Symmetry handling                             
  Simone Kossmann        : meta-GGA functionals, TD-DFT gradient, OOMP2, (MP2 Hessian; deprecated post 5.0) 
  Lucas Lang             : DCDCAS, Hyperfine gauge corrections, ICE-SOC+SSC
  Marvin Lechner         : AUTO-CI (C++ implementation), FIC-MRCC        
  Spencer Leger          : CASSCF response                               
  Dagmar Lenk            : GEPOL surface, SMD, ORCA-2-JSON               
  Dimitrios Liakos       : Extrapolation schemes; Compound Job, Property file
  Dimitrios Manganas     : Further ROCIS development; embedding schemes. LFT, Crystal Embedding 
  Dimitrios Pantazis     : SARC Basis sets                               
  Anastasios Papadopoulos: AUTO-CI, single reference methods and gradients 
  Taras Petrenko         : pre 6.0 DFT Hessian and TD-DFT gradient,  ECA, NRVS 
  Petra Pikulova         : Analytic Raman intensities                    
  Peter Pinski           : DLPNO-MP2, DLPNO-MP2 Gradient                 
  Shashank Vittal Rao    : ES-AILFT, MagRelax                            
  Christoph Reimann      : Effective Core Potentials                     
  Marius Retegan         : Local ZFS, SOC                                
  Christoph Riplinger    : Optimizer, TS searches, QM/MM, DLPNO-CCSD(T), (RO)-DLPNO pert. Triples 
  Michael Roemelt        : Original ROCIS implementation, recursive CI coupling coefficients
  Masaaki Saitow         : Open-shell DLPNO-CCSD energy and density      
  Barbara Sandhoefer     : DKH picture change effects                    
  Yorick L. A. Schmerwitz: GMF and freeze-and-release deltaSCF, NEB S-IDPP initial path                    
  Kantharuban Sivalingam : CASSCF convergence/infrastructure, NEVPT2, NEVPT3, NEVPT4(SD), FIC-MRCI and CEPA variants
  Bernardo de Souza      : ESD, SOC TD-DFT                               
  Georgi L. Stoychev     : AutoAux, RI-MP2 NMR, DLPNO-MP2 response, X2C  
  Van Anh Tran           : RI-MP2 g-tensors                              
  Willem Van den Heuvel  : Paramagnetic NMR                              
  Zikuan Wang            : NOTCH, Electric field optimization            
  Frank Wennmohs         : Technical directorship and infrastructure     
  Hang Xu                : AUTO-CI-Response properties                   
                                                                         
[FACCTs GmbH]                                                            
  Markus Bursch, Nicolas Foglia, Miquel Garcia-Rates, Ingolf Harden, Hagen Neugebauer, Anastasios Papadopoulos, 
  Christoph Riplinger, Bernardo de Souza, Georgi L. Stoychev                                                    
                                                                 
  APM, various basis sets, CI-OPT, improved COSX, DLPNO-Multilevel,           
  DOCKER, DRACO, updates on ESD, Fragmentator, GOAT, IRC, LR-CPCM, L-BFGS, MBIS, meta-GGA TD-DFT gradient, ML-optimized integration grids, 
  MM, NACMEs, nearIR, NEB, NEB-TS, NL-DFT gradient (VV10), 2- and 3-layer-ONIOM, interface openCOSMO-RS, QMMM,   
  Crystal-QMMM, RESP, rigid body optimization, SF, symmetry and pop. for TD-DFT, various functionals, SOLVATOR                                   
                                                                         
[Other institutions]                                                     
  V. Asgeirsson          : NEB                                           
  Christoph Bannwarth    : sTDA-DFT, sTD-DFT, PBEh-3c, B97-3c, D3        
  Giovanni Bistoni       : ETS/NOCV, ADLD/ADEX, COVALED                  
  Martin Brehm           : Molecular dynamics                            
  Ronald Cardenas        : ETS/NOCV                                      
  Martina Colucci        : COVALED                                       
  Sebastian Ehlert       : rSCAN, r2SCAN, r2SCAN-3c, D4, dhf basis sets  
  Marvin Friede          : D4 for Fr, Ra, Ac-Lr                          
  Lars Goerigk           : TD-DFT with DH, B97 family of functionals     
  Stefan Grimme          : VdW corrections, initial TS optimization, DFT functionals, gCP, sTDA/sTD-DF 
  Waldemar Hujo          : DFT-NL                                        
  H. Jonsson             : NEB                                           
  Holger Kruse           : gCP                                           
  Marcel Mueller         : wB97X-3c, vDZP basis set                      
  Hagen Neugebauer       : wr2SCAN, Native XTB                           
  Gianluca Regni         : ADLD/ADEX                                     
  Tobias Risthaus        : pre 6.0 range-separated hybrid DFT and stability analysis
  Lukas Wittmann         : regularized MP2, r2SCAN double-hybrids, wr2SCAN        
                                                                         
We gratefully acknowledge several colleagues who have allowed us to      
interface, adapt or use parts of their codes:                            
  Ed Valeev, F. Pavosevic, A. Kumar             : LibInt (2-el integral package), F12 methods 
  Garnet Chan, S. Sharma, J. Yang, R. Olivares  : DMRG                   
  Ulf Ekstrom                                   : XCFun DFT Library      
  Mihaly Kallay                                 : mrcc  (arbitrary order and MRCC methods)
  Frank Weinhold                                : gennbo (NPA and NBO analysis)           
  Simon Mueller                                 : openCOSMO-RS                            
  Christopher J. Cramer and Donald G. Truhlar   : smd solvation model                     
  S Lehtola, MJT Oliveira, MAL Marques          : LibXC Library                           
  Liviu Ungur et al                             : ANISO software                          


 Your calculation uses the libint2 library for the computation of 2-el integrals
 For citations please refer to: http://libint.valeyev.net

 Your ORCA version has been built with support for libXC version: 7.0.0
 For citations please refer to: https://libxc.gitlab.io

 This ORCA versions uses:
   CBLAS   interface :  Fast vector & matrix operations
   LAPACKE interface :  Fast linear algebra routines
   SCALAPACK package :  Parallel linear algebra routines
   Shared memory     :  Shared parallel matrices
   BLAS/LAPACK       :  OpenBLAS 0.3.29  USE64BITINT DYNAMIC_ARCH NO_AFFINITY Bulldozer SINGLE_THREADED
        Core in use  :  Bulldozer
   Copyright (c) 2011-2014, The OpenBLAS Project


  ***********************************
  * Starting time: Sun Aug 17 23:00:55 2025
  * Host name:     chromium04
  * Process ID:    518471
  * Working dir.:  /local/scratch/mehlhorn/62111
  ***********************************



***************************************
The coordinates will be read from file: start.xyz
***************************************


Your calculation utilizes the geometrical counterpoise correction gCP
Please cite in your paper:
H.Kruse, S. Grimme J.Chem.Phys., 136, (2012), 154101 
   

Your calculation utilizes the atom-pairwise dispersion correction
with the Becke-Johnson damping scheme (D3BJ)


Your calculation employs the composite approach PBEh-3c.
Please cite in your paper:
Grimme, S.; Brandenburg, J. G.; Bannwarth, C.; Hansen A. J. Chem. Phys. 2015, 143, 054107 
   

================================================================================

----- Orbital basis set information -----
Your calculation utilizes the basis: def2-mSVP

----- AuxJ basis set information -----
Your calculation utilizes the auxiliary basis: def2-mSVP/J
================================================================================
                                        WARNINGS
                       Please study these warnings very carefully!
================================================================================


WARNING: Geometry Optimization
  ===> : Switching off AutoStart
         For restart on a previous wavefunction, please use MOREAD

================================================================================
                                       INPUT FILE
================================================================================
NAME = run.inp
|  1> # Geometry optimization for (AlH3)n cluster
|  2> 
|  3> %pal nprocs 24  end
|  4> 
|  5> %geom MaxIter 500 end
|  6> 
|  7> %cpcm
|  8> 	epsilon 1.95778548766667
|  9> end
| 10> 
| 11> %elprop Polar 1 end # invoke raman
| 12> 
| 13> ! PBEh-3c
| 14> ! RKS	# closed shell for AlH3
| 15> ! Freq 	# Frequency analysis to check the stabiltity of the structures
| 16> 
| 17> 
| 18> ! NoPop # population analysis not necessary	
| 19> 
| 20> ! DEFGRID3
| 21> ! ExtremeSCF
| 22> ! VeryTightOpt
| 23> 
| 24> 
| 25> ! SmallPrint
| 26> 
| 27> 
| 28> * xyzFile 0 1 start.xyz # only maingroup elements H and Al so there should be no net spin
| 29> 
| 30>                          ****END OF INPUT****
================================================================================

                       *****************************
                       * Geometry Optimization Run *
                       *****************************

Geometry optimization settings:
Update method            Update   .... BFGS
Choice of coordinates    CoordSys .... (2022) Redundant Internals
Initial Hessian          InHess   .... Almloef's Model
Max. no of cycles        MaxIter  .... 500

Convergence Tolerances:
Energy Change            TolE     ....  2.0000e-07 Eh
Max. Gradient            TolMAXG  ....  3.0000e-05 Eh/bohr
RMS Gradient             TolRMSG  ....  8.0000e-06 Eh/bohr
Max. Displacement        TolMAXD  ....  2.0000e-04 bohr
RMS Displacement         TolRMSD  ....  1.0000e-04 bohr
Strict Convergence                .... False

------------------------------------------------------------------------------
                        ORCA OPTIMIZATION COORDINATE SETUP
------------------------------------------------------------------------------

The optimization will be done in redundant internal coordinates (2022)
Making redundant internal coordinates   ...  (2022 redundants) done
Evaluating the initial hessian          ...  (Almloef) done
Evaluating the coordinates              ...  done
Calculating the B-matrix                .... done
Calculating the G-matrix                .... done
The number of degrees of freedom        ....    7

    -----------------------------------------------------------------
                    Redundant Internal Coordinates


    -----------------------------------------------------------------
         Definition                    Initial Value    Approx d2E/dq
    -----------------------------------------------------------------
      1. B(H   1,Al  0)                  1.5956         0.393811   
      2. B(H   2,Al  0)                  1.5956         0.393810   
      3. B(H   3,Al  0)                  1.5956         0.393809   
      4. A(H   1,Al  0,H   3)          120.0002         0.382192   
      5. A(H   2,Al  0,H   3)          119.9995         0.382192   
      6. A(H   1,Al  0,H   2)          120.0003         0.382193   
      7. I(H   1,H   3,H   2,Al  0)     -0.0000         0.044454   
    -----------------------------------------------------------------

Number of atoms                         .... 4
Number of degrees of freedom            .... 7


         *************************************************************
         *                GEOMETRY OPTIMIZATION CYCLE   1            *
         *************************************************************
---------------------------------
CARTESIAN COORDINATES (ANGSTROEM)
---------------------------------
  Al    -1.365110    0.622413   -0.208480
  H     -0.538579    0.414764    1.140518
  H     -1.297630    2.018238   -0.978666
  H     -2.259130   -0.565764   -0.787303

----------------------------
CARTESIAN COORDINATES (A.U.)
----------------------------
  NO LB      ZA    FRAG     MASS         X           Y           Z
   0 Al   13.0000    0    26.982   -2.579685    1.176189   -0.393969
   1 H     1.0000    0     1.008   -1.017767    0.783791    2.155268
   2 H     1.0000    0     1.008   -2.452165    3.813916   -1.849411
   3 H     1.0000    0     1.008   -4.269138   -1.069140   -1.487787

--------------------------------
INTERNAL COORDINATES (ANGSTROEM)
--------------------------------
 Al     0   0   0     0.000000000000     0.00000000     0.00000000
 H      1   0   0     1.595640142272     0.00000000     0.00000000
 H      1   2   0     1.595640411307   120.00031214     0.00000000
 H      1   2   3     1.595641775638   120.00022811   180.00001103

---------------------------
INTERNAL COORDINATES (A.U.)
---------------------------
 Al     0   0   0     0.000000000000     0.00000000     0.00000000
 H      1   0   0     3.015322877185     0.00000000     0.00000000
 H      1   2   0     3.015323385587   120.00031214     0.00000000
 H      1   2   3     3.015325963799   120.00022811   180.00001103

---------------------
BASIS SET INFORMATION
---------------------
There are 2 groups of distinct atoms

 Group   1 Type Al  : 10s7p1d contracted to 4s3p1d pattern {5311/511/1}
 Group   2 Type H   : 4s contracted to 2s pattern {31}

Atom   0Al   basis set group =>   1
Atom   1H    basis set group =>   2
Atom   2H    basis set group =>   2
Atom   3H    basis set group =>   2
---------------------------------
AUXILIARY/J BASIS SET INFORMATION
---------------------------------
There are 2 groups of distinct atoms

 Group   1 Type Al  : 14s5p5d2f1g contracted to 8s4p3d1f1g pattern {71111111/2111/311/2/1}
 Group   2 Type H   : 5s2p1d contracted to 3s1p1d pattern {311/2/1}

Atom   0Al   basis set group =>   1
Atom   1H    basis set group =>   2
Atom   2H    basis set group =>   2
Atom   3H    basis set group =>   2


           ************************************************************
           *        Program running with 24 parallel MPI-processes    *
           *              working on a common directory               *
           ************************************************************
------------------------------------------------------------------------------
                             ORCA STARTUP CALCULATIONS
                           -- RI-GTO INTEGRALS CHOSEN --
------------------------------------------------------------------------------
------------------------------------------------------------------------------
                   ___                                                        
                  /   \      - P O W E R E D   B Y -                         
                 /     \                                                     
                 |  |  |   _    _      __       _____    __    __             
                 |  |  |  | |  | |    /  \     |  _  \  |  |  /  |          
                  \  \/   | |  | |   /    \    | | | |  |  | /  /          
                 / \  \   | |__| |  /  /\  \   | |_| |  |  |/  /          
                |  |  |   |  __  | /  /__\  \  |    /   |      \           
                |  |  |   | |  | | |   __   |  |    \   |  |\   \          
                \     /   | |  | | |  |  |  |  | |\  \  |  | \   \       
                 \___/    |_|  |_| |__|  |__|  |_| \__\ |__|  \__/        
                                                                              
                      - O R C A' S   B I G   F R I E N D -                    
                                      &                                       
                       - I N T E G R A L  F E E D E R -                       
                                                                              
 v1 FN, 2020, v2 2021, v3 2022-2024                                           
------------------------------------------------------------------------------


----------------------
SHARK INTEGRAL PACKAGE
----------------------

Number of atoms                             ...      4
Number of basis functions                   ...     24
Number of shells                            ...     14
Maximum angular momentum                    ...      2
Integral batch strategy                     ... SHARK/LIBINT Hybrid
RI-J (if used) integral strategy            ... SPLIT-RIJ (Revised 2003 algorithm where possible)
Printlevel                                  ...      1
Contraction scheme used                     ... SEGMENTED contraction
Prescreening option                         ... SCHWARTZ
   Thresh                                   ... 3.000e-16
   Tcut                                     ... 3.000e-16
   Tpresel                                  ... 3.000e-16 
Coulomb Range Separation                    ... NOT USED
Exchange Range Separation                   ... NOT USED
Multipole approximations                    ... NOT USED
Finite Nucleus Model                        ... NOT USED
CABS basis                                  ... NOT available
Auxiliary Coulomb fitting basis             ... AVAILABLE
   # of basis functions in Aux-J            ...     84
   # of shells in Aux-J                     ...     32
   Maximum angular momentum in Aux-J        ...      4
Auxiliary J/K fitting basis                 ... NOT available
Auxiliary Correlation fitting basis         ... NOT available
Auxiliary 'external' fitting basis          ... NOT available

Checking pre-screening integrals            ... done (  0.0 sec) Dimension = 14
   => SHARK Basis and OBASIS are compatible. Storing Pre-screening
Shell pair information
Shell pair cut-off parameter TPreSel        ...   3.0e-16
Total number of shell pairs                 ...       105
Shell pairs after pre-screening             ...       105
Total number of primitive shell pairs       ...       497
Primitive shell pairs kept                  ...       458
          la=0 lb=0:     55 shell pairs
          la=1 lb=0:     30 shell pairs
          la=1 lb=1:      6 shell pairs
          la=2 lb=0:     10 shell pairs
          la=2 lb=1:      3 shell pairs
          la=2 lb=2:      1 shell pairs

Checking whether 4 symmetric matrices of dimension 24 fit in memory
:Max Core in MB      =   4096.00
 MB in use           =      3.29
 MB left             =   4092.71
 MB needed           =      0.01
 Data fit in memory  = YES
Calculating RI/J V-Matrix + Cholesky decomp.... done (  0.0 sec)
Calculating Nuclear repulsion               ... done (  0.0 sec) ENN=     13.508349281004 Eh

Diagonalization of the overlap matrix:
Smallest eigenvalue                        ... 8.163e-02
Time for diagonalization                   ...    0.000 sec
Threshold for overlap eigenvalues          ... 1.000e-07
Number of eigenvalues below threshold      ... 0
Time for construction of square roots      ...    0.000 sec
Total time needed                          ...    0.002 sec

-------------------
DFT GRID GENERATION
-------------------

General Integration Accuracy     IntAcc      ... 4.959
Radial Grid Type                 RadialGrid  ... OptM3 with GC (2021)
Angular Grid (max. ang.)         AngularGrid ... 6 (Lebedev-590)
Angular grid pruning method      GridPruning ... 4 (adaptive)
Weight generation scheme         WeightScheme... mBecke (2022)
Basis function cutoff            BFCut       ... 3.0000e-16
Integration weight cutoff        WCut        ... 1.0000e-14
Partially contracted basis set               ... off
Rotationally invariant grid construction     ... off
Angular grids for H and He will be reduced by one unit

Total number of grid points                  ...    43728
Total number of batches                      ...      685
Average number of points per batch           ...       63
Average number of grid points per atom       ...    10932

--------------------
COSX GRID GENERATION
--------------------

GRIDX 1
-------
General Integration Accuracy     IntAcc      ... 4.020
Radial Grid Type                 RadialGrid  ... OptM3 with GC (2021)
Angular Grid (max. ang.)         AngularGrid ... 2 (Lebedev-110)
Angular grid pruning method      GridPruning ... 4 (adaptive)
Weight generation scheme         WeightScheme... mBecke (2022)
Basis function cutoff            BFCut       ... 3.0000e-16
Integration weight cutoff        WCut        ... 1.0000e-14
Partially contracted basis set               ... on
Rotationally invariant grid construction     ... off
Angular grids for H and He will be reduced by one unit

Total number of grid points                  ...     4410
Total number of batches                      ...       35
Average number of points per batch           ...      126
Average number of grid points per atom       ...     1102
UseSFitting                                  ... on

GRIDX 2
-------
General Integration Accuracy     IntAcc      ... 4.338
Radial Grid Type                 RadialGrid  ... OptM3 with GC (2021)
Angular Grid (max. ang.)         AngularGrid ... 3 (Lebedev-194)
Angular grid pruning method      GridPruning ... 4 (adaptive)
Weight generation scheme         WeightScheme... mBecke (2022)
Basis function cutoff            BFCut       ... 3.0000e-16
Integration weight cutoff        WCut        ... 1.0000e-14
Partially contracted basis set               ... on
Rotationally invariant grid construction     ... off
Angular grids for H and He will be reduced by one unit

Total number of grid points                  ...    10336
Total number of batches                      ...       83
Average number of points per batch           ...      124
Average number of grid points per atom       ...     2584
UseSFitting                                  ... on

GRIDX 3
-------
General Integration Accuracy     IntAcc      ... 4.871
Radial Grid Type                 RadialGrid  ... OptM3 with GC (2021)
Angular Grid (max. ang.)         AngularGrid ... 4 (Lebedev-302)
Angular grid pruning method      GridPruning ... 4 (adaptive)
Weight generation scheme         WeightScheme... mBecke (2022)
Basis function cutoff            BFCut       ... 3.0000e-16
Integration weight cutoff        WCut        ... 1.0000e-14
Partially contracted basis set               ... on
Rotationally invariant grid construction     ... off
Angular grids for H and He will be reduced by one unit

Total number of grid points                  ...    20932
Total number of batches                      ...      165
Average number of points per batch           ...      126
Average number of grid points per atom       ...     5233
UseSFitting                                  ... on
Grids setup in   1.4 sec
Initializing property integral containers    ... done (  0.0 sec)

SHARK setup successfully completed in   1.5 seconds

Maximum memory used throughout the entire STARTUP-calculation: 12.6 MB


           ************************************************************
           *        Program running with 24 parallel MPI-processes    *
           *              working on a common directory               *
           ************************************************************
-------------------------------------------------------------------------------
                                 ORCA GUESS
                   Start orbitals & Density for SCF / CASSCF
-------------------------------------------------------------------------------

------------
SCF SETTINGS
------------
Hamiltonian:
 Density Functional     Method          .... DFT(GTOs)
 Exchange Functional    Exchange        .... PBE
   PBE kappa parameter   XKappa         ....  1.024500
   PBE mue parameter    XMuePBE         ....  0.123457
 Correlation Functional Correlation     .... PBE
   PBE beta parameter  CBetaPBE         ....  0.030000
 LDA part of GGA corr.  LDAOpt          .... PW91-LDA
 Gradients option       PostSCFGGA      .... off
 Hybrid DFT is turned on
   Fraction HF Exchange ScalHFX         ....  0.420000
   Scaling of DF-GGA-X  ScalDFX         ....  0.580000
   Scaling of DF-GGA-C  ScalDFC         ....  1.000000
   Scaling of DF-LDA-C  ScalLDAC        ....  1.000000
   Perturbative correction              ....  0.000000
 RI-approximation to the Coulomb term is turned on
   Number of AuxJ basis functions       .... 84
   RIJ-COSX (HFX calculated with COS-X)).... on


General Settings:
 Integral files         IntName         .... run
 Hartree-Fock type      HFTyp           .... RHF
 Total Charge           Charge          ....    0
 Multiplicity           Mult            ....    1
 Number of Electrons    NEL             ....   16
 Basis Dimension        Dim             ....   24
 Nuclear Repulsion      ENuc            ....     13.5083492810 Eh

Convergence Acceleration:
 AO-DIIS                CNVDIIS         .... on
   Start iteration      DIISMaxIt       ....    12
   Startup error        DIISStart       ....  0.200000
   # of expansion vecs  DIISMaxEq       ....     5
   Bias factor          DIISBfac        ....   1.050
   Max. coefficient     DIISMaxC        ....  10.000
 MO-DIIS                CNVKDIIS        .... off
 Trust-Rad. Augm. Hess. CNVTRAH         .... auto
   Auto Start mean grad. ratio tolernc. ....  1.125000
   Auto Start start iteration           ....    50
   Auto Start num. interpolation iter.  ....    10
   Max. Number of Micro iterations      ....    24
   Max. Number of Macro iterations      .... Maxiter - #DIIS iter
   Number of Davidson start vectors     ....     2
   Converg. threshold    (grad. norm)   ....   1.000e-09
   Grad. Scal. Fac. for Micro threshold ....   0.100
   Minimum threshold for Micro iter.    ....   1.000e-02
   NR start threshold (gradient norm)   ....   1.000e-04
   Initial trust radius                 ....   0.400
   Minimum AH scaling param. (alpha)    ....   1.000
   Maximum AH scaling param. (alpha)    .... 1000.000
   Quad. conv. algorithm                .... NR
   White noise on init. David. guess    .... on
   Maximum white noise                  ....   0.010
   Pseudo random numbers                .... off
   Inactive MOs                         .... canonical
   Orbital update algorithm             .... Taylor
   Preconditioner                       .... Diag
   Full preconditioner red. dimension   ....   250
 SOSCF                 CNVSOSCF           .... on
   Start iteration     SOSCFMaxIt         ....   150
   Startup grad/error  SOSCFStart         ....  0.003300
   Hessian update      SOSCFHessUp        .... L-BFGS
   Autom. constraints  SOSCFAutoConstrain .... off
 Level Shifting         CNVShift        .... on
   Level shift para.    LevelShift      ....    0.2500
   Turn off err/grad.   ShiftErr        ....    0.0010
 Zerner damping         CNVZerner       .... off
 Static damping         CNVDamp         .... on
   Fraction old density DampFac         ....    0.7000
   Max. Damping (<1)    DampMax         ....    0.9800
   Min. Damping (>=0)   DampMin         ....    0.0000
   Turn off err/grad.   DampErr         ....    0.1000

SCF Procedure:
 Maximum # iterations   MaxIter         ....   125
 SCF integral mode      SCFMode         .... Direct
   Integral package                     .... SHARK and LIBINT hybrid scheme
 Reset frequency        DirectResetFreq ....    20
 Integral Threshold     Thresh          ....  3.000e-16 Eh
 Primitive CutOff       TCut            ....  3.000e-16 Eh

Convergence Tolerance:
 Convergence Check Mode ConvCheckMode   .... All-Criteria
 Convergence forced     ConvForced      .... 0
 Energy Change          TolE            ....  1.000e-14 Eh
 Max Density Change     TolMaxP         ....  1.000e-14
 RMS Density Change     TolRMSP         ....  1.000e-14
 Orbital Gradient       TolG            ....  1.000e-09
 Orbital Rotation angle TolX            ....  1.000e-09
 DIIS Error             TolErr          ....  1.000e-14

--------------------------------
INITIAL GUESS: MINIMAL BASIS EHT
--------------------------------
The minimal basis has 12 functions
EHT matrix was diagonalized
Basis set overlap was calculated now projecting the orbitals
Using GuessMode=FMatrix for the initial guess
C*T matrix was formed
Effective Fockian was calculated
Effective Fockian was diagonalized
Initial density was built
                      ------------------
                      INITIAL GUESS DONE
                      ------------------
             **** ENERGY FILE WAS UPDATED (run.en.tmp) ****
Finished Guess after   0.6 sec
Maximum memory used throughout the entire GUESS-calculation: 5.5 MB


           ************************************************************
           *        Program running with 24 parallel MPI-processes    *
           *              working on a common directory               *
           ************************************************************

-------------------------------------------------------------------------------------------
                                      ORCA LEAN-SCF
                              memory conserving SCF solver
-------------------------------------------------------------------------------------------

--------------------
CPCM SOLVATION MODEL
--------------------
CPCM parameters:
  Epsilon                                         ...       1.9578
  Refrac                                          ...       1.0000
  Rsolv                                           ...       1.3000
  Surface type                                    ... GAUSSIAN VDW
  Discretization scheme                           ... Constant charge density
    Threshold for H atoms                         ...       5.0000 (charges/Ang^2)
    Threshold for non-H atoms                     ...       5.0000 (charges/Ang^2)
  Epsilon function type                           ...         CPCM
Solvent:                                          ... CUSTOM
Radii:
  Scheme                                          ... Element-dependent radii
  Radius for Al used is    4.1725 Bohr (=   2.2080 Ang.)
  Radius for H  used is    2.4944 Bohr (=   1.3200 Ang.)
Calculating surface                               ...        done! (  0.0s)
Cavity surface points                             ...          459
Cavity Volume                                     ...     357.0470
Cavity Surface-area                               ...     255.5894
Calculating surface distance matrix               ...        done! (  0.0s)
Performing Cholesky decomposition & store         ...        done! (  0.0s)
Overall time for CPCM initialization              ...                 0.0s

----------------------------------------D-I-I-S--------------------------------------------
Iteration    Energy (Eh)           Delta-E    RMSDP     MaxDP     DIISErr   Damp  Time(sec)
-------------------------------------------------------------------------------------------
               ***  Starting incremental Fock matrix formation  ***
    1    -243.5192007576564777     0.00e+00  2.34e-01  9.22e-02  3.39e-01  0.700   0.1
    2    -243.6273704371141946    -1.08e-01  1.94e-01  7.34e-02  2.43e-01  0.700   0.1
                               ***Turning on AO-DIIS***
    3    -243.7030278785142343    -7.57e-02  1.36e-01  4.90e-02  1.69e-01  0.700   0.1
    4    -243.7545177475481353    -5.15e-02  9.72e-02  3.38e-02  1.18e-01  0.700   0.1
    5    -243.7899251013886612    -3.54e-02  6.91e-02  2.35e-02  8.20e-02  0.700   0.2
    6    -243.8144335188828506    -2.45e-02  1.64e-01  5.50e-02  5.72e-02  0.000   0.1
                              *** Initializing SOSCF ***
---------------------------------------S-O-S-C-F--------------------------------------
Iteration    Energy (Eh)           Delta-E    RMSDP     MaxDP     MaxGrad    Time(sec)
--------------------------------------------------------------------------------------
    7    -243.8708168640109477    -5.64e-02  3.65e-03  1.78e-03  6.36e-04     0.2
               *** Restarting incremental Fock matrix formation ***
    8    -243.8708197452761794    -2.88e-06  2.46e-03  1.39e-03  1.65e-04     0.2
    9    -243.8708203187571542    -5.73e-07  5.65e-04  2.89e-04  3.20e-05     0.1
   10    -243.8708203423667271    -2.36e-08  1.45e-05  7.93e-06  2.08e-06     0.1
   11    -243.8708203424100418    -4.33e-11  3.13e-06  2.37e-06  3.19e-07     0.1
   12    -243.8708203424076544     2.39e-12  1.56e-07  4.85e-08  4.36e-08     0.1
   13    -243.8708203424075407     1.14e-13  1.78e-08  5.56e-09  2.26e-09     0.1
   14    -243.8708203424075975    -5.68e-14  3.20e-09  9.69e-10  1.02e-09     0.1
   15    -243.8708203424077112    -1.14e-13  0.00e+00  0.00e+00  9.92e-10     0.1
                           ***RMSP convergence achieved***
                           ***MAXP convergence achieved***
                       ***Gradient convergence achieved***
                    ***Orbital Rotation convergence achieved***
   16    -243.8708203424077112     0.00e+00  0.00e+00  0.00e+00  9.92e-10     0.1
                          ***Energy convergence achieved***

               *****************************************************
               *                     SUCCESS                       *
               *           SCF CONVERGED AFTER  16 CYCLES          *
               *****************************************************

Recomputing exchange energy using gridx3       ... done (    0.067 sec)
Old exchange energy                            :     -8.048140000 Eh
New exchange energy                            :     -8.048142855 Eh
Exchange energy change after final integration :     -0.000002854 Eh
Total energy after final integration           :   -243.870823197 Eh
             **** ENERGY FILE WAS UPDATED (run.en.tmp) ****

----------------
TOTAL SCF ENERGY
----------------

Total Energy       :       -243.87082319663844 Eh           -6636.06247 eV

Components:
Nuclear Repulsion  :         13.50834928100361 Eh             367.58087 eV
Electronic Energy  :       -257.37569038894446 Eh           -7003.54859 eV
One Electron Energy:       -365.38182960288117 Eh           -9942.54505 eV
Two Electron Energy:        108.00613921393668 Eh            2938.99646 eV
CPCM Dielectric    :         -0.00347923446678 Eh              -0.09467 eV

Virial components:
Potential Energy   :       -487.21321244543105 Eh          -13257.74552 eV
Kinetic Energy     :        243.34238924879264 Eh            6621.68305 eV
Virial Ratio       :          2.00217156554383

DFT components:
N(Alpha)           :        8.000000008881 electrons
N(Beta)            :        8.000000008881 electrons
N(Total)           :       16.000000017761 electrons
E(X)               :      -10.703372600930 Eh       
E(C)               :       -0.728521519940 Eh       
E(XC)              :      -11.431894120869 Eh       

CPCM Solvation Model Properties:
Surface-charge          :         -0.03509287635705
Corrected charge        :         -0.00000000000000
Outlying charge corr.   :          0.00006729341342 Eh               0.00183 eV
Free-energy (cav+disp)  :  This term is not implemented in the current solvation scheme

---------------
SCF CONVERGENCE
---------------

  Last Energy change         ...    0.0000e+00  Tolerance :   1.0000e-14
  Last MAX-Density change    ...    0.0000e+00  Tolerance :   1.0000e-14
  Last RMS-Density change    ...    0.0000e+00  Tolerance :   1.0000e-14
  Last DIIS Error            ...    6.3575e-04  Tolerance :   1.0000e-14
  Last Orbital Gradient      ...    9.9168e-10  Tolerance :   1.0000e-09
  Last Orbital Rotation      ...    0.0000e+00  Tolerance :   1.0000e-09


----------------
ORBITAL ENERGIES
----------------

  NO   OCC          E(Eh)            E(eV) 
   0   2.0000     -56.606939     -1540.3531 
   1   2.0000      -4.349789      -118.3638 
   2   2.0000      -2.843557       -77.3771 
   3   2.0000      -2.834752       -77.1375 
   4   2.0000      -2.834752       -77.1375 
   5   2.0000      -0.468813       -12.7571 
   6   2.0000      -0.348966        -9.4958 
   7   2.0000      -0.348963        -9.4958 
   8   0.0000      -0.037341        -1.0161 
   9   0.0000       0.097338         2.6487 
  10   0.0000       0.106792         2.9060 
  11   0.0000       0.106794         2.9060 
  12   0.0000       0.125073         3.4034 
  13   0.0000       0.342637         9.3236 
  14   0.0000       0.342638         9.3236 
  15   0.0000       0.364868         9.9286 
  16   0.0000       0.459983        12.5168 
  17   0.0000       0.459987        12.5169 
  18   0.0000       0.590337        16.0639 
*Only the first 10 virtual orbitals were printed.
-------
TIMINGS
-------

Total SCF time: 0 days 0 hours 0 min 3 sec 

Total time                  ....       3.237 sec
Sum of individual times     ....       3.045 sec  ( 94.1%)

SCF preparation             ....       0.666 sec  ( 20.6%)
Fock matrix formation       ....       2.093 sec  ( 64.7%)
  Startup                   ....       0.008 sec  (  0.4% of F)
  Split-RI-J                ....       0.071 sec  (  3.4% of F)
  Chain of spheres X        ....       1.159 sec  ( 55.4% of F)
  XC integration            ....       0.576 sec  ( 27.5% of F)
    XC Preparation          ....       0.000 sec  (  0.0% of XC)
    Basis function eval.    ....       0.066 sec  ( 11.5% of XC)
    Density eval.           ....       0.024 sec  (  4.2% of XC)
    XC-Functional eval.     ....       0.039 sec  (  6.7% of XC)
    XC-Potential eval.      ....       0.015 sec  (  2.7% of XC)
  CPCM terms                ....       0.216 sec  ( 10.3% of F)
Diagonalization             ....       0.000 sec  (  0.0%)
Density matrix formation    ....       0.046 sec  (  1.4%)
Total Energy calculation    ....       0.035 sec  (  1.1%)
Population analysis         ....       0.000 sec  (  0.0%)
Orbital Transformation      ....       0.014 sec  (  0.4%)
Orbital Orthonormalization  ....       0.000 sec  (  0.0%)
DIIS solution               ....       0.098 sec  (  3.0%)
SOSCF solution              ....       0.093 sec  (  2.9%)
Finished LeanSCF after   3.3 sec

Maximum memory used throughout the entire LEANSCF-calculation: 4.7 MB


           ************************************************************
           *        Program running with 24 parallel MPI-processes    *
           *              working on a common directory               *
           ************************************************************

------------------------------------------------------------------------------
                         ORCA PROPERTY INTEGRAL CALCULATIONS
------------------------------------------------------------------------------

GBWName                                   ... run.gbw
Number of atoms                           ...      4
Number of basis functions                 ...     24
Max core memory                           ...   4096 MB

Dipole integrals                          ... YES
Quadrupole integrals                      ...  NO
Linear momentum integrals                 ...  NO
Angular momentum integrals                ...  NO
Higher moments length integrals           ...  NO
Higher moments velocity integrals         ...  NO
Kinetic energy integrals                  ...  NO
GIAO right hand sides                     ...  NO
GIAO dipole derivative integrals          ...  NO
SOC integrals                             ...  NO
EPR diamagnetic integrals (GIAO)          ...  NO
EPR gauge integrals                       ...  NO
Field gradient integrals                  ...  NO (   0 nuclei)
Spin-dipole/Fermi contact integrals       ...  NO (   0 nuclei)
Contact density integrals                 ...  NO (   0 nuclei)
Nucleus-orbit integrals                   ...  NO (   0 nuclei)
Geometric perturbations                   ...  NO (   4 nuclei)

Choice of electric origin   ... Center of mass
Position of electric origin ... ( -2.5797,  1.1762, -0.3940) 
Choice of magnetic origin   ... GIAO
Position of magnetic origin ... (  0.0000,  0.0000,  0.0000) 

Calculating integrals                     ... Electric Dipole (Length)     done (  0.0 sec)

Property integrals calculated in   0.0 sec

Maximum memory used throughout the entire PROPINT-calculation: 5.6 MB


-------------------------------------------------------------------------------
                          DFT DISPERSION CORRECTION                            
                                                                               
                              DFTD3 V3.1  Rev 1                                
                          USING Becke-Johnson damping                          
-------------------------------------------------------------------------------
The PBEh-3c composite method is recognized
Using three-body term ABC
Active option DFTDOPT                   ...         4   

molecular C6(AA) [au] = 312.435282 


            DFT-D V3
 parameters
 s6 scaling factor         :     1.0000 
 a1 scaling factor         :     0.4860 
 s8 scaling factor         :     0.0000 
 a2 scaling factor         :     4.5000 
 Damping factor alpha9(ATM):    16.0000 
 ad hoc parameters k1-k3   :    16.0000     1.3333    -4.0000 

 Edisp/kcal,au: -0.334692756132  -0.000533366800 
 E6   /kcal   :  -0.334803263 
 E8   /kcal   :  -0.000000000 
 E6(ABC)      :   0.000110507 
 % E8         :   0.000000000 
 % E6(ABC)    :  -0.033017507 

-------------------------   ----------------
Dispersion correction           -0.000533367
-------------------------   ----------------

------------------   -----------------
gCP correction             0.004764320
------------------   -----------------

-------------------------   --------------------
FINAL SINGLE POINT ENERGY      -243.866592242939
-------------------------   --------------------



           ************************************************************
           *        Program running with 24 parallel MPI-processes    *
           *              working on a common directory               *
           ************************************************************
------------------------------------------------------------------------------
                         ORCA SCF GRADIENT CALCULATION
------------------------------------------------------------------------------

Nuc. rep. gradient        (SHARK) ... done (  0.0 sec)
HCore & Overlap gradient  (SHARK) ... done (  0.0 sec)
Split-RIJ-J gradient      (SHARK) ... done (  0.2 sec)
done (  0.2 sec)
XC gradient                       ... done (  0.1 sec)
CPCM gradient                     ... done (  0.2 sec)
Dispersion correction             ... done (  0.1 sec)

-------------------
DISPERSION GRADIENT
-------------------

   1   Al  :   -0.000000000   -0.000000000   -0.000000000
   2   H   :    0.000007677   -0.000001929    0.000012529
   3   H   :    0.000000627    0.000012964   -0.000007153
   4   H   :   -0.000008303   -0.000011035   -0.000005376

Difference to translation invariance:
           :    0.0000000000    0.0000000000    0.0000000000

Difference to rotation invariance:
           :   -0.0000000000    0.0000000000    0.0000000000

Norm of the Dispersion gradient    ...    0.0000256687
RMS gradient                       ...    0.0000074099
MAX gradient                       ...    0.0000129640
gCP correction                   ... done

------------------
CARTESIAN GRADIENT
------------------

   1   Al  :   -0.000002859    0.000005375    0.000008919
   2   H   :    0.002216912   -0.000549159    0.003607633
   3   H   :    0.000178318    0.003724479   -0.002062547
   4   H   :   -0.002392371   -0.003180695   -0.001554005

Difference to translation invariance:
           :    0.0000000000    0.0000000000    0.0000000000

Difference to rotation invariance:
           :   -0.0000252119    0.0000114895    0.0000187369

Norm of the Cartesian gradient     ...    0.0073921738
RMS gradient                       ...    0.0021339368
MAX gradient                       ...    0.0037244787

-------
TIMINGS
-------

Total SCF gradient time     ....        0.841 sec

Densities                   ....       0.000 sec  (  0.0%)
One electron gradient       ....       0.012 sec  (  1.4%)
RI-J Coulomb gradient       ....       0.179 sec  ( 21.3%)
COSX gradient               ....       0.234 sec  ( 27.9%)
XC gradient                 ....       0.068 sec  (  8.1%)
CPCM gradient               ....       0.206 sec  ( 24.5%)
   A-Matrix (El+Nuc)        ....       0.001 sec  (  0.1%)
   Potential                ....       0.205 sec  ( 24.3%)

Maximum memory used throughout the entire SCFGRAD-calculation: 25.3 MB
------------------------------------------------------------------------------
                         ORCA GEOMETRY RELAXATION STEP
------------------------------------------------------------------------------

Reading the OPT-File                    .... done
Getting information on internals        .... done
Copying old internal coords+grads       .... done
Making the new internal coordinates     .... (2022 redundants) done
Validating the new internal coordinates .... (2022 redundants) done
Calculating the B-matrix                .... done
Calculating the G,G- and P matrices     .... done
Transforming gradient to internals      .... done
Projecting the internal gradient        .... done
Number of atoms                         ....   4
Number of internal coordinates          ....   7
Current Energy                          ....  -243.866592243 Eh
Current gradient norm                   ....     0.007392174 Eh/bohr
Maximum allowed component of the step   ....  0.300
Current trust radius                    ....  0.300
Evaluating the initial hessian          ....  (Almloef) done
Projecting the Hessian                  .... done
Forming the augmented Hessian           .... done
Diagonalizing the augmented Hessian     .... done
Last element of RFO vector              ....  0.999823978
Lowest eigenvalues of augmented Hessian:
 -0.000138711  0.044453510  0.382192419  0.382192665  0.393809234
Length of the computed step             ....  0.018765335
The final length of the internal step   ....  0.018765335
Converting the step to Cartesian space:
 Initial RMS(Int)=    0.0070926300
Transforming coordinates:
 Iter   0:  RMS(Cart)=    0.0054170294 RMS(Int)=    0.0070926285
done
Storing new coordinates                 .... done

                                .--------------------.
          ----------------------|Geometry convergence|-------------------------
          Item                value                   Tolerance       Converged
          ---------------------------------------------------------------------
          RMS gradient        0.0027939802            0.0000080000      NO
          MAX gradient        0.0042726070            0.0000300000      NO
          RMS step            0.0070926300            0.0001000000      NO
          MAX step            0.0108456325            0.0002000000      NO
          -------------------------------------------------------------------------
          ........................................................
          Max(Bonds)      0.0057      Max(Angles)    0.00
          Max(Dihed)        0.00      Max(Improp)    0.01
          ---------------------------------------------------------------------

The optimization has not yet converged - more geometry cycles are needed


    ---------------------------------------------------------------------------
                         Redundant Internal Coordinates
                            (Angstroem and degrees)

        Definition                    Value    dE/dq     Step     New-Value
    ----------------------------------------------------------------------------
     1. B(H   1,Al  0)                1.5956  0.004270 -0.0057    1.5899   
     2. B(H   2,Al  0)                1.5956  0.004261 -0.0057    1.5899   
     3. B(H   3,Al  0)                1.5956  0.004273 -0.0057    1.5899   
     4. A(H   1,Al  0,H   3)          120.00  0.000011   -0.00    120.00   
     5. A(H   2,Al  0,H   3)          120.00 -0.000010    0.00    120.00   
     6. A(H   1,Al  0,H   2)          120.00 -0.000002    0.00    120.00   
     7. I(H   1,H   3,H   2,Al  0)     -0.00  0.000009   -0.01     -0.01   
    ----------------------------------------------------------------------------

Geometry step timings:
Preparation and reading OPT file:      0.000 s ( 5.210 %)
Internal coordinates            :      0.000 s ( 3.558 %)
B/P matrices and projection     :      0.000 s (16.391 %)
Hessian update/contruction      :      0.000 s (20.712 %)
Making the step                 :      0.000 s (16.264 %)
Converting the step to Cartesian:      0.000 s ( 5.210 %)
Storing new data                :      0.000 s ( 4.701 %)
Checking convergence            :      0.000 s ( 4.956 %)
Final printing                  :      0.000 s (22.872 %)
Total time                      :      0.001 s

Time for energy+gradient        :      9.174 s
Time for complete geometry iter :      9.944 s

         *************************************************************
         *                GEOMETRY OPTIMIZATION CYCLE   2            *
         *************************************************************
---------------------------------
CARTESIAN COORDINATES (ANGSTROEM)
---------------------------------
  Al    -1.365052    0.622391   -0.208528
  H     -0.541580    0.415507    1.135678
  H     -1.297888    2.013247   -0.975889
  H     -2.255930   -0.561495   -0.785192

----------------------------
CARTESIAN COORDINATES (A.U.)
----------------------------
  NO LB      ZA    FRAG     MASS         X           Y           Z
   0 Al   13.0000    0    26.982   -2.579575    1.176148   -0.394060
   1 H     1.0000    0     1.008   -1.023437    0.785194    2.146120
   2 H     1.0000    0     1.008   -2.452653    3.804486   -1.844162
   3 H     1.0000    0     1.008   -4.263090   -1.061071   -1.483797

--------------------------------
INTERNAL COORDINATES (ANGSTROEM)
--------------------------------
 Al     0   0   0     0.000000000000     0.00000000     0.00000000
 H      1   0   0     1.589904681988     0.00000000     0.00000000
 H      1   2   0     1.589916538038   120.00057323     0.00000000
 H      1   2   3     1.589902514095   119.99853334   180.01303245

---------------------------
INTERNAL COORDINATES (A.U.)
---------------------------
 Al     0   0   0     0.000000000000     0.00000000     0.00000000
 H      1   0   0     3.004484427997     0.00000000     0.00000000
 H      1   2   0     3.004506832684   120.00057323     0.00000000
 H      1   2   3     3.004480331272   119.99853334   180.01303245



           ************************************************************
           *        Program running with 24 parallel MPI-processes    *
           *              working on a common directory               *
           ************************************************************
------------------------------------------------------------------------------
                   ___                                                        
                  /   \      - P O W E R E D   B Y -                         
                 /     \                                                     
                 |  |  |   _    _      __       _____    __    __             
                 |  |  |  | |  | |    /  \     |  _  \  |  |  /  |          
                  \  \/   | |  | |   /    \    | | | |  |  | /  /          
                 / \  \   | |__| |  /  /\  \   | |_| |  |  |/  /          
                |  |  |   |  __  | /  /__\  \  |    /   |      \           
                |  |  |   | |  | | |   __   |  |    \   |  |\   \          
                \     /   | |  | | |  |  |  |  | |\  \  |  | \   \       
                 \___/    |_|  |_| |__|  |__|  |_| \__\ |__|  \__/        
                                                                              
                      - O R C A' S   B I G   F R I E N D -                    
                                      &                                       
                       - I N T E G R A L  F E E D E R -                       
                                                                              
 v1 FN, 2020, v2 2021, v3 2022-2024                                           
------------------------------------------------------------------------------


----------------------
SHARK INTEGRAL PACKAGE
----------------------

Number of atoms                             ...      4
Number of basis functions                   ...     24
Number of shells                            ...     14
Maximum angular momentum                    ...      2
Integral batch strategy                     ... SHARK/LIBINT Hybrid
RI-J (if used) integral strategy            ... SPLIT-RIJ (Revised 2003 algorithm where possible)
Printlevel                                  ...      1
Contraction scheme used                     ... SEGMENTED contraction
Prescreening option                         ... SCHWARTZ
   Thresh                                   ... 3.000e-16
   Tcut                                     ... 3.000e-16
   Tpresel                                  ... 3.000e-16 
Coulomb Range Separation                    ... NOT USED
Exchange Range Separation                   ... NOT USED
Multipole approximations                    ... NOT USED
Finite Nucleus Model                        ... NOT USED
CABS basis                                  ... NOT available
Auxiliary Coulomb fitting basis             ... AVAILABLE
   # of basis functions in Aux-J            ...     84
   # of shells in Aux-J                     ...     32
   Maximum angular momentum in Aux-J        ...      4
Auxiliary J/K fitting basis                 ... NOT available
Auxiliary Correlation fitting basis         ... NOT available
Auxiliary 'external' fitting basis          ... NOT available

Checking pre-screening integrals            ... done (  0.0 sec) Dimension = 14
   => SHARK Basis and OBASIS are compatible. Storing Pre-screening
Shell pair information
Shell pair cut-off parameter TPreSel        ...   3.0e-16
Total number of shell pairs                 ...       105
Shell pairs after pre-screening             ...       105
Total number of primitive shell pairs       ...       497
Primitive shell pairs kept                  ...       458
          la=0 lb=0:     55 shell pairs
          la=1 lb=0:     30 shell pairs
          la=1 lb=1:      6 shell pairs
          la=2 lb=0:     10 shell pairs
          la=2 lb=1:      3 shell pairs
          la=2 lb=2:      1 shell pairs

Checking whether 4 symmetric matrices of dimension 24 fit in memory
:Max Core in MB      =   4096.00
 MB in use           =      3.30
 MB left             =   4092.70
 MB needed           =      0.01
 Data fit in memory  = YES
Calculating RI/J V-Matrix + Cholesky decomp.... done (  0.0 sec)
Calculating Nuclear repulsion               ... done (  0.0 sec) ENN=     13.557057476631 Eh

Diagonalization of the overlap matrix:
Smallest eigenvalue                        ... 8.151e-02
Time for diagonalization                   ...    0.000 sec
Threshold for overlap eigenvalues          ... 1.000e-07
Number of eigenvalues below threshold      ... 0
Time for construction of square roots      ...    0.000 sec
Total time needed                          ...    0.002 sec

-------------------
DFT GRID GENERATION
-------------------

General Integration Accuracy     IntAcc      ... 4.959
Radial Grid Type                 RadialGrid  ... OptM3 with GC (2021)
Angular Grid (max. ang.)         AngularGrid ... 6 (Lebedev-590)
Angular grid pruning method      GridPruning ... 4 (adaptive)
Weight generation scheme         WeightScheme... mBecke (2022)
Basis function cutoff            BFCut       ... 3.0000e-16
Integration weight cutoff        WCut        ... 1.0000e-14
Partially contracted basis set               ... off
Rotationally invariant grid construction     ... off
Angular grids for H and He will be reduced by one unit

Total number of grid points                  ...    43727
Total number of batches                      ...      685
Average number of points per batch           ...       63
Average number of grid points per atom       ...    10932

--------------------
COSX GRID GENERATION
--------------------

GRIDX 1
-------
General Integration Accuracy     IntAcc      ... 4.020
Radial Grid Type                 RadialGrid  ... OptM3 with GC (2021)
Angular Grid (max. ang.)         AngularGrid ... 2 (Lebedev-110)
Angular grid pruning method      GridPruning ... 4 (adaptive)
Weight generation scheme         WeightScheme... mBecke (2022)
Basis function cutoff            BFCut       ... 3.0000e-16
Integration weight cutoff        WCut        ... 1.0000e-14
Partially contracted basis set               ... on
Rotationally invariant grid construction     ... off
Angular grids for H and He will be reduced by one unit

Total number of grid points                  ...     4408
Total number of batches                      ...       35
Average number of points per batch           ...      125
Average number of grid points per atom       ...     1102
UseSFitting                                  ... on

GRIDX 2
-------
General Integration Accuracy     IntAcc      ... 4.338
Radial Grid Type                 RadialGrid  ... OptM3 with GC (2021)
Angular Grid (max. ang.)         AngularGrid ... 3 (Lebedev-194)
Angular grid pruning method      GridPruning ... 4 (adaptive)
Weight generation scheme         WeightScheme... mBecke (2022)
Basis function cutoff            BFCut       ... 3.0000e-16
Integration weight cutoff        WCut        ... 1.0000e-14
Partially contracted basis set               ... on
Rotationally invariant grid construction     ... off
Angular grids for H and He will be reduced by one unit

Total number of grid points                  ...    10336
Total number of batches                      ...       83
Average number of points per batch           ...      124
Average number of grid points per atom       ...     2584
UseSFitting                                  ... on

GRIDX 3
-------
General Integration Accuracy     IntAcc      ... 4.871
Radial Grid Type                 RadialGrid  ... OptM3 with GC (2021)
Angular Grid (max. ang.)         AngularGrid ... 4 (Lebedev-302)
Angular grid pruning method      GridPruning ... 4 (adaptive)
Weight generation scheme         WeightScheme... mBecke (2022)
Basis function cutoff            BFCut       ... 3.0000e-16
Integration weight cutoff        WCut        ... 1.0000e-14
Partially contracted basis set               ... on
Rotationally invariant grid construction     ... off
Angular grids for H and He will be reduced by one unit

Total number of grid points                  ...    20930
Total number of batches                      ...      165
Average number of points per batch           ...      126
Average number of grid points per atom       ...     5232
UseSFitting                                  ... on
Grids setup in   1.4 sec
Initializing property integral containers    ... done (  0.0 sec)

SHARK setup successfully completed in   1.6 seconds

Maximum memory used throughout the entire STARTUP-calculation: 12.6 MB


           ************************************************************
           *        Program running with 24 parallel MPI-processes    *
           *              working on a common directory               *
           ************************************************************
Occupation numbers will be reassigned to an Aufbau configuration
             **** ENERGY FILE WAS UPDATED (run.en.tmp) ****
Finished Guess after   0.6 sec
Maximum memory used throughout the entire GUESS-calculation: 5.5 MB


           ************************************************************
           *        Program running with 24 parallel MPI-processes    *
           *              working on a common directory               *
           ************************************************************
--------------------
CPCM SOLVATION MODEL
--------------------
CPCM parameters:
  Epsilon                                         ...       1.9578
  Refrac                                          ...       1.0000
  Rsolv                                           ...       1.3000
  Surface type                                    ... GAUSSIAN VDW
  Discretization scheme                           ... Constant charge density
    Threshold for H atoms                         ...       5.0000 (charges/Ang^2)
    Threshold for non-H atoms                     ...       5.0000 (charges/Ang^2)
  Epsilon function type                           ...         CPCM
Solvent:                                          ... CUSTOM
Radii:
  Scheme                                          ... Element-dependent radii
  Radius for Al used is    4.1725 Bohr (=   2.2080 Ang.)
  Radius for H  used is    2.4944 Bohr (=   1.3200 Ang.)
Calculating surface                               ...        done! (  0.0s)
Cavity surface points                             ...          456
Cavity Volume                                     ...     356.4156
Cavity Surface-area                               ...     255.1283
Calculating surface distance matrix               ...        done! (  0.0s)
Performing Cholesky decomposition & store         ...        done! (  0.0s)
Overall time for CPCM initialization              ...                 0.0s

----------------------------------------D-I-I-S--------------------------------------------
Iteration    Energy (Eh)           Delta-E    RMSDP     MaxDP     DIISErr   Damp  Time(sec)
-------------------------------------------------------------------------------------------
               ***  Starting incremental Fock matrix formation  ***
                              *** Initializing SOSCF ***
---------------------------------------S-O-S-C-F--------------------------------------
Iteration    Energy (Eh)           Delta-E    RMSDP     MaxDP     MaxGrad    Time(sec)
--------------------------------------------------------------------------------------
    1    -243.8708987935470702     0.00e+00  2.92e-03  8.85e-04  1.23e-04     0.2
               *** Restarting incremental Fock matrix formation ***
    2    -243.8709022667640909    -3.47e-06  7.54e-04  2.93e-04  1.38e-04     0.2
    3    -243.8709024284820828    -1.62e-07  1.42e-04  1.05e-04  1.36e-05     0.1
    4    -243.8709024301311672    -1.65e-09  1.36e-05  3.91e-06  2.34e-06     0.1
    5    -243.8709024301232660     7.90e-12  1.77e-06  9.18e-07  3.59e-07     0.2
    6    -243.8709024301287229    -5.46e-12  1.09e-07  5.89e-08  2.24e-08     0.1
    7    -243.8709024301290640    -3.41e-13  1.42e-08  3.77e-09  2.56e-09     0.1
    8    -243.8709024301291208    -5.68e-14  0.00e+00  0.00e+00  8.98e-10     0.2
                           ***RMSP convergence achieved***
                           ***MAXP convergence achieved***
                       ***Gradient convergence achieved***
                    ***Orbital Rotation convergence achieved***
    9    -243.8709024301291208     0.00e+00  0.00e+00  0.00e+00  8.98e-10     0.1
                          ***Energy convergence achieved***

               *****************************************************
               *                     SUCCESS                       *
               *           SCF CONVERGED AFTER   9 CYCLES          *
               *****************************************************

Recomputing exchange energy using gridx3       ... done (    0.069 sec)
Old exchange energy                            :     -8.049664397 Eh
New exchange energy                            :     -8.049667158 Eh
Exchange energy change after final integration :     -0.000002761 Eh
Total energy after final integration           :   -243.870905191 Eh
             **** ENERGY FILE WAS UPDATED (run.en.tmp) ****

----------------
TOTAL SCF ENERGY
----------------

Total Energy       :       -243.87090519144226 Eh           -6636.06470 eV

Components:
Nuclear Repulsion  :         13.55705747663066 Eh             368.90629 eV
Electronic Energy  :       -257.42449055678492 Eh           -7004.87651 eV
One Electron Energy:       -365.48672050233955 Eh           -9945.39928 eV
Two Electron Energy:        108.06222994555465 Eh            2940.52277 eV
CPCM Dielectric    :         -0.00346934997484 Eh              -0.09441 eV

Virial components:
Potential Energy   :       -487.22761190286860 Eh          -13258.13735 eV
Kinetic Energy     :        243.35670671142631 Eh            6622.07265 eV
Virial Ratio       :          2.00211294147987

DFT components:
N(Alpha)           :        8.000000009018 electrons
N(Beta)            :        8.000000009018 electrons
N(Total)           :       16.000000018035 electrons
E(X)               :      -10.705255578075 Eh       
E(C)               :       -0.728711625169 Eh       
E(XC)              :      -11.433967203245 Eh       

CPCM Solvation Model Properties:
Surface-charge          :         -0.03495188870577
Corrected charge        :         -0.00000000000000
Outlying charge corr.   :          0.00006681045048 Eh               0.00182 eV
Free-energy (cav+disp)  :  This term is not implemented in the current solvation scheme

---------------
SCF CONVERGENCE
---------------

  Last Energy change         ...    0.0000e+00  Tolerance :   1.0000e-14
  Last MAX-Density change    ...    0.0000e+00  Tolerance :   1.0000e-14
  Last RMS-Density change    ...    0.0000e+00  Tolerance :   1.0000e-14
  Last DIIS Error            ...    9.4972e-04  Tolerance :   1.0000e-14
  Last Orbital Gradient      ...    8.9804e-10  Tolerance :   1.0000e-09
  Last Orbital Rotation      ...    0.0000e+00  Tolerance :   1.0000e-09


Total SCF time: 0 days 0 hours 0 min 2 sec 
Finished LeanSCF after   2.3 sec

Maximum memory used throughout the entire LEANSCF-calculation: 4.7 MB


           ************************************************************
           *        Program running with 24 parallel MPI-processes    *
           *              working on a common directory               *
           ************************************************************

------------------------------------------------------------------------------
                         ORCA PROPERTY INTEGRAL CALCULATIONS
------------------------------------------------------------------------------

GBWName                                   ... run.gbw
Number of atoms                           ...      4
Number of basis functions                 ...     24
Max core memory                           ...   4096 MB

Dipole integrals                          ... YES
Quadrupole integrals                      ...  NO
Linear momentum integrals                 ...  NO
Angular momentum integrals                ...  NO
Higher moments length integrals           ...  NO
Higher moments velocity integrals         ...  NO
Kinetic energy integrals                  ...  NO
GIAO right hand sides                     ...  NO
GIAO dipole derivative integrals          ...  NO
SOC integrals                             ...  NO
EPR diamagnetic integrals (GIAO)          ...  NO
EPR gauge integrals                       ...  NO
Field gradient integrals                  ...  NO (   0 nuclei)
Spin-dipole/Fermi contact integrals       ...  NO (   0 nuclei)
Contact density integrals                 ...  NO (   0 nuclei)
Nucleus-orbit integrals                   ...  NO (   0 nuclei)
Geometric perturbations                   ...  NO (   4 nuclei)

Choice of electric origin   ... Center of mass
Position of electric origin ... ( -2.5796,  1.1762, -0.3940) 
Choice of magnetic origin   ... GIAO
Position of magnetic origin ... (  0.0000,  0.0000,  0.0000) 

Calculating integrals                     ... Electric Dipole (Length)     done (  0.0 sec)

Property integrals calculated in   0.0 sec

Maximum memory used throughout the entire PROPINT-calculation: 5.6 MB


-------------------------------------------------------------------------------
                          DFT DISPERSION CORRECTION                            
                                                                               
                              DFTD3 V3.1  Rev 1                                
                          USING Becke-Johnson damping                          
-------------------------------------------------------------------------------
-------------------------   ----------------
Dispersion correction           -0.000533857
-------------------------   ----------------

------------------   -----------------
gCP correction             0.004733147
------------------   -----------------

-------------------------   --------------------
FINAL SINGLE POINT ENERGY      -243.866705901356
-------------------------   --------------------



           ************************************************************
           *        Program running with 24 parallel MPI-processes    *
           *              working on a common directory               *
           ************************************************************
------------------------------------------------------------------------------
                         ORCA SCF GRADIENT CALCULATION
------------------------------------------------------------------------------

Nuc. rep. gradient        (SHARK) ... done (  0.0 sec)
HCore & Overlap gradient  (SHARK) ... done (  0.0 sec)
Split-RIJ-J gradient      (SHARK) ... done (  0.2 sec)
done (  0.2 sec)
XC gradient                       ... done (  0.1 sec)
CPCM gradient                     ... done (  0.2 sec)
Dispersion correction             ... done (  0.1 sec)

-------------------
DISPERSION GRADIENT
-------------------

   1   Al  :   -0.000000001    0.000000001    0.000000000
   2   H   :    0.000007934   -0.000001993    0.000012949
   3   H   :    0.000000648    0.000013398   -0.000007393
   4   H   :   -0.000008581   -0.000011406   -0.000005556

Difference to translation invariance:
           :    0.0000000000   -0.0000000000    0.0000000000

Difference to rotation invariance:
           :    0.0000000000   -0.0000000000    0.0000000000

Norm of the Dispersion gradient    ...    0.0000265286
RMS gradient                       ...    0.0000076582
MAX gradient                       ...    0.0000133979
gCP correction                   ... done

------------------
CARTESIAN GRADIENT
------------------

   1   Al  :    0.000003284   -0.000001091    0.000003629
   2   H   :    0.001412774   -0.000346774    0.002300858
   3   H   :    0.000110608    0.002374559   -0.001315113
   4   H   :   -0.001526667   -0.002026694   -0.000989374

Difference to translation invariance:
           :   -0.0000000000    0.0000000000   -0.0000000000

Difference to rotation invariance:
           :   -0.0000269859    0.0000128105    0.0000198498

Norm of the Cartesian gradient     ...    0.0047124842
RMS gradient                       ...    0.0013603770
MAX gradient                       ...    0.0023745594

-------
TIMINGS
-------

Total SCF gradient time     ....        0.808 sec

Densities                   ....       0.000 sec  (  0.0%)
One electron gradient       ....       0.012 sec  (  1.5%)
RI-J Coulomb gradient       ....       0.179 sec  ( 22.1%)
COSX gradient               ....       0.236 sec  ( 29.2%)
XC gradient                 ....       0.069 sec  (  8.5%)
CPCM gradient               ....       0.166 sec  ( 20.6%)
   A-Matrix (El+Nuc)        ....       0.001 sec  (  0.1%)
   Potential                ....       0.165 sec  ( 20.5%)

Maximum memory used throughout the entire SCFGRAD-calculation: 25.3 MB
------------------------------------------------------------------------------
                         ORCA GEOMETRY RELAXATION STEP
------------------------------------------------------------------------------

Reading the OPT-File                    .... done
Getting information on internals        .... done
Copying old internal coords+grads       .... done
Making the new internal coordinates     .... (2022 redundants) done
Validating the new internal coordinates .... (2022 redundants) done
Calculating the B-matrix                .... done
Calculating the G,G- and P matrices     .... done
Transforming gradient to internals      .... done
Projecting the internal gradient        .... done
Number of atoms                         ....   4
Number of internal coordinates          ....   7
Current Energy                          ....  -243.866705901 Eh
Current gradient norm                   ....     0.004712484 Eh/bohr
Maximum allowed component of the step   ....  0.300
Current trust radius                    ....  0.300
Updating the Hessian (BFGS)             .... done
Forming the augmented Hessian           .... done
Diagonalizing the augmented Hessian     .... done
Last element of RFO vector              ....  0.999457158
Lowest eigenvalues of augmented Hessian:
 -0.000155338  0.044454649  0.142962432  0.382192618  0.382192978
Length of the computed step             ....  0.032963147
The final length of the internal step   ....  0.032963147
Converting the step to Cartesian space:
 Initial RMS(Int)=    0.0124588986
Transforming coordinates:
 Iter   0:  RMS(Cart)=    0.0095156885 RMS(Int)=    0.0124588982
done
Storing new coordinates                 .... done
The predicted energy change is          ....    -0.000077754
Previously predicted energy change      ....    -0.000069380
Actually observed energy change         ....    -0.000113658
Ratio of predicted to observed change   ....     1.638207168
New trust radius                        ....     0.200000000

                                .--------------------.
          ----------------------|Geometry convergence|-------------------------
          Item                value                   Tolerance       Converged
          ---------------------------------------------------------------------
          Energy change      -0.0001136584            0.0000002000      NO
          RMS gradient        0.0017811533            0.0000080000      NO
          MAX gradient        0.0027234275            0.0000300000      NO
          RMS step            0.0124588986            0.0001000000      NO
          MAX step            0.0190500208            0.0002000000      NO
[...]
                        -----------------------------------------
Magnitude (a.u.)       :      0.000376983
Magnitude (Debye)      :      0.000958213



--------------------
Rotational spectrum 
--------------------
 
Rotational constants in cm-1:             4.465755             4.464959             2.232678 
Rotational constants in MHz :        133879.960124        133856.104902         66934.016215 

Dipole components along the rotational axes: 
x,y,z [a.u.] :     0.000222     0.000006    -0.000305 
x,y,z [Debye]:     0.000564     0.000015    -0.000775 

 

Dipole moment calculation done in   0.0 sec 


---------------------------------------------------
STATIC POLARIZABILITY TENSOR (Dipole/Dipole)
---------------------------------------------------

Method             : SCF
Type of density    : Electron Density
Type of derivative : Electric Field (Direction=X)
Multiplicity       :   1
Irrep              :   0
Basis              : AO

The raw cartesian tensor (atomic units):
      22.034848152         2.956168358         4.743981386  
       2.956168358        27.789867147        -2.005634200  
       4.743981386        -2.005634200        25.822097702  
diagonalized tensor: 
      17.571627168        29.035211470        29.039974364  

Orientation: 
       0.781448580         0.622173021        -0.047316466  
      -0.330016237         0.476473436         0.814900207  
      -0.529553963         0.621187408        -0.577666690  

Isotropic polarizability :  25.21560


Polarizability tensor calculation done in   0.0 sec 

-----------
SCF HESSIAN
-----------

Occupied/Occupied contributions to the Hessian:
   => Occupied/Occupied contributions              ... done (  0.0 sec)
Perturbed density contributions to the Hessian:
   => Perturbed density contributions              ... done (  0.0 sec)
Explicit contributions to the Hessian:
   => Nuclear repulsion Hessian                    ... done (  0.0 sec)
   => HCore and overlap Hessian                    ... done (  0.0 sec)
   => RI-J Hessian                                 ... done (  0.1 sec)
   => COSX Hessian                                 ... done (  2.0 sec)
   => XC-Hessian                                   ... done (  0.3 sec)
   => CPCM-Hessian                                 ... done (  0.2 sec)
   => Van der Waals-Hessian                        ... done (  0.2 sec)
   => GCP-Hessian                                  ... done (  0.0 sec)
   => Explicit contributions done
Polarizability derivatives:
   => Setting up XC integration                    ... done (  0.2 sec)
   => E-field response with dipole derivative ints ... done (  0.0 sec)
   => E-field perturbed Fock                       ... done (  0.2 sec)
   => Making E/E response densities                ... done (  0.0 sec)
   => E/E response with H and S derivative         ... done (  0.0 sec)
   => E/E responses with CPCM gradient             ... done (  4.0 sec)
   => E/E response with RI-J 2el gradient          ... done (  0.2 sec)
   => E/E response with COSX gradient              ... done (  0.2 sec)
   => XC term: E/E response with BF derivatives    ... done (  0.4 sec)
   => Preparing E/E Fock matrices                  ... done (  0.4 sec)
   => Loop over nuclei, using geometric responses  ... done (  0.0 sec)
   => Polarizability derivatives done in       5.6 sec
Dipole derivatives                                 ... done (  0.0 sec)
Mass weighting the Hessian           ... done
Calculating normal modes             ... done
Scaling frequencies                  ... done

-----------------------
VIBRATIONAL FREQUENCIES
-----------------------

Scaling factor for frequencies =  1.000000000  (already applied!)

     0:       0.00 cm**-1
     1:       0.00 cm**-1
     2:       0.00 cm**-1
     3:       0.00 cm**-1
     4:       0.00 cm**-1
     5:       0.00 cm**-1
     6:     688.66 cm**-1
     7:     781.32 cm**-1
     8:     782.31 cm**-1
     9:    1984.37 cm**-1
    10:    1985.53 cm**-1
    11:    1985.96 cm**-1


------------
NORMAL MODES
------------

These modes are the Cartesian displacements weighted by the diagonal matrix
M(i,i)=1/sqrt(m[i]) where m[i] is the mass of the displaced atom
Thus, these vectors are normalized but *not* orthogonal

                  0          1          2          3          4          5    
      0       0.000000   0.000000   0.000000   0.000000   0.000000   0.000000
      1       0.000000   0.000000   0.000000   0.000000   0.000000   0.000000
      2       0.000000   0.000000   0.000000   0.000000   0.000000   0.000000
      3       0.000000   0.000000   0.000000   0.000000   0.000000   0.000000
      4       0.000000   0.000000   0.000000   0.000000   0.000000   0.000000
      5       0.000000   0.000000   0.000000   0.000000   0.000000   0.000000
      6       0.000000   0.000000   0.000000   0.000000   0.000000   0.000000
      7       0.000000   0.000000   0.000000   0.000000   0.000000   0.000000
      8       0.000000   0.000000   0.000000   0.000000   0.000000   0.000000
      9       0.000000   0.000000   0.000000   0.000000   0.000000   0.000000
     10       0.000000   0.000000   0.000000   0.000000   0.000000   0.000000
     11       0.000000   0.000000   0.000000   0.000000   0.000000   0.000000
                  6          7          8          9         10         11    
      0      -0.050450   0.011543  -0.025268  -0.002934  -0.009142  -0.026009
      1       0.021382   0.041943  -0.001173  -0.006182   0.029466  -0.029206
      2       0.034163  -0.009307  -0.036600  -0.000486  -0.031857  -0.020182
      3       0.449763  -0.282551   0.035744   0.304861   0.364202   0.204921
      4      -0.191400  -0.751050   0.128950  -0.080177  -0.078368  -0.069108
      5      -0.304943   0.052904  -0.027100   0.499885   0.586367   0.345520
      6       0.450128  -0.177469   0.475695   0.026868  -0.035175  -0.002796
      7      -0.190151  -0.083335   0.277526   0.583400  -0.618756   0.191709
      8      -0.305303  -0.208207   0.529374  -0.323790   0.333616  -0.123522
      9       0.450539   0.151048   0.164933  -0.253199  -0.084311   0.494074
     10      -0.190796  -0.288327  -0.375079  -0.337745  -0.091630   0.659174
     11      -0.304218   0.404441   0.477441  -0.163097  -0.067249   0.318233


-----------
IR SPECTRUM
-----------

 Mode   freq       eps      Int      T**2         TX        TY        TZ
       cm**-1   L/(mol*cm) km/mol    a.u.
----------------------------------------------------------------------------
  6:    688.66   0.096230  486.31  0.043606  (-0.163164  0.069182  0.110443)
  7:    781.32   0.059977  303.10  0.023955  ( 0.040064  0.145938 -0.032441)
  8:    782.31   0.059866  302.54  0.023881  (-0.087800 -0.004112 -0.127102)
  9:   1984.37   0.001598    8.08  0.000251  (-0.006755 -0.014298 -0.001131)
 10:   1985.53   0.063387  320.33  0.009962  (-0.020516  0.066376 -0.071665)
 11:   1985.96   0.062300  314.84  0.009790  (-0.058462 -0.065681 -0.045363)

* The epsilon (eps) is given for a Dirac delta lineshape.
** The dipole moment derivative (T) already includes vibrational overlap.

--------------
RAMAN SPECTRUM  
--------------

 Mode    freq (cm**-1)   Activity   Depolarization
-------------------------------------------------------------------
   6:       688.66      0.000307      0.615064
   7:       781.32     26.498338      0.750000
   8:       782.31     26.438618      0.750000
   9:      1984.37    323.200639      0.065020
  10:      1985.53     50.510854      0.711583
  11:      1985.96     54.425392      0.625892

The first frequency considered to be a vibration is 6
The total number of vibrations considered is 6


--------------------------
THERMOCHEMISTRY AT 298.15K
--------------------------

Temperature         ...   298.15 K
Pressure            ...     1.00 atm
Total Mass          ...    30.01 AMU
Quasi RRHO          ...     True
Cut-Off Frequency   ...     1.00 cm^-1

Throughout the following assumptions are being made:
  (1) The electronic state is orbitally nondegenerate
  (2) There are no thermally accessible electronically excited states
  (3) Hindered rotations indicated by low frequency modes are not
      treated as such but are treated as vibrations and this may
      cause some error
  (4) All equations used are the standard statistical mechanics
      equations for an ideal gas
  (5) All vibrations are strictly harmonic

freq.     688.66  E(vib)   ...       0.07 
freq.     781.32  E(vib)   ...       0.05 
freq.     782.31  E(vib)   ...       0.05 
freq.    1984.37  E(vib)   ...       0.00 
freq.    1985.53  E(vib)   ...       0.00 
freq.    1985.96  E(vib)   ...       0.00 

------------
INNER ENERGY
------------

The inner energy is: U= E(el) + E(ZPE) + E(vib) + E(rot) + E(trans)
    E(el)   - is the total energy from the electronic structure calculation
              = E(kin-el) + E(nuc-el) + E(el-el) + E(nuc-nuc)
    E(ZPE)  - the the zero temperature vibrational energy from the frequency calculation
    E(vib)  - the the finite temperature correction to E(ZPE) due to population
              of excited vibrational states
    E(rot)  - is the rotational thermal energy
    E(trans)- is the translational thermal energy

Summary of contributions to the inner energy U:
Electronic energy                ...   -243.86678175 Eh
Zero point energy                ...      0.01869954 Eh      11.73 kcal/mol
Thermal vibrational correction   ...      0.00028683 Eh       0.18 kcal/mol
Thermal rotational correction    ...      0.00141627 Eh       0.89 kcal/mol
Thermal translational correction ...      0.00141627 Eh       0.89 kcal/mol
-----------------------------------------------------------------------
Total thermal energy                   -243.84496285 Eh


Summary of corrections to the electronic energy:
(perhaps to be used in another calculation)
Total thermal correction                  0.00311937 Eh       1.96 kcal/mol
Non-thermal (ZPE) correction              0.01869954 Eh      11.73 kcal/mol
-----------------------------------------------------------------------
Total correction                          0.02181891 Eh      13.69 kcal/mol


--------
ENTHALPY
--------

The enthalpy is H = U + kB*T
                kB is Boltzmann's constant
Total thermal energy              ...   -243.84496285 Eh 
Thermal Enthalpy correction       ...      0.00094421 Eh       0.59 kcal/mol
-----------------------------------------------------------------------
Total Enthalpy                    ...   -243.84401864 Eh


Note: Rotational entropy computed according to Herzberg 
Infrared and Raman Spectra, Chapter V,1, Van Nostrand Reinhold, 1945 
Point Group:  Cs, Symmetry Number:   1  
Rotational constants in cm-1:     4.465759     4.464963     2.232680 

Vibrational entropy computed according to the QRRHO of S. Grimme
Chem.Eur.J. 2012 18 9955 using a reference frequency of 100.0 cm-1


-------
ENTROPY
-------

The entropy contributions are T*S = T*(S(el)+S(vib)+S(rot)+S(trans))
     S(el)   - electronic entropy
     S(vib)  - vibrational entropy
     S(rot)  - rotational entropy
     S(trans)- translational entropy
The entropies will be listed as multiplied by the temperature to get
units of energy

Electronic entropy                ...      0.00000000 Eh      0.00 kcal/mol
Vibrational entropy               ...      0.00036587 Eh      0.23 kcal/mol
Rotational entropy                ...      0.00771880 Eh      4.84 kcal/mol
Translational entropy             ...      0.01716637 Eh     10.77 kcal/mol
-----------------------------------------------------------------------
Final entropy term                ...      0.02525104 Eh     15.85 kcal/mol

In case the symmetry of your molecule has not been determined correctly
or in case you have a reason to use a different symmetry number we print 
out the resulting rotational entropy values for sn=1,12:

 non-linear molecules -----------------------------------
|  sn= 1 | S(rot)=       0.00771880 Eh      4.84 kcal/mol|
|  sn= 2 | S(rot)=       0.00706434 Eh      4.43 kcal/mol|
|  sn= 3 | S(rot)=       0.00668151 Eh      4.19 kcal/mol|
|  sn= 4 | S(rot)=       0.00640989 Eh      4.02 kcal/mol|
|  sn= 5 | S(rot)=       0.00619920 Eh      3.89 kcal/mol|
|  sn= 6 | S(rot)=       0.00602706 Eh      3.78 kcal/mol|
|  sn= 7 | S(rot)=       0.00588151 Eh      3.69 kcal/mol|
|  sn= 8 | S(rot)=       0.00575543 Eh      3.61 kcal/mol|
|  sn= 9 | S(rot)=       0.00564422 Eh      3.54 kcal/mol|
|  sn=10 | S(rot)=       0.00554474 Eh      3.48 kcal/mol|
|  sn=11 | S(rot)=       0.00545475 Eh      3.42 kcal/mol|
|  sn=12 | S(rot)=       0.00537260 Eh      3.37 kcal/mol|
 linear molecules ---------------------------------------
|  Dinfh | S(rot)=       0.00456744 Eh      2.87 kcal/mol|
|  Cinfv | S(rot)=       0.00522189 Eh      3.28 kcal/mol|
 --------------------------------------------------------


-------------------
GIBBS FREE ENERGY
-------------------

The Gibbs free energy is G = H - T*S

Total enthalpy                    ...   -243.84401864 Eh 
Total entropy correction          ...     -0.02525104 Eh    -15.85 kcal/mol
-----------------------------------------------------------------------
Final Gibbs free energy         ...   -243.86926968 Eh

For completeness - the Gibbs free energy minus the electronic energy
G-E(el)                           ...     -0.00248792 Eh     -1.56 kcal/mol


Maximum memory used throughout the entire PROP-calculation: 25.4 MB

--------------------------------
SUGGESTED CITATIONS FOR THIS RUN
--------------------------------

Below you find a list of papers that are relevant to this ORCA run
We neither can nor want to force you to cite these papers, but we appreciate if you do
You receive ORCA, which is the product of decades of hard work by many enthusiastic individuals, for free
The only thing we kindly ask in return is that you cite our papers,
We deeply appreciate it, if you show your appreciation for ORCA by not just citing the generic ORCA reference.

Please note that relegating all ORCA citations to the supporting information does *not* help us.
SI sections are not indexed - citations you put there will not count into any citation statistics
But we need these citations in order to attract the funding resources that allow us to do what we are doing

Therefore, if you are a happy ORCA user, please consider citing a few of the papers listed below in the main body of your paper

In addition to the list printed below, the program has created the file run.bibtex that contains the list in bibtex format
You can import this file easily into all common literature databanks and citation aid programs


List of essential papers. We consider these as the minimum necessary citations

  1. Neese, F.
     Software update: the ORCA program system, version 6.0
     WIRES Comput. Molec. Sci. 2025 15(1), e70019
     doi.org/10.1002/wcms.7019

List of papers to cite with high priority. The work reported in these papers was absolutely
necessary for this run to complete.
Our perspective: the developers of density functionals and basis sets usually get cited in chemistry papers
Good! But without the algorithms to do something with them, the functionals or basis sets would not do anything.
Hence, in our opinion, the algorithm design and method developments papers are equally worthy of getting cited

  1. Neese, F.
     An improvement of the resolution of the identity approximation for the formation of the Coulomb matrix
     J. Comp. Chem. 2003 24(14), 1740-1747
     doi.org/10.1002/jcc.10318
  2. Neese, F.; Wennmohs, F.; Hansen, A.; Becker, U.
     Efficient, approximate and parallel Hartree-Fock and hybrid DFT calculations. A 'chain-of-spheres' algorithm for the Hartree-Fock exchange
     Chem. Phys. 2009 356(1-3), 98-109
     doi.org/10.1016/j.chemphys.2008.10.036
  3. Grimme, S.; Antony, J.; Ehrlich, S.; Krieg, H.
     A consistent and accurate ab initio parametrization of density functional dispersion correction (DFT-D) for the 94 elements H-Pu
     J. Chem. Phys. 2010 132 , 154104
     doi.org/10.1063/1.3382344
  4. Grimme, S.; Ehrlich, S.; Goerigk, L.
     Effect of the damping function in dispersion corrected density functional theory
     J. Comput. Chem. 2011 32(7), 1456-1465
     doi.org/10.1002/jcc.21759
  5. Bykov, D.; Petrenko, T.; Izsak, R.; Kossmann, S.; Becker, U.; Valeev, E.; Neese, F.
     Efficient implementation of the analytic second derivatives of Hartree-Fock and hybrid DFT energies: a detailed analysis of different approximations
     Molec. Phys. 2015 113 , 1961-1977
     doi.org/10.1080/00268976.2015.1025114
  6. Garcia-Rates, M.; Neese, F.
     Efficient implementation of the analytical second derivatives of hartree-fock and hybrid DFT energies within the framework of the conductor-like polarizable continuum model
     J. Comput. Chem. 2019 40 , 1816-1828
     doi.org/10.1002/jcc.25833
  7. Garcia-Rates, M.; Neese, F.
     Effect of the Solute Cavity on the Solvation Energy and its Derivatives within the Framework of the Gaussian Charge Scheme
     J. Comput. Chem. 2020 41 , 922-939
     doi.org/10.1002/jcc.26139
  8. Helmich-Paris, B.; de Souza, B.; Neese, F.; Izsák, R.
     An improved chain of spheres for exchange algorithm
     J. Chem. Phys. 2021 155(10), 104109
     doi.org/10.1063/5.0058766
  9. Neese, F.
     The SHARK Integral Generation and Digestion System
     J. Comp. Chem. 2022 44(3), 381
     doi.org/10.1002/jcc.26942
 10. Petra, P.; Frank, N.
     Efficient calculation of analytic Raman intensities
     to be submitted 2025  , 

List of suggested additional citations. These are papers that are important in the 'surrounding' of 
of this run, or papers that preceded the highly important papers. If you like your results we are grateful for a citation.

  1. Izsak, R.; Neese, F.
     An overlap fitted chain of spheres exchange method
     J. Chem. Phys. 2011 135 , 144105
     doi.org/10.1063/1.3646921
  2. Izsak, R.; Hansen, A.; Neese, F.
     The resolution of identity and chain of spheres approximations for the LPNO-CCSD singles Fock term
     Molec. Phys. 2012 110 , 2413-2417
     doi.org/10.1080/00268976.2012.687466
  3. Neese, F.
     The ORCA program system
     WIRES Comput. Molec. Sci. 2012 2(1), 73-78
     doi.org/10.1002/wcms.81
  4. Izsak, R.; Neese, F.; Klopper, W.
     Robust fitting techniques in the chain of spheres approximation to the Fock exchange: The role of the complementary space
     J. Chem. Phys. 2013 139 , 
     doi.org/10.1063/1.4819264
  5. Neese, F.
     Software update: the ORCA program system, version 4.0
     WIRES Comput. Molec. Sci. 2018 8(1), 1-6
     doi.org/10.1002/wcms.1327
  6. Neese, F.; Wennmohs, F.; Becker, U.; Riplinger, C.
     The ORCA quantum chemistry program package
     J. Chem. Phys. 2020 152(22), 224108
     doi.org/10.1063/5.0004608
  7. Neese, F.
     Software update: The ORCA program system—Version 5.0
     WIRES Comput. Molec. Sci. 2022 12(1), e1606
     doi.org/10.1002/wcms.1606

List of optional additional citations

  1. Neese, F.
     Approximate second-order SCF convergence for spin unrestricted wavefunctions
     Chem. Phys. Lett. 2000 325(1-3), 93-98
     doi.org/10.1016/s0009-2614(00)00662-x

Timings for individual modules:

Sum of individual times          ...       53.289 sec (=   0.888 min)
Startup calculation              ...       11.259 sec (=   0.188 min)  21.1 %
SCF iterations                   ...       17.199 sec (=   0.287 min)  32.3 %
Property integrals               ...        6.344 sec (=   0.106 min)  11.9 %
SCF Response                     ...        2.402 sec (=   0.040 min)   4.5 %
Property calculations            ...        9.405 sec (=   0.157 min)  17.6 %
SCF Gradient evaluation          ...        6.668 sec (=   0.111 min)  12.5 %
Geometry relaxation              ...        0.012 sec (=   0.000 min)   0.0 %
                             ****ORCA TERMINATED NORMALLY****
TOTAL RUN TIME: 0 days 0 hours 0 minutes 57 seconds 605 msec
