
                                 *****************
                                 * O   R   C   A *
                                 *****************

                                            #,                                       
                                            ###                                      
                                            ####                                     
                                            #####                                    
                                            ######                                   
                                           ########,                                 
                                     ,,################,,,,,                         
                               ,,#################################,,                 
                          ,,##########################################,,             
                       ,#########################################, ''#####,          
                    ,#############################################,,   '####,        
                  ,##################################################,,,,####,       
                ,###########''''           ''''###############################       
              ,#####''   ,,,,##########,,,,          '''####'''          '####       
            ,##' ,,,,###########################,,,                        '##       
           ' ,,###''''                  '''############,,,                           
         ,,##''                                '''############,,,,        ,,,,,,###''
      ,#''                                            '''#######################'''  
     '                                                          ''''####''''         
             ,#######,   #######,   ,#######,      ##                                
            ,#'     '#,  ##    ##  ,#'     '#,    #''#        ,####,    ,#,          
            ##       ##  ##   ,#'  ##            #'  '#       #'       ,# #          
            ##       ##  #######   ##           ,######,      #####,      #          
            '#,     ,#'  ##    ##  '#,     ,#' ,#      #,     #,   #      #          
             '#######'   ##     ##  '#######'  #'      '#     '####' #    #          



                #########################################################
                #                        -***-                          #
                #          Department of theory and spectroscopy        #
                #                                                       #
                #                      Frank Neese                      #
                #                                                       #
                #     Directorship, Architecture, Infrastructure        #
                #                    SHARK, DRIVERS                     #
                #        Core code/Algorithms in most modules           #
                #                                                       #
                #        Max Planck Institute fuer Kohlenforschung      #
                #                Kaiser Wilhelm Platz 1                 #
                #                 D-45470 Muelheim/Ruhr                 #
                #                      Germany                          #
                #                                                       #
                #                  All rights reserved                  #
                #                        -***-                          #
                #########################################################


                         Program Version 6.1.0  -  RELEASE   -
                                (GIT: $679e74b$)
                          ($2025-06-10 18:02:51 +0200$)


 With contributions from (in alphabetic order):
[Max-Planck-Institut fuer Kohlenforschung]                               
  Daniel Aravena         : Magnetic Suceptibility                        
  Michael Atanasov       : Ab Initio Ligand Field Theory (pilot matlab implementation)
  Alexander A. Auer      : GIAO ZORA, VPT2 properties, NMR spectrum      
  Ute Becker             : All parallelization in ORCA, NUMFREQ, NUMCALC 
  Giovanni Bistoni       : ED, misc. LED, open-shell LED, HFLD           
  Dmytro Bykov           : pre 5.0 version of the SCF Hessian            
  Marcos Casanova-Páez   : Triplet and SCS-CIS(D). UHF-(DLPNO)-IP/EA/STEOM-CCSD. UHF-CVS-IP/STEOM-CCSD   
  Vijay G. Chilkuri      : MRCI spin determinant printing, contributions to CSF-ICE 
  Pauline Colinet        : FMM embedding                                 
  Dipayan Datta          : RHF DLPNO-CCSD density                        
  Achintya Kumar Dutta   : EOM-CC, STEOM-CC                              
  Nicolas Foglia         : Exact transition moments, OPA infrastructure, MCD improvements    
  Dmitry Ganyushin       : Spin-Orbit,Spin-Spin,Magnetic field MRCI      
  Miquel Garcia-Rates    : C-PCM and meta-GGA Hessian, CCSD/C-PCM, Gaussian charge scheme 
  Tiago L. C. Gouveia    : GS-ROHF, GS-ROCIS                             
  Yang Guo               : DLPNO-NEVPT2, F12-NEVPT2, CIM, IAO-localization        
  Andreas Hansen         : Spin unrestricted coupled pair/coupled cluster methods 
  Ingolf Harden          : AUTO-CI MPn and infrastructure                
  Benjamin Helmich-Paris : MC-RPA, TRAH-(SCF,CASSCF), AVAS, COSX integrals, SCF dyn. polar., MC-PDFT, srDFT 
  Lee Huntington         : MR-EOM, pCC                                   
  Robert Izsak           : Overlap fitted RIJCOSX, COSX-SCS-MP3, EOM     
  Riya Kayal             : Wick's Theorem for AUTO-CI, AUTO-CI UHF-CCSDT 
  Emily Kempfer          : AUTO-CI RHF CISDT and CCSDT, approximate NEVPT4
  Christian Kollmar      : KDIIS, OOCD, Brueckner-CCSD(T), CCSD density, CASPT2, CASPT2-K, improved NEVPT2 
  Axel Koslowski         : Symmetry handling                             
  Simone Kossmann        : meta-GGA functionals, TD-DFT gradient, OOMP2, (MP2 Hessian; deprecated post 5.0) 
  Lucas Lang             : DCDCAS, Hyperfine gauge corrections, ICE-SOC+SSC
  Marvin Lechner         : AUTO-CI (C++ implementation), FIC-MRCC        
  Spencer Leger          : CASSCF response                               
  Dagmar Lenk            : GEPOL surface, SMD, ORCA-2-JSON               
  Dimitrios Liakos       : Extrapolation schemes; Compound Job, Property file
  Dimitrios Manganas     : Further ROCIS development; embedding schemes. LFT, Crystal Embedding 
  Dimitrios Pantazis     : SARC Basis sets                               
  Anastasios Papadopoulos: AUTO-CI, single reference methods and gradients 
  Taras Petrenko         : pre 6.0 DFT Hessian and TD-DFT gradient,  ECA, NRVS 
  Petra Pikulova         : Analytic Raman intensities                    
  Peter Pinski           : DLPNO-MP2, DLPNO-MP2 Gradient                 
  Shashank Vittal Rao    : ES-AILFT, MagRelax                            
  Christoph Reimann      : Effective Core Potentials                     
  Marius Retegan         : Local ZFS, SOC                                
  Christoph Riplinger    : Optimizer, TS searches, QM/MM, DLPNO-CCSD(T), (RO)-DLPNO pert. Triples 
  Michael Roemelt        : Original ROCIS implementation, recursive CI coupling coefficients
  Masaaki Saitow         : Open-shell DLPNO-CCSD energy and density      
  Barbara Sandhoefer     : DKH picture change effects                    
  Yorick L. A. Schmerwitz: GMF and freeze-and-release deltaSCF, NEB S-IDPP initial path                    
  Kantharuban Sivalingam : CASSCF convergence/infrastructure, NEVPT2, NEVPT3, NEVPT4(SD), FIC-MRCI and CEPA variants
  Bernardo de Souza      : ESD, SOC TD-DFT                               
  Georgi L. Stoychev     : AutoAux, RI-MP2 NMR, DLPNO-MP2 response, X2C  
  Van Anh Tran           : RI-MP2 g-tensors                              
  Willem Van den Heuvel  : Paramagnetic NMR                              
  Zikuan Wang            : NOTCH, Electric field optimization            
  Frank Wennmohs         : Technical directorship and infrastructure     
  Hang Xu                : AUTO-CI-Response properties                   
                                                                         
[FACCTs GmbH]                                                            
  Markus Bursch, Nicolas Foglia, Miquel Garcia-Rates, Ingolf Harden, Hagen Neugebauer, Anastasios Papadopoulos, 
  Christoph Riplinger, Bernardo de Souza, Georgi L. Stoychev                                                    
                                                                 
  APM, various basis sets, CI-OPT, improved COSX, DLPNO-Multilevel,           
  DOCKER, DRACO, updates on ESD, Fragmentator, GOAT, IRC, LR-CPCM, L-BFGS, MBIS, meta-GGA TD-DFT gradient, ML-optimized integration grids, 
  MM, NACMEs, nearIR, NEB, NEB-TS, NL-DFT gradient (VV10), 2- and 3-layer-ONIOM, interface openCOSMO-RS, QMMM,   
  Crystal-QMMM, RESP, rigid body optimization, SF, symmetry and pop. for TD-DFT, various functionals, SOLVATOR                                   
                                                                         
[Other institutions]                                                     
  V. Asgeirsson          : NEB                                           
  Christoph Bannwarth    : sTDA-DFT, sTD-DFT, PBEh-3c, B97-3c, D3        
  Giovanni Bistoni       : ETS/NOCV, ADLD/ADEX, COVALED                  
  Martin Brehm           : Molecular dynamics                            
  Ronald Cardenas        : ETS/NOCV                                      
  Martina Colucci        : COVALED                                       
  Sebastian Ehlert       : rSCAN, r2SCAN, r2SCAN-3c, D4, dhf basis sets  
  Marvin Friede          : D4 for Fr, Ra, Ac-Lr                          
  Lars Goerigk           : TD-DFT with DH, B97 family of functionals     
  Stefan Grimme          : VdW corrections, initial TS optimization, DFT functionals, gCP, sTDA/sTD-DF 
  Waldemar Hujo          : DFT-NL                                        
  H. Jonsson             : NEB                                           
  Holger Kruse           : gCP                                           
  Marcel Mueller         : wB97X-3c, vDZP basis set                      
  Hagen Neugebauer       : wr2SCAN, Native XTB                           
  Gianluca Regni         : ADLD/ADEX                                     
  Tobias Risthaus        : pre 6.0 range-separated hybrid DFT and stability analysis
  Lukas Wittmann         : regularized MP2, r2SCAN double-hybrids, wr2SCAN        
                                                                         
We gratefully acknowledge several colleagues who have allowed us to      
interface, adapt or use parts of their codes:                            
  Ed Valeev, F. Pavosevic, A. Kumar             : LibInt (2-el integral package), F12 methods 
  Garnet Chan, S. Sharma, J. Yang, R. Olivares  : DMRG                   
  Ulf Ekstrom                                   : XCFun DFT Library      
  Mihaly Kallay                                 : mrcc  (arbitrary order and MRCC methods)
  Frank Weinhold                                : gennbo (NPA and NBO analysis)           
  Simon Mueller                                 : openCOSMO-RS                            
  Christopher J. Cramer and Donald G. Truhlar   : smd solvation model                     
  S Lehtola, MJT Oliveira, MAL Marques          : LibXC Library                           
  Liviu Ungur et al                             : ANISO software                          


 Your calculation uses the libint2 library for the computation of 2-el integrals
 For citations please refer to: http://libint.valeyev.net

 Your ORCA version has been built with support for libXC version: 7.0.0
 For citations please refer to: https://libxc.gitlab.io

 This ORCA versions uses:
   CBLAS   interface :  Fast vector & matrix operations
   LAPACKE interface :  Fast linear algebra routines
   SCALAPACK package :  Parallel linear algebra routines
   Shared memory     :  Shared parallel matrices
   BLAS/LAPACK       :  OpenBLAS 0.3.29  USE64BITINT DYNAMIC_ARCH NO_AFFINITY Bulldozer SINGLE_THREADED
        Core in use  :  Bulldozer
   Copyright (c) 2011-2014, The OpenBLAS Project


  ***********************************
  * Starting time: Thu Aug 14 16:35:31 2025
  * Host name:     chromium03
  * Process ID:    237590
  * Working dir.:  /local/scratch/mehlhorn/61919
  ***********************************



***************************************
The coordinates will be read from file: start.xyz
***************************************


Your calculation utilizes the atom-pairwise dispersion correction
with the Becke-Johnson damping scheme (D3BJ)


Warning: RI is on but no J-basis has been assigned. Assigning Def2/J (nothing to worry about!)
================================================================================

cite the ECPs for Zr [Def2-ECP] as follows:
Ce-Yb(ecp-28): M. Dolg, H. Stoll, H.Preuss, J. Chem. Phys., 1989, 90, 1730-1734.
Y-Cd(ecp-28), Hf-Hg(ecp-46): D. Andrae,U. Haeussermann, M. Dolg, H. Stoll, H. Preuss, Theor. Chim. Acta, 1990, 77, 123-141.
In-Sb(ecp-28), Tl-Bi(ecp-46): B. Metz, H. Stoll, M. Dolg, J. Chem. Phys., 2000, 113, 2563-2569.
Te-Xe(ecp-28), Po-Rn(ecp-46): K. A. Peterson, D. Figgen, E. Goll, H. Stoll, M. Dolg, J. Chem. Phys., 2003, 119, 11113-11123.
Rb(ecp-28), Cs(ecp-46): T. Leininger, A. Nicklass, W. Kuechle, H. Stoll, M. Dolg, A. Bergner, Chem. Phys. Lett., 1996, 255, 274-280.
Sr(ecp-28), Ba(ecp-46): M. Kaupp, P. V. Schleyer, H. Stoll and H. Preuss, J. Chem. Phys., 1991, 94, 1360-1366.
La(ecp-46): M. Dolg, H. Stoll, A. Savin, H. Preuss, Theor. Chim. Acta, 1989, 75, 173-194.
Lu(ecp-28): X. Cao, M. Dolg, J. Chem. Phys., 2001, 115, 7348-7355.

ECP parameters for Zr [Def2-ECP] have been obtained from:
TURBOMOLE (7.0.2)

----- Orbital basis set information -----
Your calculation utilizes the basis: def2-SV(P)
   F. Weigend and R. Ahlrichs, Phys. Chem. Chem. Phys. 7, 3297 (2005).

----- AuxJ basis set information -----
Your calculation utilizes the auxiliary basis: def2/J
   H-Rn: F. Weigend, Phys. Chem. Chem. Phys. 8, 1057 (2006).
   Fr-Lr: K. Eichkorn, F. Weigend, O. Treutler, R. Ahlrichs; Theor. Chem. Acc. 97, 119 (1997).

================================================================================
                                        WARNINGS
                       Please study these warnings very carefully!
================================================================================


WARNING: Gradients are needed
  ===> : At least TightSCF should be used for SCF convergence

WARNING: Geometry Optimization
  ===> : Switching off AutoStart
         For restart on a previous wavefunction, please use MOREAD

================================================================================
                                       INPUT FILE
================================================================================
NAME = run.inp
|  1> # Geometry optimization for UiO-66-dehydrox SBU
|  2> 
|  3> %pal nprocs 24 end
|  4> 
|  5> ! PBE 	# functional used for the MOF calculations later (non-expensive)
|  6> ! RKS	# closed shell for SBU
|  7> ! D3  # better geometries at low cost
|  8> ! def2-SV(P) # Ahlrichs basis set triple zeta with core potentials and auxilarry basis set for coulomb integrals
|  9> ! Freq 	# Frequency analysis to check the stabiltity of the structures
| 10> 
| 11> ! NoPop # population analysis not necessary	
| 12> 
| 13> ! RI 		# speed up calculation 
| 14> ! DEFGRID2 # dense Grid
| 15> ! NormalSCF # tight SCF criteria as basis for Geom.-Opt.
| 16> ! SloppyOpt # tight convergence criteria for geometry optimizations
| 17> 
| 18> ! SmallPrint
| 19> 
| 20> 
| 21> * xyzFile 0 1 start.xyz # no spin
| 22> 
| 23>                          ****END OF INPUT****
================================================================================

                       *****************************
                       * Geometry Optimization Run *
                       *****************************

Geometry optimization settings:
Update method            Update   .... BFGS
Choice of coordinates    CoordSys .... (2022) Redundant Internals
Initial Hessian          InHess   .... Almloef's Model
Max. no of cycles        MaxIter  .... 180

Convergence Tolerances:
Energy Change            TolE     ....  8.0000e-05 Eh
Max. Gradient            TolMAXG  ....  5.0000e-03 Eh/bohr
RMS Gradient             TolRMSG  ....  1.0000e-03 Eh/bohr
Max. Displacement        TolMAXD  ....  3.0000e-02 bohr
RMS Displacement         TolRMSD  ....  2.0000e-02 bohr
Strict Convergence                .... False

------------------------------------------------------------------------------
                        ORCA OPTIMIZATION COORDINATE SETUP
------------------------------------------------------------------------------

The optimization will be done in redundant internal coordinates (2022)
Making redundant internal coordinates   ...  (2022 redundants) done
Evaluating the initial hessian          ...  (Almloef) done
Evaluating the coordinates              ...  done
Calculating the B-matrix                .... done
Calculating the G-matrix                .... done
The number of degrees of freedom        ....  894

    -----------------------------------------------------------------
                    Redundant Internal Coordinates


    -----------------------------------------------------------------
         Definition                    Initial Value    Approx d2E/dq
    -----------------------------------------------------------------
      1. B(Zr  2,Zr  1)                  3.4597         0.031904   
      2. B(Zr  3,Zr  0)                  3.4597         0.031904   
      3. B(Zr  4,Zr  3)                  3.4590         0.031992   
      4. B(Zr  4,Zr  1)                  3.4585         0.032046   
      5. B(Zr  5,Zr  0)                  3.4585         0.032046   
      6. B(Zr  5,Zr  2)                  3.4590         0.031992   
      7. B(O   6,Zr  0)                  2.2203         0.268155   
      8. B(O   6,Zr  3)                  2.0729         0.460741   
      9. B(O   6,Zr  5)                  2.0564         0.489549   
     10. B(O   7,Zr  4)                  2.0564         0.489549   
     11. B(O   7,Zr  1)                  2.2203         0.268155   
     12. B(O   7,Zr  2)                  2.0729         0.460741   
     13. B(O   8,Zr  5)                  2.0726         0.461292   
     14. B(O   8,Zr  2)                  2.2211         0.267325   
     15. B(O   8,Zr  1)                  2.0570         0.488448   
     16. B(O   9,Zr  4)                  2.0726         0.461292   
     17. B(O   9,Zr  3)                  2.2211         0.267325   
     18. B(O   9,Zr  0)                  2.0570         0.488448   
     19. B(O  10,Zr  3)                  2.0566         0.489142   
     20. B(O  10,Zr  4)                  2.2206         0.267774   
     21. B(O  10,Zr  1)                  2.0728         0.460928   
     22. B(O  11,Zr  5)                  2.2206         0.267773   
     23. B(O  11,Zr  2)                  2.0566         0.489142   
     24. B(O  11,Zr  0)                  2.0728         0.460928   
     25. B(O  12,Zr  0)                  2.2132         0.275156   
     26. B(O  13,Zr  0)                  2.2252         0.263351   
     27. B(O  14,Zr  0)                  2.2258         0.262704   
     28. B(O  15,Zr  0)                  2.2648         0.227653   
     29. B(O  16,Zr  1)                  2.2648         0.227653   
     30. B(O  17,Zr  1)                  2.2258         0.262704   
     31. B(O  18,Zr  1)                  2.2252         0.263350   
     32. B(O  19,Zr  1)                  2.2132         0.275156   
     33. B(O  20,Zr  2)                  2.2252         0.263327   
     34. B(O  21,Zr  2)                  2.2647         0.227749   
     35. B(O  22,Zr  2)                  2.2129         0.275486   
     36. B(O  23,Zr  2)                  2.2252         0.263309   
     37. B(O  24,Zr  3)                  2.2252         0.263309   
     38. B(O  25,Zr  3)                  2.2129         0.275486   
     39. B(O  26,Zr  3)                  2.2647         0.227749   
     40. B(O  27,Zr  3)                  2.2252         0.263327   
     41. B(O  28,Zr  4)                  2.2137         0.274672   
     42. B(O  29,Zr  4)                  2.2254         0.263103   
     43. B(O  30,Zr  4)                  2.2250         0.263565   
     44. B(O  31,Zr  4)                  2.2650         0.227541   
     45. B(O  32,Zr  5)                  2.2650         0.227541   
     46. B(O  33,Zr  5)                  2.2250         0.263565   
     47. B(O  34,Zr  5)                  2.2254         0.263103   
     48. B(O  35,Zr  5)                  2.2137         0.274672   
     49. B(C  36,O  33)                  1.2634         0.890960   
     50. B(C  36,O  12)                  1.2672         0.878560   
     51. B(C  37,O  25)                  1.2672         0.878538   
     52. B(C  37,O  13)                  1.2634         0.891015   
     53. B(C  38,O  21)                  1.2597         0.903179   
     54. B(C  38,O  14)                  1.2735         0.858443   
     55. B(C  39,O  29)                  1.2736         0.858291   
     56. B(C  39,O  15)                  1.2596         0.903476   
     57. B(C  40,O  34)                  1.2736         0.858291   
     58. B(C  40,O  16)                  1.2596         0.903476   
     59. B(C  41,O  26)                  1.2597         0.903179   
     60. B(C  41,O  17)                  1.2735         0.858443   
     61. B(C  42,O  22)                  1.2672         0.878538   
     62. B(C  42,O  18)                  1.2634         0.891015   
     63. B(C  43,O  19)                  1.2672         0.878560   
     64. B(C  43,O  30)                  1.2634         0.890960   
     65. B(C  44,O  35)                  1.2672         0.878532   
     66. B(C  44,O  20)                  1.2635         0.890732   
     67. B(C  45,O  31)                  1.2596         0.903443   
     68. B(C  45,O  23)                  1.2736         0.858235   
     69. B(C  46,O  32)                  1.2596         0.903443   
     70. B(C  46,O  24)                  1.2736         0.858235   
     71. B(C  47,O  28)                  1.2672         0.878532   
     72. B(C  47,O  27)                  1.2635         0.890732   
     73. B(H  48,C  41)                  1.1077         0.337458   
     74. B(H  49,C  42)                  1.1067         0.338687   
     75. B(H  50,C  38)                  1.1077         0.337458   
     76. B(H  51,C  37)                  1.1067         0.338687   
     77. B(H  52,C  43)                  1.1067         0.338693   
     78. B(H  53,C  47)                  1.1067         0.338679   
     79. B(H  54,C  39)                  1.1077         0.337459   
     80. B(H  55,C  45)                  1.1077         0.337454   
     81. B(H  56,C  40)                  1.1077         0.337459   
     82. B(H  57,C  46)                  1.1077         0.337454   
     83. B(H  58,C  36)                  1.1067         0.338693   
     84. B(H  59,C  44)                  1.1067         0.338679   
     85. A(O  13,Zr  0,O  14)          128.7904         0.397575   
     86. A(O  12,Zr  0,O  13)           75.8953         0.400826   
     87. A(O  12,Zr  0,O  15)          121.5535         0.390713   
     88. A(Zr  5,Zr  0,O  11)           37.8149         0.332564   
     89. A(Zr  3,Zr  0,Zr  5)           64.8972         0.237985   
     90. A(Zr  3,Zr  0,O  14)          153.4771         0.303245   
     91. A(Zr  5,Zr  0,O  15)          163.5262         0.296621   
     92. A(O  13,Zr  0,O  15)           78.9362         0.387733   
     93. A(O   6,Zr  0,O  13)           82.1766         0.399012   
     94. A(O   9,Zr  0,O  11)           99.1191         0.492039   
     95. A(Zr  3,Zr  0,O  11)           91.4859         0.332319   
     96. A(O   6,Zr  0,O  15)          141.1553         0.388958   
     97. A(O   9,Zr  0,O  14)          121.2116         0.443881   
     98. A(O  14,Zr  0,O  15)           70.5114         0.387567   
     99. A(Zr  5,Zr  0,O  13)          110.4577         0.303580   
    100. A(O  11,Zr  0,O  12)           84.5049         0.442944   
    101. A(Zr  5,Zr  0,O  14)          110.1414         0.303461   
    102. A(Zr  5,Zr  0,O  12)           74.5968         0.305721   
    103. A(O  11,Zr  0,O  15)          133.8492         0.428083   
    104. A(Zr  5,Zr  0,O   9)           91.4803         0.335782   
    105. A(O   6,Zr  0,O  11)           70.1373         0.440885   
    106. A(O   6,Zr  0,O  14)          144.4093         0.398840   
    107. A(Zr  3,Zr  0,O  13)           74.1185         0.303365   
    108. A(Zr  3,Zr  0,O  15)          106.7421         0.296412   
    109. A(O   9,Zr  0,O  15)           75.0922         0.432563   
    110. A(O  12,Zr  0,O  14)           86.2134         0.400653   
    111. A(Zr  3,Zr  0,O   6)           34.8845         0.304244   
    112. A(O   9,Zr  0,O  12)          152.4111         0.447620   
    113. A(O  11,Zr  0,O  13)          147.1913         0.439449   
    114. A(Zr  5,Zr  0,O   6)           34.4634         0.304460   
    115. A(Zr  3,Zr  0,O   9)           37.6605         0.335533   
    116. A(O  11,Zr  0,O  14)           74.6434         0.439254   
    117. A(O   6,Zr  0,O   9)           70.3908         0.445535   
    118. A(O   6,Zr  0,O  12)           85.5230         0.402105   
    119. A(O   9,Zr  0,O  13)           87.3536         0.444079   
    120. A(Zr  3,Zr  0,O  12)          115.3692         0.305503   
    121. A(Zr  4,Zr  1,O  19)           74.5968         0.305721   
    122. A(O   8,Zr  1,O  16)           75.0922         0.432563   
    123. A(O   7,Zr  1,O  18)           82.1766         0.399012   
    124. A(O  17,Zr  1,O  19)           86.2134         0.400653   
    125. A(O  16,Zr  1,O  17)           70.5114         0.387567   
    126. A(Zr  4,Zr  1,O  16)          163.5262         0.296621   
    127. A(Zr  4,Zr  1,O  10)           37.8149         0.332564   
    128. A(O   7,Zr  1,O  10)           70.1373         0.440885   
    129. A(O   8,Zr  1,O  10)           99.1191         0.492039   
    130. A(Zr  2,Zr  1,O   8)           37.6605         0.335533   
    131. A(Zr  4,Zr  1,O  18)          110.4577         0.303580   
    132. A(O  10,Zr  1,O  16)          133.8492         0.428083   
    133. A(O   7,Zr  1,O  17)          144.4093         0.398840   
    134. A(Zr  2,Zr  1,O  16)          106.7421         0.296412   
    135. A(O  10,Zr  1,O  17)           74.6434         0.439254   
    136. A(Zr  4,Zr  1,O  17)          110.1414         0.303461   
    137. A(O   8,Zr  1,O  18)           87.3536         0.444079   
    138. A(Zr  2,Zr  1,O  10)           91.4859         0.332319   
    139. A(O  17,Zr  1,O  18)          128.7904         0.397575   
    140. A(Zr  2,Zr  1,O  19)          115.3692         0.305503   
    141. A(O  10,Zr  1,O  18)          147.1913         0.439449   
    142. A(O  16,Zr  1,O  18)           78.9362         0.387733   
    143. A(O   7,Zr  1,O  19)           85.5230         0.402105   
    144. A(Zr  4,Zr  1,O   7)           34.4634         0.304460   
    145. A(O   8,Zr  1,O  17)          121.2116         0.443881   
    146. A(Zr  2,Zr  1,O  18)           74.1184         0.303365   
    147. A(Zr  4,Zr  1,O   8)           91.4803         0.335782   
    148. A(Zr  2,Zr  1,Zr  4)           64.8972         0.237985   
    149. A(O  18,Zr  1,O  19)           75.8953         0.400826   
    150. A(Zr  2,Zr  1,O   7)           34.8845         0.304243   
    151. A(O   7,Zr  1,O  16)          141.1553         0.388958   
    152. A(Zr  2,Zr  1,O  17)          153.4771         0.303245   
    153. A(O  10,Zr  1,O  19)           84.5049         0.442944   
    154. A(O   7,Zr  1,O   8)           70.3908         0.445534   
    155. A(O   8,Zr  1,O  19)          152.4111         0.447621   
    156. A(O  16,Zr  1,O  19)          121.5535         0.390713   
    157. A(O   8,Zr  2,O  20)           82.1183         0.398789   
    158. A(Zr  1,Zr  2,O  20)          110.4362         0.303360   
    159. A(Zr  5,Zr  2,O  11)           37.6617         0.335766   
    160. A(Zr  5,Zr  2,O   8)           34.8984         0.304226   
    161. A(O   7,Zr  2,O  23)           74.6580         0.439404   
    162. A(O  21,Zr  2,O  23)           70.5509         0.387751   
    163. A(O  22,Zr  2,O  23)           86.1859         0.400899   
    164. A(Zr  1,Zr  2,O   8)           34.4611         0.304093   
    165. A(O  11,Zr  2,O  23)          121.1858         0.444180   
    166. A(O   8,Zr  2,O  22)           85.4765         0.401970   
    167. A(O  11,Zr  2,O  22)          152.4511         0.447833   
    168. A(Zr  1,Zr  2,Zr  5)           64.8564         0.237927   
    169. A(Zr  1,Zr  2,O  21)          163.4815         0.296432   
    170. A(O   7,Zr  2,O   8)           70.0963         0.440606   
    171. A(O  20,Zr  2,O  23)          128.8611         0.397729   
    172. A(O   8,Zr  2,O  23)          144.3698         0.398784   
    173. A(Zr  5,Zr  2,O   7)           91.3597         0.332448   
    174. A(O   8,Zr  2,O  21)          141.1677         0.388776   
    175. A(Zr  5,Zr  2,O  23)          153.4183         0.303490   
    176. A(Zr  1,Zr  2,O  23)          110.0969         0.303357   
    177. A(O  21,Zr  2,O  22)          121.6029         0.390824   
    178. A(Zr  5,Zr  2,O  20)           74.1387         0.303494   
    179. A(Zr  5,Zr  2,O  22)          115.3920         0.305696   
    180. A(O   7,Zr  2,O  21)          133.8303         0.428084   
    181. A(Zr  1,Zr  2,O  22)           74.5884         0.305562   
    182. A(Zr  1,Zr  2,O  11)           91.4300         0.335613   
    183. A(O   7,Zr  2,O  11)           98.9741         0.492131   
    184. A(Zr  5,Zr  2,O  21)          106.7516         0.296561   
    185. A(O   8,Zr  2,O  11)           70.4203         0.445399   
    186. A(O  20,Zr  2,O  21)           78.9816         0.387756   
    187. A(O  11,Zr  2,O  20)           87.4001         0.444186   
    188. A(O   7,Zr  2,O  20)          147.1594         0.439409   
    189. A(Zr  1,Zr  2,O   7)           37.7759         0.332296   
    190. A(O  20,Zr  2,O  22)           75.9359         0.400904   
    191. A(O  11,Zr  2,O  21)           75.0992         0.432706   
    192. A(O   7,Zr  2,O  22)           84.5328         0.443008   
    193. A(O   6,Zr  3,O  10)           98.9741         0.492131   
    194. A(O   9,Zr  3,O  10)           70.4203         0.445399   
    195. A(Zr  4,Zr  3,O  10)           37.6617         0.335766   
    196. A(O  24,Zr  3,O  25)           86.1859         0.400899   
    197. A(O  26,Zr  3,O  27)           78.9816         0.387756   
    198. A(O   9,Zr  3,O  25)           85.4765         0.401970   
    199. A(Zr  0,Zr  3,O  27)          110.4362         0.303360   
    200. A(O  24,Zr  3,O  26)           70.5509         0.387751   
    201. A(O  25,Zr  3,O  27)           75.9359         0.400904   
    202. A(O  24,Zr  3,O  27)          128.8611         0.397729   
    203. A(O   9,Zr  3,O  27)           82.1183         0.398789   
    204. A(O   6,Zr  3,O  27)          147.1594         0.439409   
    205. A(Zr  4,Zr  3,O  27)           74.1388         0.303494   
    206. A(O  10,Zr  3,O  27)           87.4001         0.444186   
    207. A(O   9,Zr  3,O  26)          141.1677         0.388776   
    208. A(O  25,Zr  3,O  26)          121.6029         0.390824   
    209. A(O  10,Zr  3,O  26)           75.0992         0.432706   
    210. A(Zr  4,Zr  3,O   6)           91.3597         0.332448   
    211. A(O   6,Zr  3,O  26)          133.8303         0.428084   
    212. A(Zr  4,Zr  3,O  26)          106.7516         0.296561   
    213. A(Zr  0,Zr  3,O  26)          163.4815         0.296432   
    214. A(O   6,Zr  3,O   9)           70.0963         0.440606   
    215. A(O  10,Zr  3,O  25)          152.4512         0.447833   
    216. A(O   6,Zr  3,O  25)           84.5328         0.443008   
    217. A(Zr  4,Zr  3,O   9)           34.8984         0.304227   
    218. A(Zr  4,Zr  3,O  25)          115.3920         0.305696   
    219. A(Zr  0,Zr  3,O  25)           74.5884         0.305562   
    220. A(O  10,Zr  3,O  24)          121.1858         0.444180   
    221. A(O   9,Zr  3,O  24)          144.3698         0.398784   
    222. A(Zr  0,Zr  3,O   9)           34.4611         0.304093   
    223. A(O   6,Zr  3,O  24)           74.6580         0.439404   
    224. A(Zr  4,Zr  3,O  24)          153.4183         0.303490   
    225. A(Zr  0,Zr  3,O  24)          110.0969         0.303357   
    226. A(Zr  0,Zr  3,O  10)           91.4300         0.335613   
    227. A(Zr  0,Zr  3,O   6)           37.7759         0.332296   
    228. A(Zr  0,Zr  3,Zr  4)           64.8564         0.237927   
    229. A(Zr  1,Zr  4,Zr  3)           64.8679         0.238077   
    230. A(O   9,Zr  4,O  10)           70.1509         0.440835   
    231. A(O   7,Zr  4,O  10)           70.4159         0.445601   
    232. A(Zr  3,Zr  4,O  10)           34.4629         0.304308   
    233. A(O  10,Zr  4,O  28)           85.4927         0.401879   
    234. A(O   9,Zr  4,O  29)           74.6650         0.439437   
    235. A(O  28,Zr  4,O  30)           75.9510         0.400759   
    236. A(O  30,Zr  4,O  31)           78.9104         0.387755   
    237. A(O  29,Zr  4,O  31)           70.5206         0.387637   
    238. A(O   7,Zr  4,O  31)           75.1056         0.432700   
    239. A(O  28,Zr  4,O  31)          121.5795         0.390559   
    240. A(O  10,Zr  4,O  31)          141.1239         0.388828   
    241. A(O   9,Zr  4,O  31)          133.8786         0.428106   
    242. A(Zr  3,Zr  4,O  31)          163.5090         0.296519   
    243. A(Zr  1,Zr  4,O  31)          106.7032         0.296598   
    244. A(O  29,Zr  4,O  30)          128.8295         0.397738   
    245. A(O  10,Zr  4,O  30)           82.1215         0.398970   
    246. A(O   9,Zr  4,O  30)          147.1850         0.439576   
    247. A(O   7,Zr  4,O  30)           87.4491         0.444325   
    248. A(Zr  3,Zr  4,O  30)          110.4421         0.303538   
    249. A(Zr  1,Zr  4,O  30)           74.1399         0.303620   
    250. A(O  28,Zr  4,O  29)           86.2379         0.400636   
    251. A(O  10,Zr  4,O  29)          144.4442         0.398847   
    252. A(O   7,Zr  4,O  29)          121.0905         0.444184   
    253. A(Zr  3,Zr  4,O  29)          110.1738         0.303452   
    254. A(Zr  1,Zr  4,O  29)          153.3872         0.303535   
    255. A(O   9,Zr  4,O  28)           84.4887         0.442866   
    256. A(O   7,Zr  4,O  28)          152.4924         0.447660   
    257. A(Zr  3,Zr  4,O  28)           74.5967         0.305551   
    258. A(O   7,Zr  4,O   9)           98.9869         0.492316   
    259. A(Zr  1,Zr  4,O  28)          115.4218         0.305634   
    260. A(Zr  3,Zr  4,O   9)           37.8153         0.332514   
    261. A(Zr  1,Zr  4,O   9)           91.4338         0.332607   
    262. A(Zr  3,Zr  4,O   7)           91.4025         0.335813   
    263. A(Zr  1,Zr  4,O   7)           37.6595         0.335907   
    264. A(Zr  1,Zr  4,O  10)           34.9104         0.304391   
    265. A(O  11,Zr  5,O  35)           85.4927         0.401879   
    266. A(O  34,Zr  5,O  35)           86.2379         0.400636   
    267. A(O  33,Zr  5,O  35)           75.9510         0.400759   
    268. A(O  32,Zr  5,O  35)          121.5795         0.390559   
    269. A(O   8,Zr  5,O  35)           84.4887         0.442866   
    270. A(O   6,Zr  5,O  35)          152.4924         0.447660   
    271. A(Zr  2,Zr  5,O  35)           74.5967         0.305551   
    272. A(O  33,Zr  5,O  34)          128.8295         0.397738   
    273. A(O  32,Zr  5,O  34)           70.5206         0.387637   
    274. A(O  11,Zr  5,O  34)          144.4442         0.398847   
    275. A(Zr  0,Zr  5,O  35)          115.4218         0.305634   
    276. A(O  32,Zr  5,O  33)           78.9104         0.387755   
    277. A(O   6,Zr  5,O  34)          121.0905         0.444184   
    278. A(Zr  2,Zr  5,O  34)          110.1738         0.303452   
    279. A(Zr  0,Zr  5,O  34)          153.3872         0.303535   
    280. A(O  11,Zr  5,O  33)           82.1215         0.398970   
    281. A(O   8,Zr  5,O  33)          147.1851         0.439576   
    282. A(O   6,Zr  5,O  33)           87.4491         0.444325   
    283. A(Zr  0,Zr  5,O  33)           74.1399         0.303620   
    284. A(O  11,Zr  5,O  32)          141.1239         0.388828   
    285. A(O   8,Zr  5,O  32)          133.8786         0.428106   
    286. A(O   6,Zr  5,O  32)           75.1056         0.432700   
    287. A(Zr  2,Zr  5,O  32)          163.5090         0.296518   
    288. A(Zr  0,Zr  5,O  32)          106.7032         0.296598   
    289. A(Zr  2,Zr  5,O   6)           91.4025         0.335813   
    290. A(Zr  0,Zr  5,O   6)           37.6595         0.335907   
    291. A(Zr  0,Zr  5,Zr  2)           64.8679         0.238077   
    292. A(O   8,Zr  5,O  34)           74.6650         0.439437   
    293. A(O   8,Zr  5,O  11)           70.1509         0.440835   
    294. A(O   6,Zr  5,O  11)           70.4159         0.445601   
    295. A(Zr  2,Zr  5,O  11)           34.4629         0.304308   
    296. A(Zr  0,Zr  5,O  11)           34.9105         0.304391   
    297. A(O   6,Zr  5,O   8)           98.9869         0.492316   
    298. A(Zr  2,Zr  5,O  33)          110.4421         0.303538   
    299. A(Zr  2,Zr  5,O   8)           37.8153         0.332514   
    300. A(Zr  0,Zr  5,O   8)           91.4338         0.332607   
    301. A(Zr  3,O   6,Zr  5)          128.0341         0.492207   
    302. A(Zr  0,O   6,Zr  5)          107.8771         0.445716   
    303. A(Zr  0,O   6,Zr  3)          107.3396         0.440853   
    304. A(Zr  2,O   7,Zr  4)          128.0341         0.492207   
    305. A(Zr  1,O   7,Zr  4)          107.8770         0.445716   
    306. A(Zr  1,O   7,Zr  2)          107.3396         0.440853   
    307. A(Zr  1,O   8,Zr  2)          107.8784         0.445285   
    308. A(Zr  2,O   8,Zr  5)          107.2862         0.440702   
    309. A(Zr  1,O   8,Zr  5)          127.9021         0.492111   
    310. A(Zr  3,O   9,Zr  4)          107.2862         0.440702   
    311. A(Zr  0,O   9,Zr  4)          127.9021         0.492111   
    312. A(Zr  0,O   9,Zr  3)          107.8784         0.445285   
    313. A(Zr  3,O  10,Zr  4)          107.8754         0.445534   
    314. A(Zr  1,O  10,Zr  4)          107.2746         0.440772   
    315. A(Zr  1,O  10,Zr  3)          127.9079         0.492168   
    316. A(Zr  2,O  11,Zr  5)          107.8754         0.445534   
    317. A(Zr  0,O  11,Zr  5)          107.2746         0.440772   
    318. A(Zr  0,O  11,Zr  2)          127.9079         0.492168   
    319. A(Zr  0,O  12,C  36)          131.9818         0.442783   
    320. A(Zr  0,O  13,C  37)          132.2498         0.440407   
    321. A(Zr  0,O  14,C  38)          136.2477         0.437264   
    322. A(Zr  0,O  15,C  39)          128.1243         0.430081   
    323. A(Zr  1,O  16,C  40)          128.1243         0.430081   
    324. A(Zr  1,O  17,C  41)          136.2477         0.437263   
    325. A(Zr  1,O  18,C  42)          132.2498         0.440407   
    326. A(Zr  1,O  19,C  43)          131.9818         0.442783   
    327. A(Zr  2,O  20,C  44)          132.2399         0.440375   
    328. A(Zr  2,O  21,C  38)          128.1341         0.430088   
    329. A(Zr  2,O  22,C  42)          132.0027         0.442877   
    330. A(Zr  2,O  23,C  45)          136.2796         0.437426   
    331. A(Zr  3,O  24,C  46)          136.2796         0.437426   
    332. A(Zr  3,O  25,C  37)          132.0027         0.442877   
    333. A(Zr  3,O  26,C  41)          128.1341         0.430088   
    334. A(Zr  3,O  27,C  47)          132.2399         0.440375   
    335. A(Zr  4,O  28,C  47)          131.9716         0.442639   
    336. A(Zr  4,O  29,C  39)          136.2303         0.437369   
    337. A(Zr  4,O  30,C  43)          132.2377         0.440467   
    338. A(Zr  4,O  31,C  45)          128.1456         0.430040   
    339. A(Zr  5,O  32,C  46)          128.1456         0.430040   
    340. A(Zr  5,O  33,C  36)          132.2377         0.440467   
    341. A(Zr  5,O  34,C  40)          136.2303         0.437369   
    342. A(Zr  5,O  35,C  44)          131.9716         0.442640   
    343. A(O  12,C  36,O  33)          126.9151         0.487684   
    344. A(O  33,C  36,H  58)          116.6397         0.369209   
    345. A(O  12,C  36,H  58)          116.4452         0.368321   
    346. A(O  13,C  37,O  25)          126.9202         0.487687   
    347. A(O  25,C  37,H  51)          116.4405         0.368319   
    348. A(O  13,C  37,H  51)          116.6392         0.369212   
    349. A(O  14,C  38,O  21)          127.4027         0.486824   
    350. A(O  21,C  38,H  50)          116.6187         0.369842   
    351. A(O  14,C  38,H  50)          115.9700         0.366631   
    352. A(O  15,C  39,O  29)          127.3949         0.486838   
    353. A(O  29,C  39,H  54)          115.9735         0.366620   
    354. A(O  15,C  39,H  54)          116.6231         0.369863   
    355. A(O  16,C  40,O  34)          127.3949         0.486838   
    356. A(O  34,C  40,H  56)          115.9735         0.366620   
    357. A(O  16,C  40,H  56)          116.6231         0.369863   
    358. A(O  17,C  41,O  26)          127.4027         0.486824   
    359. A(O  26,C  41,H  48)          116.6187         0.369842   
    360. A(O  17,C  41,H  48)          115.9700         0.366631   
    361. A(O  18,C  42,O  22)          126.9202         0.487687   
    362. A(O  22,C  42,H  49)          116.4405         0.368319   
    363. A(O  18,C  42,H  49)          116.6392         0.369212   
    364. A(O  30,C  43,H  52)          116.6397         0.369209   
    365. A(O  19,C  43,H  52)          116.4452         0.368321   
    366. A(O  19,C  43,O  30)          126.9151         0.487684   
    367. A(O  35,C  44,H  59)          116.4439         0.368317   
    368. A(O  20,C  44,H  59)          116.6298         0.369190   
    369. A(O  20,C  44,O  35)          126.9263         0.487658   
    370. A(O  31,C  45,H  55)          116.6188         0.369860   
    371. A(O  23,C  45,H  55)          115.9651         0.366615   
    372. A(O  23,C  45,O  31)          127.4075         0.486828   
    373. A(O  32,C  46,H  57)          116.6188         0.369860   
    374. A(O  24,C  46,H  57)          115.9651         0.366615   
    375. A(O  24,C  46,O  32)          127.4075         0.486828   
    376. A(O  28,C  47,H  53)          116.4439         0.368317   
    377. A(O  27,C  47,H  53)          116.6298         0.369190   
    378. A(O  27,C  47,O  28)          126.9263         0.487658   
    379. D(O   7,Zr  2,Zr  1,O  10)    -50.8405         0.010000   
    380. D(Zr  5,Zr  2,Zr  1,O  19)    164.2042         0.010000   
    381. D(O   8,Zr  2,Zr  1,Zr  4)    130.8225         0.010000   
    382. D(O   7,Zr  2,Zr  1,O  19)     33.7821         0.010000   
    383. D(O   7,Zr  2,Zr  1,Zr  4)    -23.0724         0.010000   
    384. D(O   7,Zr  2,Zr  1,O  16)    172.1494         0.010000   
    385. D(Zr  5,Zr  2,Zr  1,O   8)    -23.4728         0.010000   
    386. D(Zr  5,Zr  2,Zr  1,Zr  4)    107.3497         0.010000   
    387. D(O   7,Zr  2,Zr  1,O  17)   -108.0706         0.010000   
    388. D(Zr  5,Zr  2,Zr  1,O  17)     22.3516         0.010000   
    389. D(O   7,Zr  2,Zr  1,O   8)   -153.8949         0.010000   
    390. D(Zr  5,Zr  2,Zr  1,O   7)    130.4221         0.010000   
    391. D(Zr  5,Zr  2,Zr  1,O  10)     79.5816         0.010000   
    392. D(O   7,Zr  2,Zr  1,O  18)     99.2430         0.010000   
    393. D(Zr  5,Zr  2,Zr  1,O  16)    -57.4285         0.010000   
    394. D(Zr  5,Zr  2,Zr  1,O  18)   -130.3349         0.010000   
    395. D(O   6,Zr  3,Zr  0,O  11)     50.8405         0.010000   
    396. D(O   6,Zr  3,Zr  0,O  13)    -99.2430         0.010000   
    397. D(O   6,Zr  3,Zr  0,Zr  5)     23.0724         0.010000   
    398. D(O   6,Zr  3,Zr  0,O  12)    -33.7821         0.010000   
    399. D(O   6,Zr  3,Zr  0,O   9)    153.8949         0.010000   
    400. D(O   9,Zr  3,Zr  0,Zr  5)   -130.8225         0.010000   
    401. D(Zr  4,Zr  3,Zr  0,O   6)   -130.4221         0.010000   
    402. D(Zr  4,Zr  3,Zr  0,O  11)    -79.5816         0.010000   
    403. D(Zr  4,Zr  3,Zr  0,Zr  5)   -107.3497         0.010000   
    404. D(Zr  4,Zr  3,Zr  0,O   9)     23.4728         0.010000   
    405. D(Zr  4,Zr  3,Zr  0,O  15)     57.4285         0.010000   
    406. D(Zr  4,Zr  3,Zr  0,O  13)    130.3349         0.010000   
    407. D(O   6,Zr  3,Zr  0,O  15)   -172.1494         0.010000   
    408. D(O   6,Zr  3,Zr  0,O  14)    108.0706         0.010000   
    409. D(Zr  4,Zr  3,Zr  0,O  12)   -164.2042         0.010000   
    410. D(Zr  4,Zr  3,Zr  0,O  14)    -22.3515         0.010000   
    411. D(O   7,Zr  4,Zr  3,O   6)     51.8975         0.010000   
    412. D(Zr  1,Zr  4,Zr  3,Zr  0)    107.3058         0.010000   
    413. D(O   7,Zr  4,Zr  3,O   9)    102.9035         0.010000   
    414. D(O   7,Zr  4,Zr  1,O  17)    175.0500         0.010000   
    415. D(Zr  3,Zr  4,Zr  1,O  18)   -167.5453         0.010000   
    416. D(Zr  1,Zr  4,Zr  3,O  27)   -130.3952         0.010000   
    417. D(Zr  1,Zr  4,Zr  3,O  10)    -23.4807         0.010000   
    418. D(O   7,Zr  4,Zr  3,O  24)     -5.1458         0.010000   
    419. D(Zr  1,Zr  4,Zr  3,O  25)    164.0930         0.010000   
    420. D(O   7,Zr  4,Zr  3,O  26)    -85.0362         0.010000   
    421. D(Zr  1,Zr  4,Zr  3,O  24)     22.4566         0.010000   
    422. D(O   9,Zr  4,Zr  1,Zr  2)    -79.5710         0.010000   
    423. D(O   7,Zr  4,Zr  3,O  10)    -51.0831         0.010000   
    424. D(Zr  3,Zr  4,Zr  1,O  16)    -44.9149         0.010000   
    425. D(O   7,Zr  4,Zr  1,O  16)     85.7854         0.010000   
    426. D(O   7,Zr  4,Zr  1,O  19)   -104.9711         0.010000   
    427. D(Zr  1,Zr  4,Zr  3,O  26)    -57.4338         0.010000   
    428. D(Zr  3,Zr  4,Zr  1,O  10)     23.2016         0.010000   
    429. D(O   7,Zr  4,Zr  1,O  10)    153.9019         0.010000   
    430. D(Zr  1,Zr  4,Zr  3,O   6)     79.4999         0.010000   
    431. D(O   7,Zr  4,Zr  3,O  25)    136.4906         0.010000   
    432. D(O   7,Zr  4,Zr  3,Zr  0)     79.7034         0.010000   
    433. D(O   7,Zr  4,Zr  1,O  18)    -36.8450         0.010000   
    434. D(Zr  3,Zr  4,Zr  1,Zr  2)   -107.3670         0.010000   
    435. D(Zr  3,Zr  4,Zr  1,O  17)     44.3497         0.010000   
    436. D(Zr  3,Zr  4,Zr  1,O  19)    124.3286         0.010000   
    437. D(O   7,Zr  4,Zr  1,O   8)     50.8823         0.010000   
    438. D(O   7,Zr  4,Zr  1,Zr  2)     23.3333         0.010000   
    439. D(Zr  3,Zr  4,Zr  1,O   8)    -79.8180         0.010000   
    440. D(Zr  1,Zr  4,Zr  3,O   9)    130.5059         0.010000   
    441. D(O   7,Zr  4,Zr  3,O  27)   -157.9976         0.010000   
    442. D(Zr  3,Zr  4,Zr  1,O   7)   -130.7003         0.010000   
    443. D(O   6,Zr  5,Zr  2,O  23)      5.1457         0.010000   
    444. D(O   6,Zr  5,Zr  2,O  22)   -136.4906         0.010000   
    445. D(O   6,Zr  5,Zr  2,O  20)    157.9976         0.010000   
    446. D(Zr  0,Zr  5,Zr  2,O  23)    -22.4566         0.010000   
    447. D(Zr  0,Zr  5,Zr  2,O  20)    130.3952         0.010000   
    448. D(Zr  0,Zr  5,Zr  2,O  22)   -164.0930         0.010000   
    449. D(O   6,Zr  5,Zr  2,Zr  1)    -79.7034         0.010000   
    450. D(O   6,Zr  5,Zr  2,O   7)    -51.8975         0.010000   
    451. D(O   6,Zr  5,Zr  2,O   8)   -102.9035         0.010000   
    452. D(Zr  0,Zr  5,Zr  2,O   7)    -79.4999         0.010000   
    453. D(O   8,Zr  5,Zr  0,Zr  3)     79.5710         0.010000   
    454. D(O   6,Zr  5,Zr  2,O  11)     51.0831         0.010000   
    455. D(O   6,Zr  5,Zr  0,O  12)    104.9711         0.010000   
    456. D(O   6,Zr  5,Zr  0,O  14)   -175.0500         0.010000   
    457. D(Zr  2,Zr  5,Zr  0,O   9)     79.8180         0.010000   
    458. D(Zr  2,Zr  5,Zr  0,O  15)     44.9149         0.010000   
    459. D(Zr  0,Zr  5,Zr  2,O   8)   -130.5059         0.010000   
    460. D(Zr  2,Zr  5,Zr  0,O  14)    -44.3497         0.010000   
    461. D(Zr  0,Zr  5,Zr  2,O  11)     23.4807         0.010000   
    462. D(Zr  0,Zr  5,Zr  2,O  21)     57.4338         0.010000   
    463. D(O   6,Zr  5,Zr  0,O   9)    -50.8823         0.010000   
    464. D(O   6,Zr  5,Zr  2,O  21)     85.0361         0.010000   
    465. D(O   6,Zr  5,Zr  0,Zr  3)    -23.3333         0.010000   
    466. D(Zr  2,Zr  5,Zr  0,O  12)   -124.3286         0.010000   
    467. D(Zr  0,Zr  5,Zr  2,Zr  1)   -107.3057         0.010000   
    468. D(Zr  2,Zr  5,Zr  0,Zr  3)    107.3670         0.010000   
    469. D(O   6,Zr  5,Zr  0,O  11)   -153.9019         0.010000   
    470. D(Zr  2,Zr  5,Zr  0,O  11)    -23.2016         0.010000   
    471. D(Zr  2,Zr  5,Zr  0,O   6)    130.7003         0.010000   
    472. D(O   6,Zr  5,Zr  0,O  13)     36.8450         0.010000   
    473. D(Zr  2,Zr  5,Zr  0,O  13)    167.5453         0.010000   
    474. D(O   6,Zr  5,Zr  0,O  15)    -85.7854         0.010000   
    475. D(Zr  3,O   6,Zr  5,O   8)     49.9415         0.010000   
    476. D(Zr  3,O   6,Zr  5,Zr  2)     87.1749         0.010000   
    477. D(Zr  3,O   6,Zr  5,Zr  0)    130.5338         0.010000   
    478. D(Zr  0,O   6,Zr  5,O  32)    146.2444         0.010000   
    479. D(Zr  0,O   6,Zr  3,O   9)     15.3551         0.010000   
    480. D(Zr  5,O   6,Zr  3,O   9)   -115.3775         0.010000   
    481. D(Zr  0,O   6,Zr  5,Zr  2)    -43.3588         0.010000   
    482. D(Zr  0,O   6,Zr  5,O   8)    -80.5922         0.010000   
    483. D(Zr  5,O   6,Zr  3,Zr  0)   -130.7326         0.010000   
    484. D(Zr  0,O   6,Zr  3,O  26)    158.5668         0.010000   
    485. D(Zr  0,O   6,Zr  5,O  35)     14.7544         0.010000   
    486. D(Zr  0,O   6,Zr  3,O  25)    -71.8015         0.010000   
    487. D(Zr  0,O   6,Zr  3,O  24)   -159.3351         0.010000   
    488. D(Zr  0,O   6,Zr  3,O  27)    -18.5594         0.010000   
    489. D(Zr  0,O   6,Zr  5,O  34)   -158.0421         0.010000   
    490. D(Zr  5,O   6,Zr  0,Zr  3)    141.1615         0.010000   
    491. D(Zr  5,O   6,Zr  3,Zr  4)    -87.1541         0.010000   
    492. D(Zr  0,O   6,Zr  5,O  11)    -15.4987         0.010000   
    493. D(Zr  3,O   6,Zr  0,O  14)   -133.1603         0.010000   
    494. D(Zr  3,O   6,Zr  0,O  15)     12.0370         0.010000   
    495. D(Zr  3,O   6,Zr  0,O  13)     73.3875         0.010000   
    496. D(Zr  3,O   6,Zr  0,O  12)    149.7382         0.010000   
    497. D(Zr  5,O   6,Zr  0,O  11)     16.6649         0.010000   
    498. D(Zr  3,O   6,Zr  0,O  11)   -124.4966         0.010000   
    499. D(Zr  5,O   6,Zr  0,O   9)    124.5790         0.010000   
    500. D(Zr  3,O   6,Zr  0,Zr  5)   -141.1615         0.010000   
    501. D(Zr  0,O   6,Zr  5,O  33)     67.0442         0.010000   
    502. D(Zr  3,O   6,Zr  0,O   9)    -16.5825         0.010000   
    503. D(Zr  0,O   6,Zr  3,O  10)     80.6466         0.010000   
    504. D(Zr  0,O   6,Zr  3,Zr  4)     43.5784         0.010000   
    505. D(Zr  2,O   7,Zr  1,Zr  4)    141.1615         0.010000   
    506. D(Zr  2,O   7,Zr  4,O   9)    -49.9415         0.010000   
    507. D(Zr  2,O   7,Zr  4,Zr  1)   -130.5338         0.010000   
    508. D(Zr  1,O   7,Zr  4,O  31)   -146.2443         0.010000   
    509. D(Zr  1,O   7,Zr  4,O  30)    -67.0442         0.010000   
    510. D(Zr  1,O   7,Zr  4,O  28)    -14.7544         0.010000   
    511. D(Zr  1,O   7,Zr  4,O  10)     15.4987         0.010000   
    512. D(Zr  1,O   7,Zr  4,O   9)     80.5922         0.010000   
    513. D(Zr  1,O   7,Zr  4,Zr  3)     43.3588         0.010000   
    514. D(Zr  4,O   7,Zr  2,O   8)    115.3775         0.010000   
    515. D(Zr  4,O   7,Zr  2,Zr  5)     87.1541         0.010000   
    516. D(Zr  4,O   7,Zr  2,Zr  1)    130.7326         0.010000   
    517. D(Zr  1,O   7,Zr  2,O  23)    159.3351         0.010000   
    518. D(Zr  1,O   7,Zr  2,O  22)     71.8015         0.010000   
    519. D(Zr  1,O   7,Zr  2,O  21)   -158.5668         0.010000   
    520. D(Zr  1,O   7,Zr  2,O  20)     18.5594         0.010000   
    521. D(Zr  1,O   7,Zr  2,O  11)    -80.6465         0.010000   
    522. D(Zr  1,O   7,Zr  2,O   8)    -15.3551         0.010000   
    523. D(Zr  4,O   7,Zr  1,O  10)    -16.6649         0.010000   
    524. D(Zr  4,O   7,Zr  1,Zr  2)   -141.1615         0.010000   
    525. D(Zr  2,O   7,Zr  1,O  19)   -149.7382         0.010000   
    526. D(Zr  2,O   7,Zr  1,O  18)    -73.3875         0.010000   
    527. D(Zr  4,O   7,Zr  1,O   8)   -124.5790         0.010000   
    528. D(Zr  1,O   7,Zr  4,O  29)    158.0421         0.010000   
    529. D(Zr  2,O   7,Zr  1,O  17)    133.1603         0.010000   
    530. D(Zr  2,O   7,Zr  1,O  16)    -12.0370         0.010000   
    531. D(Zr  2,O   7,Zr  1,O  10)    124.4966         0.010000   
    532. D(Zr  2,O   7,Zr  4,Zr  3)    -87.1749         0.010000   
    533. D(Zr  2,O   7,Zr  1,O   8)     16.5825         0.010000   
    534. D(Zr  1,O   7,Zr  2,Zr  5)    -43.5784         0.010000   
    535. D(Zr  2,O   8,Zr  5,O   6)     80.5981         0.010000   
    536. D(Zr  2,O   8,Zr  5,Zr  0)     43.5174         0.010000   
    537. D(Zr  1,O   8,Zr  5,O  35)    157.5907         0.010000   
    538. D(Zr  1,O   8,Zr  5,O  33)   -149.2545         0.010000   
    539. D(Zr  1,O   8,Zr  5,O  32)     28.0141         0.010000   
    540. D(Zr  1,O   8,Zr  5,O  11)   -115.2240         0.010000   
    541. D(Zr  1,O   8,Zr  5,O   6)    -49.9250         0.010000   
    542. D(Zr  1,O   8,Zr  5,Zr  2)   -130.5231         0.010000   
    543. D(Zr  1,O   8,Zr  5,Zr  0)    -87.0057         0.010000   
    544. D(Zr  5,O   8,Zr  2,O  11)    -16.5241         0.010000   
    545. D(Zr  5,O   8,Zr  2,Zr  1)   -140.9326         0.010000   
    546. D(Zr  1,O   8,Zr  2,O  23)      7.8465         0.010000   
    547. D(Zr  1,O   8,Zr  2,O  22)    -69.1550         0.010000   
    548. D(Zr  1,O   8,Zr  2,O  21)    153.1100         0.010000   
    549. D(Zr  1,O   8,Zr  2,O  20)   -145.5551         0.010000   
    550. D(Zr  1,O   8,Zr  2,O  11)    124.4085         0.010000   
    551. D(Zr  1,O   8,Zr  2,O   7)     16.6586         0.010000   
    552. D(Zr  5,O   8,Zr  2,O   7)   -124.2740         0.010000   
    553. D(Zr  1,O   8,Zr  2,Zr  5)    140.9326         0.010000   
    554. D(Zr  5,O   8,Zr  1,O   7)    114.8079         0.010000   
    555. D(Zr  5,O   8,Zr  1,Zr  4)     87.0284         0.010000   
    556. D(Zr  5,O   8,Zr  1,Zr  2)    130.3027         0.010000   
    557. D(Zr  2,O   8,Zr  1,O  19)     15.1077         0.010000   
    558. D(Zr  2,O   8,Zr  1,O  18)     67.1403         0.010000   
    559. D(Zr  2,O   8,Zr  1,O  17)   -158.0082         0.010000   
    560. D(Zr  1,O   8,Zr  5,O  34)     69.9917         0.010000   
    561. D(Zr  2,O   8,Zr  1,O  16)    146.3922         0.010000   
    562. D(Zr  2,O   8,Zr  1,O  10)    -80.5030         0.010000   
    563. D(Zr  2,O   8,Zr  1,O   7)    -15.4948         0.010000   
    564. D(Zr  2,O   8,Zr  1,Zr  4)    -43.2743         0.010000   
    565. D(Zr  3,O   9,Zr  4,O   7)    -80.5981         0.010000   
    566. D(Zr  0,O   9,Zr  4,O  31)    -28.0141         0.010000   
    567. D(Zr  0,O   9,Zr  4,O  30)    149.2545         0.010000   
    568. D(Zr  0,O   9,Zr  4,O  29)    -69.9917         0.010000   
    569. D(Zr  0,O   9,Zr  4,O  28)   -157.5907         0.010000   
    570. D(Zr  0,O   9,Zr  4,O  10)    115.2240         0.010000   
    571. D(Zr  0,O   9,Zr  4,O   7)     49.9250         0.010000   
    572. D(Zr  0,O   9,Zr  4,Zr  3)    130.5231         0.010000   
    573. D(Zr  4,O   9,Zr  3,O  10)     16.5241         0.010000   
    574. D(Zr  4,O   9,Zr  3,O   6)    124.2740         0.010000   
    575. D(Zr  4,O   9,Zr  3,Zr  0)    140.9326         0.010000   
    576. D(Zr  0,O   9,Zr  3,O  27)    145.5551         0.010000   
    577. D(Zr  0,O   9,Zr  3,O  26)   -153.1100         0.010000   
    578. D(Zr  0,O   9,Zr  3,O  25)     69.1550         0.010000   
    579. D(Zr  0,O   9,Zr  3,O  24)     -7.8465         0.010000   
    580. D(Zr  0,O   9,Zr  3,O  10)   -124.4085         0.010000   
    581. D(Zr  0,O   9,Zr  3,O   6)    -16.6586         0.010000   
    582. D(Zr  0,O   9,Zr  3,Zr  4)   -140.9326         0.010000   
    583. D(Zr  4,O   9,Zr  0,O   6)   -114.8079         0.010000   
    584. D(Zr  0,O   9,Zr  4,Zr  1)     87.0057         0.010000   
    585. D(Zr  4,O   9,Zr  0,Zr  5)    -87.0284         0.010000   
    586. D(Zr  4,O   9,Zr  0,Zr  3)   -130.3027         0.010000   
    587. D(Zr  3,O   9,Zr  0,O  15)   -146.3922         0.010000   
    588. D(Zr  3,O   9,Zr  0,O  14)    158.0082         0.010000   
    589. D(Zr  3,O   9,Zr  0,O  13)    -67.1403         0.010000   
    590. D(Zr  3,O   9,Zr  0,O  12)    -15.1077         0.010000   
    591. D(Zr  3,O   9,Zr  0,O  11)     80.5030         0.010000   
    592. D(Zr  3,O   9,Zr  4,Zr  1)    -43.5174         0.010000   
    593. D(Zr  3,O   9,Zr  0,O   6)     15.4948         0.010000   
    594. D(Zr  3,O   9,Zr  0,Zr  5)     43.2743         0.010000   
    595. D(Zr  3,O  10,Zr  4,O   9)     16.6119         0.010000   
    596. D(Zr  3,O  10,Zr  4,O   7)    124.3522         0.010000   
    597. D(Zr  3,O  10,Zr  4,Zr  1)    140.9274         0.010000   
    598. D(Zr  1,O  10,Zr  4,O  31)     12.2651         0.010000   
    599. D(Zr  1,O  10,Zr  4,O  30)     73.5131         0.010000   
    600. D(Zr  1,O  10,Zr  4,O  29)   -132.9869         0.010000   
    601. D(Zr  1,O  10,Zr  4,O  28)    149.9264         0.010000   
    602. D(Zr  1,O  10,Zr  4,O   7)    -16.5752         0.010000   
    603. D(Zr  1,O  10,Zr  4,Zr  3)   -140.9274         0.010000   
    604. D(Zr  4,O  10,Zr  3,O   6)    -80.4858         0.010000   
    605. D(Zr  1,O  10,Zr  3,O  27)   -162.6032         0.010000   
    606. D(Zr  1,O  10,Zr  3,O  26)    -83.3165         0.010000   
    607. D(Zr  1,O  10,Zr  3,O  25)    145.2040         0.010000   
    608. D(Zr  1,O  10,Zr  3,O  24)    -27.6369         0.010000   
    609. D(Zr  1,O  10,Zr  3,O   9)    114.8401         0.010000   
    610. D(Zr  1,O  10,Zr  3,O   6)     49.7998         0.010000   
    611. D(Zr  1,O  10,Zr  3,Zr  4)    130.2856         0.010000   
    612. D(Zr  4,O  10,Zr  3,Zr  0)    -43.2844         0.010000   
    613. D(Zr  1,O  10,Zr  3,Zr  0)     87.0012         0.010000   
    614. D(Zr  4,O  10,Zr  1,O   7)     15.3480         0.010000   
    615. D(Zr  4,O  10,Zr  1,Zr  2)     43.4807         0.010000   
    616. D(Zr  1,O  10,Zr  4,O   9)   -124.3155         0.010000   
    617. D(Zr  3,O  10,Zr  1,O  19)    157.6259         0.010000   
    618. D(Zr  3,O  10,Zr  1,O  18)   -149.3199         0.010000   
    619. D(Zr  3,O  10,Zr  1,O  17)     70.0550         0.010000   
    620. D(Zr  3,O  10,Zr  1,O  16)     28.0902         0.010000   
    621. D(Zr  3,O  10,Zr  1,O   8)    -49.9571         0.010000   
    622. D(Zr  3,O  10,Zr  1,O   7)   -115.1612         0.010000   
    623. D(Zr  3,O  10,Zr  1,Zr  4)   -130.5092         0.010000   
    624. D(Zr  3,O  10,Zr  1,Zr  2)    -87.0285         0.010000   
    625. D(Zr  2,O  11,Zr  0,O  15)    -28.0901         0.010000   
    626. D(Zr  2,O  11,Zr  0,O  14)    -70.0550         0.010000   
    627. D(Zr  2,O  11,Zr  0,O  13)    149.3199         0.010000   
    628. D(Zr  2,O  11,Zr  0,O  12)   -157.6259         0.010000   
    629. D(Zr  2,O  11,Zr  0,O   9)     49.9571         0.010000   
    630. D(Zr  2,O  11,Zr  0,O   6)    115.1612         0.010000   
    631. D(Zr  2,O  11,Zr  0,Zr  5)    130.5092         0.010000   
    632. D(Zr  5,O  11,Zr  0,Zr  3)    -43.4807         0.010000   
    633. D(Zr  2,O  11,Zr  0,Zr  3)     87.0285         0.010000   
    634. D(Zr  2,O  11,Zr  5,O   8)    -16.6119         0.010000   
    635. D(Zr  2,O  11,Zr  5,O   6)   -124.3522         0.010000   
    636. D(Zr  2,O  11,Zr  5,Zr  0)   -140.9274         0.010000   
    637. D(Zr  0,O  11,Zr  5,O  35)   -149.9264         0.010000   
    638. D(Zr  0,O  11,Zr  5,O  34)    132.9869         0.010000   
    639. D(Zr  0,O  11,Zr  5,O  32)    -12.2650         0.010000   
    640. D(Zr  0,O  11,Zr  5,O   8)    124.3155         0.010000   
    641. D(Zr  0,O  11,Zr  5,O   6)     16.5752         0.010000   
    642. D(Zr  0,O  11,Zr  5,Zr  2)    140.9274         0.010000   
    643. D(Zr  5,O  11,Zr  2,O   7)     80.4858         0.010000   
    644. D(Zr  5,O  11,Zr  2,Zr  1)     43.2844         0.010000   
    645. D(Zr  0,O  11,Zr  2,O  23)     27.6369         0.010000   
    646. D(Zr  0,O  11,Zr  2,O  22)   -145.2040         0.010000   
    647. D(Zr  0,O  11,Zr  2,O  21)     83.3165         0.010000   
    648. D(Zr  0,O  11,Zr  5,O  33)    -73.5131         0.010000   
    649. D(Zr  0,O  11,Zr  2,O  20)    162.6032         0.010000   
    650. D(Zr  0,O  11,Zr  2,O   8)   -114.8401         0.010000   
    651. D(Zr  0,O  11,Zr  2,O   7)    -49.7998         0.010000   
    652. D(Zr  0,O  11,Zr  2,Zr  5)   -130.2856         0.010000   
    653. D(Zr  0,O  11,Zr  2,Zr  1)    -87.0012         0.010000   
    654. D(Zr  5,O  11,Zr  0,O   6)    -15.3480         0.010000   
    655. D(C  36,O  12,Zr  0,O  15)   -172.7013         0.010000   
    656. D(C  36,O  12,Zr  0,O  14)   -108.3596         0.010000   
    657. D(C  36,O  12,Zr  0,O  13)    120.0354         0.010000   
    658. D(C  36,O  12,Zr  0,O  11)    -33.4453         0.010000   
    659. D(C  36,O  12,Zr  0,O   9)     65.7435         0.010000   
    660. D(C  36,O  12,Zr  0,O   6)     36.9914         0.010000   
    661. D(C  36,O  12,Zr  0,Zr  5)      3.7378         0.010000   
    662. D(C  36,O  12,Zr  0,Zr  3)     55.5928         0.010000   
    663. D(C  37,O  13,Zr  0,O  15)    109.1104         0.010000   
    664. D(C  37,O  13,Zr  0,O  14)    162.7195         0.010000   
    665. D(C  37,O  13,Zr  0,O  12)   -124.0976         0.010000   
    666. D(C  37,O  13,Zr  0,O  11)    -68.9868         0.010000   
    667. D(C  37,O  13,Zr  0,O   9)     33.7879         0.010000   
    668. D(C  37,O  13,Zr  0,O   6)    -36.7753         0.010000   
    669. D(C  37,O  13,Zr  0,Zr  5)    -56.8057         0.010000   
    670. D(C  37,O  13,Zr  0,Zr  3)     -2.0389         0.010000   
    671. D(C  38,O  14,Zr  0,O  15)   -151.8610         0.010000   
    672. D(C  38,O  14,Zr  0,O  13)    151.2052         0.010000   
    673. D(C  38,O  14,Zr  0,O  12)     82.7071         0.010000   
    674. D(C  38,O  14,Zr  0,O  11)     -2.6270         0.010000   
    675. D(C  38,O  14,Zr  0,O   9)    -94.1038         0.010000   
    676. D(C  38,O  14,Zr  0,O   6)      5.8215         0.010000   
    677. D(C  38,O  14,Zr  0,Zr  5)     10.6341         0.010000   
    678. D(C  38,O  14,Zr  0,Zr  3)    -63.2827         0.010000   
    679. D(C  39,O  15,Zr  0,O  14)     97.1694         0.010000   
    680. D(C  39,O  15,Zr  0,O  13)   -124.5570         0.010000   
    681. D(C  39,O  15,Zr  0,O  12)    169.7400         0.010000   
    682. D(C  39,O  15,Zr  0,O  11)     54.0134         0.010000   
    683. D(C  39,O  15,Zr  0,O   9)    -34.3638         0.010000   
    684. D(C  39,O  15,Zr  0,O   6)    -62.1988         0.010000   
    685. D(C  39,O  15,Zr  0,Zr  5)      1.9297         0.010000   
    686. D(C  39,O  15,Zr  0,Zr  3)    -55.0440         0.010000   
    687. D(C  40,O  16,Zr  1,O  19)   -169.7400         0.010000   
    688. D(C  40,O  16,Zr  1,O  18)    124.5570         0.010000   
    689. D(C  40,O  16,Zr  1,O  17)    -97.1695         0.010000   
    690. D(C  40,O  16,Zr  1,O  10)    -54.0135         0.010000   
    691. D(C  40,O  16,Zr  1,O   8)     34.3638         0.010000   
    692. D(C  40,O  16,Zr  1,O   7)     62.1988         0.010000   
    693. D(C  40,O  16,Zr  1,Zr  4)     -1.9298         0.010000   
    694. D(C  40,O  16,Zr  1,Zr  2)     55.0440         0.010000   
    695. D(C  41,O  17,Zr  1,O  19)    -82.7071         0.010000   
    696. D(C  41,O  17,Zr  1,O  18)   -151.2052         0.010000   
    697. D(C  41,O  17,Zr  1,O  16)    151.8610         0.010000   
    698. D(C  41,O  17,Zr  1,O  10)      2.6270         0.010000   
    699. D(C  41,O  17,Zr  1,O   8)     94.1037         0.010000   
    700. D(C  41,O  17,Zr  1,O   7)     -5.8215         0.010000   
    701. D(C  41,O  17,Zr  1,Zr  4)    -10.6341         0.010000   
    702. D(C  41,O  17,Zr  1,Zr  2)     63.2826         0.010000   
    703. D(C  42,O  18,Zr  1,O  19)    124.0977         0.010000   
    704. D(C  42,O  18,Zr  1,O  17)   -162.7195         0.010000   
    705. D(C  42,O  18,Zr  1,O  16)   -109.1104         0.010000   
    706. D(C  42,O  18,Zr  1,O  10)     68.9868         0.010000   
    707. D(C  42,O  18,Zr  1,O   8)    -33.7879         0.010000   
    708. D(C  42,O  18,Zr  1,O   7)     36.7753         0.010000   
    709. D(C  42,O  18,Zr  1,Zr  4)     56.8057         0.010000   
    710. D(C  42,O  18,Zr  1,Zr  2)      2.0390         0.010000   
    711. D(C  43,O  19,Zr  1,O  18)   -120.0354         0.010000   
    712. D(C  43,O  19,Zr  1,O  17)    108.3596         0.010000   
    713. D(C  43,O  19,Zr  1,O  16)    172.7013         0.010000   
    714. D(C  43,O  19,Zr  1,O  10)     33.4453         0.010000   
    715. D(C  43,O  19,Zr  1,O   8)    -65.7435         0.010000   
    716. D(C  43,O  19,Zr  1,O   7)    -36.9914         0.010000   
    717. D(C  43,O  19,Zr  1,Zr  4)     -3.7379         0.010000   
    718. D(C  43,O  19,Zr  1,Zr  2)    -55.5929         0.010000   
    719. D(C  44,O  20,Zr  2,O  23)    162.7662         0.010000   
    720. D(C  44,O  20,Zr  2,O  22)   -124.0875         0.010000   
    721. D(C  44,O  20,Zr  2,O  21)    109.1037         0.010000   
    722. D(C  44,O  20,Zr  2,O  11)     33.7827         0.010000   
    723. D(C  44,O  20,Zr  2,O   8)    -36.8043         0.010000   
    724. D(C  44,O  20,Zr  2,O   7)    -68.7847         0.010000   
    725. D(C  44,O  20,Zr  2,Zr  5)     -2.0323         0.010000   
    726. D(C  44,O  20,Zr  2,Zr  1)    -56.7754         0.010000   
    727. D(C  38,O  21,Zr  2,O  23)     97.1608         0.010000   
    728. D(C  38,O  21,Zr  2,O  22)    169.6976         0.010000   
    729. D(C  38,O  21,Zr  2,O  20)   -124.5375         0.010000   
    730. D(C  38,O  21,Zr  2,O  11)    -34.3088         0.010000   
    731. D(C  38,O  21,Zr  2,O   8)    -62.2278         0.010000   
    732. D(C  38,O  21,Zr  2,O   7)     53.8752         0.010000   
    733. D(C  38,O  21,Zr  2,Zr  5)    -54.9875         0.010000   
    734. D(C  38,O  21,Zr  2,Zr  1)      1.9430         0.010000   
    735. D(C  42,O  22,Zr  2,O  23)   -108.4484         0.010000   
    736. D(C  42,O  22,Zr  2,O  21)   -172.8009         0.010000   
    737. D(C  42,O  22,Zr  2,O  20)    119.8723         0.010000   
    738. D(C  42,O  22,Zr  2,O  11)     65.4177         0.010000   
    739. D(C  42,O  22,Zr  2,O   8)     36.8791         0.010000   
    740. D(C  42,O  22,Zr  2,O   7)    -33.5184         0.010000   
    741. D(C  42,O  22,Zr  2,Zr  5)     55.3904         0.010000   
    742. D(C  42,O  22,Zr  2,Zr  1)      3.6126         0.010000   
    743. D(C  45,O  23,Zr  2,O  22)     82.6099         0.010000   
    744. D(C  45,O  23,Zr  2,O  21)   -151.9032         0.010000   
    745. D(C  45,O  23,Zr  2,O  20)    151.1104         0.010000   
    746. D(C  45,O  23,Zr  2,O  11)    -94.0784         0.010000   
    747. D(C  45,O  23,Zr  2,O   8)      5.8304         0.010000   
    748. D(C  45,O  23,Zr  2,O   7)     -2.7598         0.010000   
    749. D(C  45,O  23,Zr  2,Zr  5)    -63.2002         0.010000   
    750. D(C  45,O  23,Zr  2,Zr  1)     10.5488         0.010000   
    751. D(C  46,O  24,Zr  3,O  27)   -151.1104         0.010000   
    752. D(C  46,O  24,Zr  3,O  26)    151.9033         0.010000   
    753. D(C  46,O  24,Zr  3,O  25)    -82.6099         0.010000   
    754. D(C  46,O  24,Zr  3,O  10)     94.0784         0.010000   
    755. D(C  46,O  24,Zr  3,O   9)     -5.8303         0.010000   
    756. D(C  46,O  24,Zr  3,O   6)      2.7598         0.010000   
    757. D(C  46,O  24,Zr  3,Zr  4)     63.2003         0.010000   
    758. D(C  46,O  24,Zr  3,Zr  0)    -10.5487         0.010000   
    759. D(C  37,O  25,Zr  3,O  27)   -119.8723         0.010000   
    760. D(C  37,O  25,Zr  3,O  26)    172.8009         0.010000   
    761. D(C  37,O  25,Zr  3,O  24)    108.4484         0.010000   
    762. D(C  37,O  25,Zr  3,O  10)    -65.4176         0.010000   
    763. D(C  37,O  25,Zr  3,O   9)    -36.8791         0.010000   
    764. D(C  37,O  25,Zr  3,O   6)     33.5184         0.010000   
    765. D(C  37,O  25,Zr  3,Zr  4)    -55.3903         0.010000   
    766. D(C  37,O  25,Zr  3,Zr  0)     -3.6126         0.010000   
    767. D(C  41,O  26,Zr  3,O  27)    124.5375         0.010000   
    768. D(C  41,O  26,Zr  3,O  25)   -169.6976         0.010000   
    769. D(C  41,O  26,Zr  3,O  24)    -97.1608         0.010000   
    770. D(C  41,O  26,Zr  3,O  10)     34.3089         0.010000   
    771. D(C  41,O  26,Zr  3,O   9)     62.2279         0.010000   
    772. D(C  41,O  26,Zr  3,O   6)    -53.8752         0.010000   
    773. D(C  41,O  26,Zr  3,Zr  4)     54.9875         0.010000   
    774. D(C  41,O  26,Zr  3,Zr  0)     -1.9429         0.010000   
    775. D(C  47,O  27,Zr  3,O  26)   -109.1036         0.010000   
    776. D(C  47,O  27,Zr  3,O  25)    124.0875         0.010000   
    777. D(C  47,O  27,Zr  3,O  24)   -162.7662         0.010000   
    778. D(C  47,O  27,Zr  3,O  10)    -33.7826         0.010000   
    779. D(C  47,O  27,Zr  3,O   9)     36.8043         0.010000   
    780. D(C  47,O  27,Zr  3,O   6)     68.7847         0.010000   
    781. D(C  47,O  27,Zr  3,Zr  4)      2.0323         0.010000   
    782. D(C  47,O  27,Zr  3,Zr  0)     56.7754         0.010000   
    783. D(C  47,O  28,Zr  4,O  31)   -172.7627         0.010000   
    784. D(C  47,O  28,Zr  4,O  30)    119.9782         0.010000   
    785. D(C  47,O  28,Zr  4,O  29)   -108.4018         0.010000   
    786. D(C  47,O  28,Zr  4,O  10)     36.9864         0.010000   
    787. D(C  47,O  28,Zr  4,O   9)    -33.4670         0.010000   
    788. D(C  47,O  28,Zr  4,O   7)     65.4204         0.010000   
    789. D(C  47,O  28,Zr  4,Zr  3)      3.7219         0.010000   
    790. D(C  47,O  28,Zr  4,Zr  1)     55.5000         0.010000   
    791. D(C  39,O  29,Zr  4,O  31)   -151.9882         0.010000   
    792. D(C  39,O  29,Zr  4,O  30)    151.1452         0.010000   
    793. D(C  39,O  29,Zr  4,O  28)     82.5659         0.010000   
    794. D(C  39,O  29,Zr  4,O  10)      5.7119         0.010000   
    795. D(C  39,O  29,Zr  4,O   9)     -2.7438         0.010000   
    796. D(C  39,O  29,Zr  4,O   7)    -94.1068         0.010000   
    797. D(C  39,O  29,Zr  4,Zr  3)     10.4891         0.010000   
    798. D(C  39,O  29,Zr  4,Zr  1)    -63.4434         0.010000   
    799. D(C  43,O  30,Zr  4,O  31)    109.0069         0.010000   
    800. D(C  43,O  30,Zr  4,O  29)    162.5679         0.010000   
    801. D(C  43,O  30,Zr  4,O  28)   -124.1843         0.010000   
    802. D(C  43,O  30,Zr  4,O  10)    -36.8870         0.010000   
    803. D(C  43,O  30,Zr  4,O   9)    -68.9872         0.010000   
    804. D(C  43,O  30,Zr  4,O   7)     33.6891         0.010000   
    805. D(C  43,O  30,Zr  4,Zr  3)    -56.8576         0.010000   
    806. D(C  43,O  30,Zr  4,Zr  1)     -2.1031         0.010000   
    807. D(C  45,O  31,Zr  4,O  30)   -124.6251         0.010000   
    808. D(C  45,O  31,Zr  4,O  29)     97.0388         0.010000   
    809. D(C  45,O  31,Zr  4,O  28)    169.6336         0.010000   
    810. D(C  45,O  31,Zr  4,O  10)    -62.3786         0.010000   
    811. D(C  45,O  31,Zr  4,O   9)     53.8669         0.010000   
    812. D(C  45,O  31,Zr  4,O   7)    -34.3271         0.010000   
    813. D(C  45,O  31,Zr  4,Zr  3)      1.6534         0.010000   
    814. D(C  45,O  31,Zr  4,Zr  1)    -55.0863         0.010000   
    815. D(C  46,O  32,Zr  5,O  35)   -169.6335         0.010000   
    816. D(C  46,O  32,Zr  5,O  34)    -97.0388         0.010000   
    817. D(C  46,O  32,Zr  5,O  33)    124.6251         0.010000   
    818. D(C  46,O  32,Zr  5,O  11)     62.3786         0.010000   
    819. D(C  46,O  32,Zr  5,O   8)    -53.8669         0.010000   
    820. D(C  46,O  32,Zr  5,O   6)     34.3271         0.010000   
    821. D(C  46,O  32,Zr  5,Zr  2)     -1.6534         0.010000   
    822. D(C  46,O  32,Zr  5,Zr  0)     55.0863         0.010000   
    823. D(C  36,O  33,Zr  5,O  35)    124.1843         0.010000   
    824. D(C  36,O  33,Zr  5,O  34)   -162.5679         0.010000   
    825. D(C  36,O  33,Zr  5,O  32)   -109.0069         0.010000   
    826. D(C  36,O  33,Zr  5,O  11)     36.8870         0.010000   
    827. D(C  36,O  33,Zr  5,O   8)     68.9872         0.010000   
    828. D(C  36,O  33,Zr  5,O   6)    -33.6891         0.010000   
    829. D(C  36,O  33,Zr  5,Zr  2)     56.8576         0.010000   
    830. D(C  36,O  33,Zr  5,Zr  0)      2.1031         0.010000   
    831. D(C  40,O  34,Zr  5,O  35)    -82.5659         0.010000   
    832. D(C  40,O  34,Zr  5,O  33)   -151.1453         0.010000   
    833. D(C  40,O  34,Zr  5,O  32)    151.9882         0.010000   
    834. D(C  40,O  34,Zr  5,O  11)     -5.7119         0.010000   
    835. D(C  40,O  34,Zr  5,O   8)      2.7438         0.010000   
    836. D(C  40,O  34,Zr  5,O   6)     94.1067         0.010000   
    837. D(C  40,O  34,Zr  5,Zr  2)    -10.4892         0.010000   
    838. D(C  40,O  34,Zr  5,Zr  0)     63.4433         0.010000   
    839. D(C  44,O  35,Zr  5,O  34)    108.4018         0.010000   
    840. D(C  44,O  35,Zr  5,O  33)   -119.9781         0.010000   
    841. D(C  44,O  35,Zr  5,O  32)    172.7627         0.010000   
    842. D(C  44,O  35,Zr  5,O  11)    -36.9864         0.010000   
    843. D(C  44,O  35,Zr  5,O   8)     33.4670         0.010000   
    844. D(C  44,O  35,Zr  5,O   6)    -65.4204         0.010000   
    845. D(C  44,O  35,Zr  5,Zr  2)     -3.7218         0.010000   
    846. D(C  44,O  35,Zr  5,Zr  0)    -55.5000         0.010000   
    847. D(H  58,C  36,O  33,Zr  5)    179.7426         0.062887   
    848. D(O  12,C  36,O  33,Zr  5)     -0.2494         0.062887   
    849. D(H  58,C  36,O  12,Zr  0)    176.2359         0.060917   
    850. D(O  33,C  36,O  12,Zr  0)     -3.7721         0.060917   
    851. D(H  51,C  37,O  25,Zr  3)   -176.3610         0.060914   
    852. D(O  13,C  37,O  25,Zr  3)      3.6414         0.060914   
    853. D(H  51,C  37,O  13,Zr  0)   -179.7464         0.062896   
    854. D(O  25,C  37,O  13,Zr  0)      0.2512         0.062896   
    855. D(H  50,C  38,O  21,Zr  2)    172.5311         0.064865   
    856. D(O  14,C  38,O  21,Zr  2)     -8.5852         0.064865   
    857. D(H  50,C  38,O  14,Zr  0)   -144.9087         0.057804   
    858. D(O  21,C  38,O  14,Zr  0)     36.2014         0.057804   
    859. D(H  54,C  39,O  29,Zr  4)   -144.7875         0.057781   
    860. D(O  15,C  39,O  29,Zr  4)     36.3222         0.057781   
    861. D(H  54,C  39,O  15,Zr  0)    172.5390         0.064914   
    862. D(O  29,C  39,O  15,Zr  0)     -8.5769         0.064914   
    863. D(H  56,C  40,O  34,Zr  5)    144.7875         0.057781   
    864. D(O  16,C  40,O  34,Zr  5)    -36.3221         0.057781   
    865. D(H  56,C  40,O  16,Zr  1)   -172.5389         0.064914   
    866. D(O  34,C  40,O  16,Zr  1)      8.5770         0.064914   
    867. D(H  48,C  41,O  26,Zr  3)   -172.5311         0.064865   
    868. D(O  17,C  41,O  26,Zr  3)      8.5852         0.064865   
    869. D(H  48,C  41,O  17,Zr  1)    144.9086         0.057804   
    870. D(O  26,C  41,O  17,Zr  1)    -36.2014         0.057804   
    871. D(H  49,C  42,O  22,Zr  2)    176.3610         0.060914   
    872. D(O  18,C  42,O  22,Zr  2)     -3.6414         0.060914   
    873. D(H  49,C  42,O  18,Zr  1)    179.7464         0.062896   
    874. D(O  22,C  42,O  18,Zr  1)     -0.2512         0.062896   
    875. D(H  52,C  43,O  30,Zr  4)   -179.7426         0.062887   
    876. D(O  19,C  43,O  30,Zr  4)      0.2494         0.062887   
    877. D(H  52,C  43,O  19,Zr  1)   -176.2359         0.060917   
    878. D(O  30,C  43,O  19,Zr  1)      3.7721         0.060917   
    879. D(H  59,C  44,O  35,Zr  5)   -176.2109         0.060913   
    880. D(O  20,C  44,O  35,Zr  5)      3.8020         0.060913   
    881. D(H  59,C  44,O  20,Zr  2)   -179.8276         0.062850   
    882. D(O  35,C  44,O  20,Zr  2)      0.1595         0.062850   
    883. D(H  55,C  45,O  31,Zr  4)    172.6361         0.064909   
    884. D(O  23,C  45,O  31,Zr  4)     -8.4779         0.064909   
    885. D(H  55,C  45,O  23,Zr  2)   -144.9039         0.057773   
    886. D(O  31,C  45,O  23,Zr  2)     36.2038         0.057773   
    887. D(O  24,C  46,O  32,Zr  5)      8.4779         0.064909   
    888. D(H  57,C  46,O  24,Zr  3)    144.9038         0.057773   
    889. D(O  32,C  46,O  24,Zr  3)    -36.2039         0.057773   
    890. D(H  57,C  46,O  32,Zr  5)   -172.6361         0.064909   
    891. D(H  53,C  47,O  28,Zr  4)    176.2108         0.060913   
    892. D(O  27,C  47,O  28,Zr  4)     -3.8020         0.060913   
    893. D(H  53,C  47,O  27,Zr  3)    179.8276         0.062850   
    894. D(O  28,C  47,O  27,Zr  3)     -0.1595         0.062850   
    -----------------------------------------------------------------

Number of atoms                         .... 60
Number of degrees of freedom            .... 894


         *************************************************************
         *                GEOMETRY OPTIMIZATION CYCLE   1            *
         *************************************************************
---------------------------------
CARTESIAN COORDINATES (ANGSTROEM)
---------------------------------
  Zr    -0.173596    2.058785    1.469921
  Zr     0.173596   -2.058785   -1.469921
  Zr     1.726886   -1.127536    1.477942
  Zr    -1.726886    1.127536   -1.477942
  Zr     1.730081    1.028837   -1.543420
  Zr    -1.730081   -1.028837    1.543420
  O     -1.747317    0.780102    0.565545
  O      1.747317   -0.780102   -0.565545
  O     -0.135724   -1.914093    0.558551
  O      0.135724    1.914093   -0.558551
  O     -0.141999   -0.077916   -1.992478
  O      0.142000    0.077916    1.992478
  O     -1.478386    2.100602    3.257151
  O     -1.649811    3.663548    1.026161
  O      1.533719    2.090619    2.897659
  O      1.201118    3.786530    0.965454
  O     -1.201118   -3.786530   -0.965454
  O     -1.533719   -2.090619   -2.897659
  O      1.649810   -3.663548   -1.026161
  O      1.478386   -2.100602   -3.257151
  O      1.111398   -2.473727    3.139401
  O      2.447574    0.046228    3.275662
[...]
156:   1563.53   0.000000    0.00  0.000000  (-0.000000  0.000000  0.000000)
157:   1573.88   0.000994    5.02  0.000197  ( 0.011659  0.006425  0.004455)
158:   1583.75   0.003102   15.68  0.000611  (-0.011126  0.003601  0.021781)
159:   1583.84   0.003083   15.58  0.000608  (-0.008950  0.021746 -0.007385)
160:   1590.39   0.000000    0.00  0.000000  ( 0.000000 -0.000000 -0.000000)
161:   1596.54   0.000000    0.00  0.000000  ( 0.000000  0.000000 -0.000000)
162:   1596.86   0.000000    0.00  0.000000  (-0.000000  0.000000  0.000000)
163:   1650.82   0.334896  1692.43  0.063307  (-0.149461  0.134252  0.151476)
164:   1651.02   0.335638  1696.18  0.063440  (-0.022728  0.176104 -0.178636)
165:   1656.43   0.275574  1392.64  0.051917  (-0.181835 -0.107936 -0.084871)
166:   1656.86   0.000000    0.00  0.000000  ( 0.000006  0.000005  0.000003)
167:   1657.18   0.000000    0.00  0.000000  (-0.000003 -0.000002 -0.000002)
168:   2949.27   0.000000    0.00  0.000000  ( 0.000104 -0.000181  0.000016)
169:   2949.30   0.021635  109.33  0.002289  ( 0.025957 -0.040169  0.001373)
170:   2949.44   0.000000    0.00  0.000000  (-0.000086 -0.000030  0.000129)
171:   2949.46   0.022466  113.53  0.002377  (-0.022914 -0.013147  0.040976)
172:   2950.50   0.077810  393.22  0.008230  ( 0.070673  0.043693  0.036412)
173:   2951.27   0.000000    0.00  0.000000  (-0.000007 -0.000006 -0.000002)
174:   2964.22   0.000769    3.88  0.000081  (-0.007909 -0.000343  0.004271)
175:   2964.43   0.000000    0.00  0.000000  ( 0.000005 -0.000014  0.000006)
176:   2964.55   0.000000    0.00  0.000000  (-0.000001 -0.000003  0.000003)
177:   2965.08   0.065566  331.34  0.006901  (-0.025807  0.069780 -0.036950)
178:   2965.20   0.065084  328.91  0.006850  (-0.041248  0.020926  0.068631)
179:   2966.56   0.000000    0.00  0.000000  ( 0.000003 -0.000003 -0.000004)

* The epsilon (eps) is given for a Dirac delta lineshape.
** The dipole moment derivative (T) already includes vibrational overlap.

The first frequency considered to be a vibration is 6
The total number of vibrations considered is 174


--------------------------
THERMOCHEMISTRY AT 298.15K
--------------------------

Temperature         ...   298.15 K
Pressure            ...     1.00 atm
Total Mass          ...  1183.52 AMU
Quasi RRHO          ...     True
Cut-Off Frequency   ...     1.00 cm^-1

Throughout the following assumptions are being made:
  (1) The electronic state is orbitally nondegenerate
  (2) There are no thermally accessible electronically excited states
  (3) Hindered rotations indicated by low frequency modes are not
      treated as such but are treated as vibrations and this may
      cause some error
  (4) All equations used are the standard statistical mechanics
      equations for an ideal gas
  (5) All vibrations are strictly harmonic

freq.      40.62  E(vib)   ...       0.54 
freq.      43.45  E(vib)   ...       0.53 
freq.      56.63  E(vib)   ...       0.52 
freq.      59.29  E(vib)   ...       0.51 
freq.      61.56  E(vib)   ...       0.51 
freq.      66.06  E(vib)   ...       0.50 
freq.      80.61  E(vib)   ...       0.48 
freq.      81.31  E(vib)   ...       0.48 
freq.      96.00  E(vib)   ...       0.47 
freq.      97.67  E(vib)   ...       0.46 
freq.      98.26  E(vib)   ...       0.46 
freq.     100.54  E(vib)   ...       0.46 
freq.     104.11  E(vib)   ...       0.46 
freq.     104.56  E(vib)   ...       0.46 
freq.     107.25  E(vib)   ...       0.45 
freq.     107.57  E(vib)   ...       0.45 
freq.     121.13  E(vib)   ...       0.44 
freq.     126.84  E(vib)   ...       0.43 
freq.     128.37  E(vib)   ...       0.43 
freq.     134.95  E(vib)   ...       0.42 
freq.     152.90  E(vib)   ...       0.40 
freq.     152.98  E(vib)   ...       0.40 
freq.     153.44  E(vib)   ...       0.40 
freq.     153.67  E(vib)   ...       0.40 
freq.     157.90  E(vib)   ...       0.40 
freq.     158.47  E(vib)   ...       0.39 
freq.     163.75  E(vib)   ...       0.39 
freq.     163.83  E(vib)   ...       0.39 
freq.     164.22  E(vib)   ...       0.39 
freq.     166.85  E(vib)   ...       0.39 
freq.     170.91  E(vib)   ...       0.38 
freq.     173.07  E(vib)   ...       0.38 
freq.     173.99  E(vib)   ...       0.38 
freq.     188.34  E(vib)   ...       0.36 
freq.     188.79  E(vib)   ...       0.36 
freq.     193.19  E(vib)   ...       0.36 
freq.     193.19  E(vib)   ...       0.36 
freq.     194.07  E(vib)   ...       0.36 
freq.     194.61  E(vib)   ...       0.36 
freq.     209.93  E(vib)   ...       0.34 
freq.     210.55  E(vib)   ...       0.34 
freq.     214.21  E(vib)   ...       0.34 
freq.     214.59  E(vib)   ...       0.34 
freq.     227.37  E(vib)   ...       0.33 
freq.     228.00  E(vib)   ...       0.33 
freq.     235.71  E(vib)   ...       0.32 
freq.     236.05  E(vib)   ...       0.32 
freq.     249.04  E(vib)   ...       0.31 
freq.     263.69  E(vib)   ...       0.29 
freq.     267.77  E(vib)   ...       0.29 
freq.     268.34  E(vib)   ...       0.29 
freq.     268.93  E(vib)   ...       0.29 
freq.     269.59  E(vib)   ...       0.29 
freq.     274.14  E(vib)   ...       0.28 
freq.     276.44  E(vib)   ...       0.28 
freq.     276.83  E(vib)   ...       0.28 
freq.     277.69  E(vib)   ...       0.28 
freq.     279.68  E(vib)   ...       0.28 
freq.     279.93  E(vib)   ...       0.28 
freq.     281.09  E(vib)   ...       0.28 
freq.     293.29  E(vib)   ...       0.27 
freq.     293.52  E(vib)   ...       0.27 
freq.     297.92  E(vib)   ...       0.27 
freq.     298.05  E(vib)   ...       0.27 
freq.     302.03  E(vib)   ...       0.26 
freq.     304.52  E(vib)   ...       0.26 
freq.     313.74  E(vib)   ...       0.25 
freq.     314.01  E(vib)   ...       0.25 
freq.     315.86  E(vib)   ...       0.25 
freq.     321.72  E(vib)   ...       0.25 
freq.     321.78  E(vib)   ...       0.25 
freq.     325.80  E(vib)   ...       0.24 
freq.     327.48  E(vib)   ...       0.24 
freq.     327.74  E(vib)   ...       0.24 
freq.     335.60  E(vib)   ...       0.24 
freq.     335.82  E(vib)   ...       0.24 
freq.     336.72  E(vib)   ...       0.24 
freq.     348.95  E(vib)   ...       0.23 
freq.     349.28  E(vib)   ...       0.23 
freq.     363.23  E(vib)   ...       0.22 
freq.     363.36  E(vib)   ...       0.22 
freq.     375.39  E(vib)   ...       0.21 
freq.     375.51  E(vib)   ...       0.21 
freq.     398.49  E(vib)   ...       0.20 
freq.     403.71  E(vib)   ...       0.19 
freq.     412.30  E(vib)   ...       0.19 
freq.     415.29  E(vib)   ...       0.18 
freq.     415.77  E(vib)   ...       0.18 
freq.     429.28  E(vib)   ...       0.18 
freq.     429.87  E(vib)   ...       0.18 
freq.     434.65  E(vib)   ...       0.17 
freq.     435.04  E(vib)   ...       0.17 
freq.     487.61  E(vib)   ...       0.15 
freq.     488.03  E(vib)   ...       0.15 
freq.     493.78  E(vib)   ...       0.14 
freq.     542.05  E(vib)   ...       0.12 
freq.     547.60  E(vib)   ...       0.12 
freq.     638.69  E(vib)   ...       0.09 
freq.     689.76  E(vib)   ...       0.07 
freq.     690.23  E(vib)   ...       0.07 
freq.     697.52  E(vib)   ...       0.07 
freq.     698.34  E(vib)   ...       0.07 
freq.     739.04  E(vib)   ...       0.06 
freq.     739.49  E(vib)   ...       0.06 
freq.     739.65  E(vib)   ...       0.06 
freq.     739.87  E(vib)   ...       0.06 
freq.     739.96  E(vib)   ...       0.06 
freq.     741.34  E(vib)   ...       0.06 
freq.     742.31  E(vib)   ...       0.06 
freq.     742.52  E(vib)   ...       0.06 
freq.     743.23  E(vib)   ...       0.06 
freq.     743.34  E(vib)   ...       0.06 
freq.     744.42  E(vib)   ...       0.06 
freq.     744.67  E(vib)   ...       0.06 
freq.    1001.55  E(vib)   ...       0.02 
freq.    1001.58  E(vib)   ...       0.02 
freq.    1001.94  E(vib)   ...       0.02 
freq.    1001.96  E(vib)   ...       0.02 
freq.    1003.49  E(vib)   ...       0.02 
freq.    1003.56  E(vib)   ...       0.02 
freq.    1006.20  E(vib)   ...       0.02 
freq.    1006.38  E(vib)   ...       0.02 
freq.    1006.57  E(vib)   ...       0.02 
freq.    1007.06  E(vib)   ...       0.02 
freq.    1007.21  E(vib)   ...       0.02 
freq.    1007.49  E(vib)   ...       0.02 
freq.    1355.11  E(vib)   ...       0.01 
freq.    1355.53  E(vib)   ...       0.01 
freq.    1356.21  E(vib)   ...       0.01 
freq.    1356.34  E(vib)   ...       0.01 
freq.    1356.56  E(vib)   ...       0.01 
freq.    1356.83  E(vib)   ...       0.01 
freq.    1358.03  E(vib)   ...       0.01 
freq.    1358.74  E(vib)   ...       0.01 
freq.    1358.86  E(vib)   ...       0.01 
freq.    1359.42  E(vib)   ...       0.01 
freq.    1359.62  E(vib)   ...       0.01 
freq.    1360.02  E(vib)   ...       0.01 
freq.    1369.92  E(vib)   ...       0.01 
freq.    1369.98  E(vib)   ...       0.01 
freq.    1370.08  E(vib)   ...       0.01 
freq.    1370.13  E(vib)   ...       0.01 
freq.    1374.54  E(vib)   ...       0.01 
freq.    1374.72  E(vib)   ...       0.01 
freq.    1379.33  E(vib)   ...       0.01 
freq.    1381.03  E(vib)   ...       0.01 
freq.    1381.25  E(vib)   ...       0.01 
freq.    1385.22  E(vib)   ...       0.00 
freq.    1385.53  E(vib)   ...       0.00 
freq.    1393.43  E(vib)   ...       0.00 
freq.    1563.53  E(vib)   ...       0.00 
freq.    1573.88  E(vib)   ...       0.00 
freq.    1583.75  E(vib)   ...       0.00 
freq.    1583.84  E(vib)   ...       0.00 
freq.    1590.39  E(vib)   ...       0.00 
freq.    1596.54  E(vib)   ...       0.00 
freq.    1596.86  E(vib)   ...       0.00 
freq.    1650.82  E(vib)   ...       0.00 
freq.    1651.02  E(vib)   ...       0.00 
freq.    1656.43  E(vib)   ...       0.00 
freq.    1656.86  E(vib)   ...       0.00 
freq.    1657.18  E(vib)   ...       0.00 
freq.    2949.27  E(vib)   ...       0.00 
freq.    2949.30  E(vib)   ...       0.00 
freq.    2949.44  E(vib)   ...       0.00 
freq.    2949.46  E(vib)   ...       0.00 
freq.    2950.50  E(vib)   ...       0.00 
freq.    2951.27  E(vib)   ...       0.00 
freq.    2964.22  E(vib)   ...       0.00 
freq.    2964.43  E(vib)   ...       0.00 
freq.    2964.55  E(vib)   ...       0.00 
freq.    2965.08  E(vib)   ...       0.00 
freq.    2965.20  E(vib)   ...       0.00 
freq.    2966.56  E(vib)   ...       0.00 

------------
INNER ENERGY
------------

The inner energy is: U= E(el) + E(ZPE) + E(vib) + E(rot) + E(trans)
    E(el)   - is the total energy from the electronic structure calculation
              = E(kin-el) + E(nuc-el) + E(el-el) + E(nuc-nuc)
    E(ZPE)  - the the zero temperature vibrational energy from the frequency calculation
    E(vib)  - the the finite temperature correction to E(ZPE) due to population
              of excited vibrational states
    E(rot)  - is the rotational thermal energy
    E(trans)- is the translational thermal energy

Summary of contributions to the inner energy U:
Electronic energy                ...  -3000.89279202 Eh
Zero point energy                ...      0.31052664 Eh     194.86 kcal/mol
Thermal vibrational correction   ...      0.05181760 Eh      32.52 kcal/mol
Thermal rotational correction    ...      0.00141627 Eh       0.89 kcal/mol
Thermal translational correction ...      0.00141627 Eh       0.89 kcal/mol
-----------------------------------------------------------------------
Total thermal energy                  -3000.52761524 Eh


Summary of corrections to the electronic energy:
(perhaps to be used in another calculation)
Total thermal correction                  0.05465015 Eh      34.29 kcal/mol
Non-thermal (ZPE) correction              0.31052664 Eh     194.86 kcal/mol
-----------------------------------------------------------------------
Total correction                          0.36517678 Eh     229.15 kcal/mol


--------
ENTHALPY
--------

The enthalpy is H = U + kB*T
                kB is Boltzmann's constant
Total thermal energy              ...  -3000.52761524 Eh 
Thermal Enthalpy correction       ...      0.00094421 Eh       0.59 kcal/mol
-----------------------------------------------------------------------
Total Enthalpy                    ...  -3000.52667103 Eh


Note: Rotational entropy computed according to Herzberg 
Infrared and Raman Spectra, Chapter V,1, Van Nostrand Reinhold, 1945 
Point Group:  Ci, Symmetry Number:   1  
Rotational constants in cm-1:     0.001904     0.001904     0.001811 

Vibrational entropy computed according to the QRRHO of S. Grimme
Chem.Eur.J. 2012 18 9955 using a reference frequency of 100.0 cm-1


-------
ENTROPY
-------

The entropy contributions are T*S = T*(S(el)+S(vib)+S(rot)+S(trans))
     S(el)   - electronic entropy
     S(vib)  - vibrational entropy
     S(rot)  - rotational entropy
     S(trans)- translational entropy
The entropies will be listed as multiplied by the temperature to get
units of energy

Electronic entropy                ...      0.00000000 Eh      0.00 kcal/mol
Vibrational entropy               ...      0.09214508 Eh     57.82 kcal/mol
Rotational entropy                ...      0.01840564 Eh     11.55 kcal/mol
Translational entropy             ...      0.02237096 Eh     14.04 kcal/mol
-----------------------------------------------------------------------
Final entropy term                ...      0.13292167 Eh     83.41 kcal/mol

In case the symmetry of your molecule has not been determined correctly
or in case you have a reason to use a different symmetry number we print 
out the resulting rotational entropy values for sn=1,12:

 non-linear molecules -----------------------------------
|  sn= 1 | S(rot)=       0.01840564 Eh     11.55 kcal/mol|
|  sn= 2 | S(rot)=       0.01775118 Eh     11.14 kcal/mol|
|  sn= 3 | S(rot)=       0.01736835 Eh     10.90 kcal/mol|
|  sn= 4 | S(rot)=       0.01709673 Eh     10.73 kcal/mol|
|  sn= 5 | S(rot)=       0.01688604 Eh     10.60 kcal/mol|
|  sn= 6 | S(rot)=       0.01671389 Eh     10.49 kcal/mol|
|  sn= 7 | S(rot)=       0.01656835 Eh     10.40 kcal/mol|
|  sn= 8 | S(rot)=       0.01644227 Eh     10.32 kcal/mol|
|  sn= 9 | S(rot)=       0.01633106 Eh     10.25 kcal/mol|
|  sn=10 | S(rot)=       0.01623158 Eh     10.19 kcal/mol|
|  sn=11 | S(rot)=       0.01614159 Eh     10.13 kcal/mol|
|  sn=12 | S(rot)=       0.01605944 Eh     10.08 kcal/mol|
 linear molecules ---------------------------------------
|  Dinfh | S(rot)=       0.01128724 Eh      7.08 kcal/mol|
|  Cinfv | S(rot)=       0.01194170 Eh      7.49 kcal/mol|
 --------------------------------------------------------


-------------------
GIBBS FREE ENERGY
-------------------

The Gibbs free energy is G = H - T*S

Total enthalpy                    ...  -3000.52667103 Eh 
Total entropy correction          ...     -0.13292167 Eh    -83.41 kcal/mol
-----------------------------------------------------------------------
Final Gibbs free energy         ...  -3000.65959270 Eh

For completeness - the Gibbs free energy minus the electronic energy
G-E(el)                           ...      0.23319932 Eh    146.33 kcal/mol


Maximum memory used throughout the entire PROP-calculation: 126.3 MB

--------------------------------
SUGGESTED CITATIONS FOR THIS RUN
--------------------------------

Below you find a list of papers that are relevant to this ORCA run
We neither can nor want to force you to cite these papers, but we appreciate if you do
You receive ORCA, which is the product of decades of hard work by many enthusiastic individuals, for free
The only thing we kindly ask in return is that you cite our papers,
We deeply appreciate it, if you show your appreciation for ORCA by not just citing the generic ORCA reference.

Please note that relegating all ORCA citations to the supporting information does *not* help us.
SI sections are not indexed - citations you put there will not count into any citation statistics
But we need these citations in order to attract the funding resources that allow us to do what we are doing

Therefore, if you are a happy ORCA user, please consider citing a few of the papers listed below in the main body of your paper

In addition to the list printed below, the program has created the file run.bibtex that contains the list in bibtex format
You can import this file easily into all common literature databanks and citation aid programs


List of essential papers. We consider these as the minimum necessary citations

  1. Neese, F.
     Software update: the ORCA program system, version 6.0
     WIRES Comput. Molec. Sci. 2025 15(1), e70019
     doi.org/10.1002/wcms.7019

List of papers to cite with high priority. The work reported in these papers was absolutely
necessary for this run to complete.
Our perspective: the developers of density functionals and basis sets usually get cited in chemistry papers
Good! But without the algorithms to do something with them, the functionals or basis sets would not do anything.
Hence, in our opinion, the algorithm design and method developments papers are equally worthy of getting cited

  1. Neese, F.
     An improvement of the resolution of the identity approximation for the formation of the Coulomb matrix
     J. Comp. Chem. 2003 24(14), 1740-1747
     doi.org/10.1002/jcc.10318
  2. Grimme, S.; Antony, J.; Ehrlich, S.; Krieg, H.
     A consistent and accurate ab initio parametrization of density functional dispersion correction (DFT-D) for the 94 elements H-Pu
     J. Chem. Phys. 2010 132 , 154104
     doi.org/10.1063/1.3382344
  3. Grimme, S.; Ehrlich, S.; Goerigk, L.
     Effect of the damping function in dispersion corrected density functional theory
     J. Comput. Chem. 2011 32(7), 1456-1465
     doi.org/10.1002/jcc.21759
  4. Bykov, D.; Petrenko, T.; Izsak, R.; Kossmann, S.; Becker, U.; Valeev, E.; Neese, F.
     Efficient implementation of the analytic second derivatives of Hartree-Fock and hybrid DFT energies: a detailed analysis of different approximations
     Molec. Phys. 2015 113 , 1961-1977
     doi.org/10.1080/00268976.2015.1025114
  5. Neese, F.
     The SHARK Integral Generation and Digestion System
     J. Comp. Chem. 2022 44(3), 381
     doi.org/10.1002/jcc.26942

List of suggested additional citations. These are papers that are important in the 'surrounding' of 
of this run, or papers that preceded the highly important papers. If you like your results we are grateful for a citation.

  1. Neese, F.
     The ORCA program system
     WIRES Comput. Molec. Sci. 2012 2(1), 73-78
     doi.org/10.1002/wcms.81
  2. Neese, F.
     Software update: the ORCA program system, version 4.0
     WIRES Comput. Molec. Sci. 2018 8(1), 1-6
     doi.org/10.1002/wcms.1327
  3. Neese, F.; Wennmohs, F.; Becker, U.; Riplinger, C.
     The ORCA quantum chemistry program package
     J. Chem. Phys. 2020 152(22), 224108
     doi.org/10.1063/5.0004608
  4. Neese, F.
     Software update: The ORCA program system—Version 5.0
     WIRES Comput. Molec. Sci. 2022 12(1), e1606
     doi.org/10.1002/wcms.1606

List of optional additional citations

  1. Neese, F.
     Approximate second-order SCF convergence for spin unrestricted wavefunctions
     Chem. Phys. Lett. 2000 325(1-3), 93-98
     doi.org/10.1016/s0009-2614(00)00662-x

Timings for individual modules:

Sum of individual times          ...     3878.669 sec (=  64.644 min)
Startup calculation              ...       42.393 sec (=   0.707 min)   1.1 %
SCF iterations                   ...      209.041 sec (=   3.484 min)   5.4 %
Property integrals               ...     1317.975 sec (=  21.966 min)  34.0 %
SCF Response                     ...      890.485 sec (=  14.841 min)  23.0 %
Property calculations            ...     1349.239 sec (=  22.487 min)  34.8 %
SCF Gradient evaluation          ...       66.899 sec (=   1.115 min)   1.7 %
Geometry relaxation              ...        2.638 sec (=   0.044 min)   0.1 %
                             ****ORCA TERMINATED NORMALLY****
TOTAL RUN TIME: 0 days 1 hours 4 minutes 42 seconds 352 msec
