
                                 *****************
                                 * O   R   C   A *
                                 *****************

                                            #,                                       
                                            ###                                      
                                            ####                                     
                                            #####                                    
                                            ######                                   
                                           ########,                                 
                                     ,,################,,,,,                         
                               ,,#################################,,                 
                          ,,##########################################,,             
                       ,#########################################, ''#####,          
                    ,#############################################,,   '####,        
                  ,##################################################,,,,####,       
                ,###########''''           ''''###############################       
              ,#####''   ,,,,##########,,,,          '''####'''          '####       
            ,##' ,,,,###########################,,,                        '##       
           ' ,,###''''                  '''############,,,                           
         ,,##''                                '''############,,,,        ,,,,,,###''
      ,#''                                            '''#######################'''  
     '                                                          ''''####''''         
             ,#######,   #######,   ,#######,      ##                                
            ,#'     '#,  ##    ##  ,#'     '#,    #''#        ,####,    ,#,          
            ##       ##  ##   ,#'  ##            #'  '#       #'       ,# #          
            ##       ##  #######   ##           ,######,      #####,      #          
            '#,     ,#'  ##    ##  '#,     ,#' ,#      #,     #,   #      #          
             '#######'   ##     ##  '#######'  #'      '#     '####' #    #          



                #########################################################
                #                        -***-                          #
                #          Department of theory and spectroscopy        #
                #                                                       #
                #                      Frank Neese                      #
                #                                                       #
                #     Directorship, Architecture, Infrastructure        #
                #                    SHARK, DRIVERS                     #
                #        Core code/Algorithms in most modules           #
                #                                                       #
                #        Max Planck Institute fuer Kohlenforschung      #
                #                Kaiser Wilhelm Platz 1                 #
                #                 D-45470 Muelheim/Ruhr                 #
                #                      Germany                          #
                #                                                       #
                #                  All rights reserved                  #
                #                        -***-                          #
                #########################################################


                         Program Version 6.1.0  -  RELEASE   -
                                (GIT: $679e74b$)
                          ($2025-06-10 18:02:51 +0200$)


 With contributions from (in alphabetic order):
[Max-Planck-Institut fuer Kohlenforschung]                               
  Daniel Aravena         : Magnetic Suceptibility                        
  Michael Atanasov       : Ab Initio Ligand Field Theory (pilot matlab implementation)
  Alexander A. Auer      : GIAO ZORA, VPT2 properties, NMR spectrum      
  Ute Becker             : All parallelization in ORCA, NUMFREQ, NUMCALC 
  Giovanni Bistoni       : ED, misc. LED, open-shell LED, HFLD           
  Dmytro Bykov           : pre 5.0 version of the SCF Hessian            
  Marcos Casanova-Páez   : Triplet and SCS-CIS(D). UHF-(DLPNO)-IP/EA/STEOM-CCSD. UHF-CVS-IP/STEOM-CCSD   
  Vijay G. Chilkuri      : MRCI spin determinant printing, contributions to CSF-ICE 
  Pauline Colinet        : FMM embedding                                 
  Dipayan Datta          : RHF DLPNO-CCSD density                        
  Achintya Kumar Dutta   : EOM-CC, STEOM-CC                              
  Nicolas Foglia         : Exact transition moments, OPA infrastructure, MCD improvements    
  Dmitry Ganyushin       : Spin-Orbit,Spin-Spin,Magnetic field MRCI      
  Miquel Garcia-Rates    : C-PCM and meta-GGA Hessian, CCSD/C-PCM, Gaussian charge scheme 
  Tiago L. C. Gouveia    : GS-ROHF, GS-ROCIS                             
  Yang Guo               : DLPNO-NEVPT2, F12-NEVPT2, CIM, IAO-localization        
  Andreas Hansen         : Spin unrestricted coupled pair/coupled cluster methods 
  Ingolf Harden          : AUTO-CI MPn and infrastructure                
  Benjamin Helmich-Paris : MC-RPA, TRAH-(SCF,CASSCF), AVAS, COSX integrals, SCF dyn. polar., MC-PDFT, srDFT 
  Lee Huntington         : MR-EOM, pCC                                   
  Robert Izsak           : Overlap fitted RIJCOSX, COSX-SCS-MP3, EOM     
  Riya Kayal             : Wick's Theorem for AUTO-CI, AUTO-CI UHF-CCSDT 
  Emily Kempfer          : AUTO-CI RHF CISDT and CCSDT, approximate NEVPT4
  Christian Kollmar      : KDIIS, OOCD, Brueckner-CCSD(T), CCSD density, CASPT2, CASPT2-K, improved NEVPT2 
  Axel Koslowski         : Symmetry handling                             
  Simone Kossmann        : meta-GGA functionals, TD-DFT gradient, OOMP2, (MP2 Hessian; deprecated post 5.0) 
  Lucas Lang             : DCDCAS, Hyperfine gauge corrections, ICE-SOC+SSC
  Marvin Lechner         : AUTO-CI (C++ implementation), FIC-MRCC        
  Spencer Leger          : CASSCF response                               
  Dagmar Lenk            : GEPOL surface, SMD, ORCA-2-JSON               
  Dimitrios Liakos       : Extrapolation schemes; Compound Job, Property file
  Dimitrios Manganas     : Further ROCIS development; embedding schemes. LFT, Crystal Embedding 
  Dimitrios Pantazis     : SARC Basis sets                               
  Anastasios Papadopoulos: AUTO-CI, single reference methods and gradients 
  Taras Petrenko         : pre 6.0 DFT Hessian and TD-DFT gradient,  ECA, NRVS 
  Petra Pikulova         : Analytic Raman intensities                    
  Peter Pinski           : DLPNO-MP2, DLPNO-MP2 Gradient                 
  Shashank Vittal Rao    : ES-AILFT, MagRelax                            
  Christoph Reimann      : Effective Core Potentials                     
  Marius Retegan         : Local ZFS, SOC                                
  Christoph Riplinger    : Optimizer, TS searches, QM/MM, DLPNO-CCSD(T), (RO)-DLPNO pert. Triples 
  Michael Roemelt        : Original ROCIS implementation, recursive CI coupling coefficients
  Masaaki Saitow         : Open-shell DLPNO-CCSD energy and density      
  Barbara Sandhoefer     : DKH picture change effects                    
  Yorick L. A. Schmerwitz: GMF and freeze-and-release deltaSCF, NEB S-IDPP initial path                    
  Kantharuban Sivalingam : CASSCF convergence/infrastructure, NEVPT2, NEVPT3, NEVPT4(SD), FIC-MRCI and CEPA variants
  Bernardo de Souza      : ESD, SOC TD-DFT                               
  Georgi L. Stoychev     : AutoAux, RI-MP2 NMR, DLPNO-MP2 response, X2C  
  Van Anh Tran           : RI-MP2 g-tensors                              
  Willem Van den Heuvel  : Paramagnetic NMR                              
  Zikuan Wang            : NOTCH, Electric field optimization            
  Frank Wennmohs         : Technical directorship and infrastructure     
  Hang Xu                : AUTO-CI-Response properties                   
                                                                         
[FACCTs GmbH]                                                            
  Markus Bursch, Nicolas Foglia, Miquel Garcia-Rates, Ingolf Harden, Hagen Neugebauer, Anastasios Papadopoulos, 
  Christoph Riplinger, Bernardo de Souza, Georgi L. Stoychev                                                    
                                                                 
  APM, various basis sets, CI-OPT, improved COSX, DLPNO-Multilevel,           
  DOCKER, DRACO, updates on ESD, Fragmentator, GOAT, IRC, LR-CPCM, L-BFGS, MBIS, meta-GGA TD-DFT gradient, ML-optimized integration grids, 
  MM, NACMEs, nearIR, NEB, NEB-TS, NL-DFT gradient (VV10), 2- and 3-layer-ONIOM, interface openCOSMO-RS, QMMM,   
  Crystal-QMMM, RESP, rigid body optimization, SF, symmetry and pop. for TD-DFT, various functionals, SOLVATOR                                   
                                                                         
[Other institutions]                                                     
  V. Asgeirsson          : NEB                                           
  Christoph Bannwarth    : sTDA-DFT, sTD-DFT, PBEh-3c, B97-3c, D3        
  Giovanni Bistoni       : ETS/NOCV, ADLD/ADEX, COVALED                  
  Martin Brehm           : Molecular dynamics                            
  Ronald Cardenas        : ETS/NOCV                                      
  Martina Colucci        : COVALED                                       
  Sebastian Ehlert       : rSCAN, r2SCAN, r2SCAN-3c, D4, dhf basis sets  
  Marvin Friede          : D4 for Fr, Ra, Ac-Lr                          
  Lars Goerigk           : TD-DFT with DH, B97 family of functionals     
  Stefan Grimme          : VdW corrections, initial TS optimization, DFT functionals, gCP, sTDA/sTD-DF 
  Waldemar Hujo          : DFT-NL                                        
  H. Jonsson             : NEB                                           
  Holger Kruse           : gCP                                           
  Marcel Mueller         : wB97X-3c, vDZP basis set                      
  Hagen Neugebauer       : wr2SCAN, Native XTB                           
  Gianluca Regni         : ADLD/ADEX                                     
  Tobias Risthaus        : pre 6.0 range-separated hybrid DFT and stability analysis
  Lukas Wittmann         : regularized MP2, r2SCAN double-hybrids, wr2SCAN        
                                                                         
We gratefully acknowledge several colleagues who have allowed us to      
interface, adapt or use parts of their codes:                            
  Ed Valeev, F. Pavosevic, A. Kumar             : LibInt (2-el integral package), F12 methods 
  Garnet Chan, S. Sharma, J. Yang, R. Olivares  : DMRG                   
  Ulf Ekstrom                                   : XCFun DFT Library      
  Mihaly Kallay                                 : mrcc  (arbitrary order and MRCC methods)
  Frank Weinhold                                : gennbo (NPA and NBO analysis)           
  Simon Mueller                                 : openCOSMO-RS                            
  Christopher J. Cramer and Donald G. Truhlar   : smd solvation model                     
  S Lehtola, MJT Oliveira, MAL Marques          : LibXC Library                           
  Liviu Ungur et al                             : ANISO software                          


 Your calculation uses the libint2 library for the computation of 2-el integrals
 For citations please refer to: http://libint.valeyev.net

 Your ORCA version has been built with support for libXC version: 7.0.0
 For citations please refer to: https://libxc.gitlab.io

 This ORCA versions uses:
   CBLAS   interface :  Fast vector & matrix operations
   LAPACKE interface :  Fast linear algebra routines
   SCALAPACK package :  Parallel linear algebra routines
   Shared memory     :  Shared parallel matrices
   BLAS/LAPACK       :  OpenBLAS 0.3.29  USE64BITINT DYNAMIC_ARCH NO_AFFINITY Prescott SINGLE_THREADED
        Core in use  :  Prescott
   Copyright (c) 2011-2014, The OpenBLAS Project


  ***********************************
  * Starting time: Fri Aug  8 18:58:26 2025
  * Host name:     cuda3
  * Process ID:    118486
  * Working dir.:  /local/scratch/mehlhorn/61814
  ***********************************



***************************************
The coordinates will be read from file: start.xyz
***************************************


Your calculation utilizes the geometrical counterpoise correction gCP
Please cite in your paper:
H.Kruse, S. Grimme J.Chem.Phys., 136, (2012), 154101 
   

Your calculation utilizes the atom-pairwise dispersion correction
with the Becke-Johnson damping scheme (D3BJ)


Warning: RI is on but no J-basis has been assigned. Assigning Def2/J (nothing to worry about!)
================================================================================

cite the ECPs for Zr [Def2-ECP] as follows:
Ce-Yb(ecp-28): M. Dolg, H. Stoll, H.Preuss, J. Chem. Phys., 1989, 90, 1730-1734.
Y-Cd(ecp-28), Hf-Hg(ecp-46): D. Andrae,U. Haeussermann, M. Dolg, H. Stoll, H. Preuss, Theor. Chim. Acta, 1990, 77, 123-141.
In-Sb(ecp-28), Tl-Bi(ecp-46): B. Metz, H. Stoll, M. Dolg, J. Chem. Phys., 2000, 113, 2563-2569.
Te-Xe(ecp-28), Po-Rn(ecp-46): K. A. Peterson, D. Figgen, E. Goll, H. Stoll, M. Dolg, J. Chem. Phys., 2003, 119, 11113-11123.
Rb(ecp-28), Cs(ecp-46): T. Leininger, A. Nicklass, W. Kuechle, H. Stoll, M. Dolg, A. Bergner, Chem. Phys. Lett., 1996, 255, 274-280.
Sr(ecp-28), Ba(ecp-46): M. Kaupp, P. V. Schleyer, H. Stoll and H. Preuss, J. Chem. Phys., 1991, 94, 1360-1366.
La(ecp-46): M. Dolg, H. Stoll, A. Savin, H. Preuss, Theor. Chim. Acta, 1989, 75, 173-194.
Lu(ecp-28): X. Cao, M. Dolg, J. Chem. Phys., 2001, 115, 7348-7355.

ECP parameters for Zr [Def2-ECP] have been obtained from:
TURBOMOLE (7.0.2)

----- Orbital basis set information -----
Your calculation utilizes the basis: def2-SV(P)
   F. Weigend and R. Ahlrichs, Phys. Chem. Chem. Phys. 7, 3297 (2005).

----- AuxJ basis set information -----
Your calculation utilizes the auxiliary basis: def2/J
   H-Rn: F. Weigend, Phys. Chem. Chem. Phys. 8, 1057 (2006).
   Fr-Lr: K. Eichkorn, F. Weigend, O. Treutler, R. Ahlrichs; Theor. Chem. Acc. 97, 119 (1997).

================================================================================
                                        WARNINGS
                       Please study these warnings very carefully!
================================================================================


WARNING: Gradients are needed
  ===> : At least TightSCF should be used for SCF convergence

WARNING: Geometry Optimization
  ===> : Switching off AutoStart
         For restart on a previous wavefunction, please use MOREAD

================================================================================
                                       INPUT FILE
================================================================================
NAME = run.inp
|  1> # Geometry optimization for (AlH3)n cluster
|  2> 
|  3> %pal nprocs 24  end
|  4> 
|  5> %geom MaxIter 500 end
|  6> 
|  7> 
|  8> ! PBE def2-SV(P)
|  9> ! RKS	# closed shell for AlH3
| 10> ! D3    #  dispersion correction
| 11> ! gCP(DFT/SV(P))
| 12> ! Freq 	# Frequency analysis to check the stabiltity of the structures
| 13> 
| 14> ! NoPop # population analysis not necessary	
| 15> 
| 16> ! DEFGRID2
| 17> ! NormalSCF
| 18> ! SloppyOpt
| 19> 
| 20> ! SmallPrint
| 21> 
| 22> 
| 23> * xyzFile 0 1 start.xyz # only maingroup elements H and Al so there should be no net spin
| 24> 
| 25>                          ****END OF INPUT****
================================================================================

                       *****************************
                       * Geometry Optimization Run *
                       *****************************

Geometry optimization settings:
Update method            Update   .... BFGS
Choice of coordinates    CoordSys .... (2022) Redundant Internals
Initial Hessian          InHess   .... Almloef's Model
Max. no of cycles        MaxIter  .... 500

Convergence Tolerances:
Energy Change            TolE     ....  8.0000e-05 Eh
Max. Gradient            TolMAXG  ....  5.0000e-03 Eh/bohr
RMS Gradient             TolRMSG  ....  1.0000e-03 Eh/bohr
Max. Displacement        TolMAXD  ....  3.0000e-02 bohr
RMS Displacement         TolRMSD  ....  2.0000e-02 bohr
Strict Convergence                .... False

------------------------------------------------------------------------------
                        ORCA OPTIMIZATION COORDINATE SETUP
------------------------------------------------------------------------------

The optimization will be done in redundant internal coordinates (2022)
Making redundant internal coordinates   ...  (2022 redundants) done
Evaluating the initial hessian          ...  (Almloef) done
Evaluating the coordinates              ...  done
Calculating the B-matrix                .... done
Calculating the G-matrix                .... done
The number of degrees of freedom        ....  789

    -----------------------------------------------------------------
                    Redundant Internal Coordinates


    -----------------------------------------------------------------
         Definition                    Initial Value    Approx d2E/dq
    -----------------------------------------------------------------
      1. B(Zr  2,Zr  1)                  3.4312         0.035434   
      2. B(Zr  3,Zr  0)                  3.4303         0.035549   
      3. B(Zr  4,Zr  1)                  3.3766         0.043304   
      4. B(Zr  4,Zr  3)                  3.4212         0.036752   
      5. B(Zr  5,Zr  2)                  3.4147         0.037650   
      6. B(Zr  5,Zr  0)                  3.3707         0.044250   
      7. B(O   6,Zr  0)                  2.0841         0.442217   
      8. B(O   6,Zr  3)                  2.0844         0.441712   
      9. B(O   6,Zr  5)                  2.1481         0.349576   
     10. B(O   7,Zr  4)                  2.1493         0.348004   
     11. B(O   7,Zr  1)                  2.0825         0.444856   
     12. B(O   7,Zr  2)                  2.0921         0.429415   
     13. B(O   8,Zr  5)                  2.1756         0.315988   
     14. B(O   8,Zr  1)                  2.1669         0.326260   
     15. B(O   8,Zr  2)                  2.1535         0.342681   
     16. B(O   9,Zr  4)                  2.1790         0.312003   
     17. B(O   9,Zr  3)                  2.1528         0.343532   
     18. B(O   9,Zr  0)                  2.1751         0.316584   
     19. B(O  10,Zr  4)                  2.1000         0.417059   
     20. B(O  10,Zr  3)                  2.0783         0.451787   
     21. B(O  10,Zr  1)                  2.1369         0.364279   
     22. B(O  11,Zr  2)                  2.0678         0.469394   
     23. B(O  11,Zr  5)                  2.1061         0.407814   
     24. B(O  11,Zr  0)                  2.1244         0.381393   
     25. B(O  12,Zr  0)                  1.9983         0.606093   
     26. B(O  13,Zr  0)                  1.9803         0.647447   
     27. B(O  14,Zr  0)                  2.0775         0.453106   
     28. B(O  15,Zr  0)                  1.9830         0.641148   
     29. B(O  16,Zr  1)                  1.9931         0.617751   
     30. B(O  17,Zr  1)                  2.0684         0.468414   
     31. B(O  18,Zr  1)                  1.9868         0.632147   
     32. B(O  19,Zr  1)                  1.9938         0.616029   
     33. B(O  20,Zr  2)                  1.9733         0.664424   
     34. B(O  21,Zr  2)                  2.0655         0.473382   
     35. B(O  22,Zr  2)                  1.9791         0.650423   
     36. B(O  23,Zr  2)                  2.0647         0.474786   
     37. B(O  24,Zr  3)                  2.0708         0.464249   
     38. B(O  25,Zr  3)                  1.9766         0.656242   
     39. B(O  26,Zr  3)                  2.0692         0.467093   
     40. B(O  27,Zr  3)                  1.9719         0.667692   
     41. B(O  28,Zr  4)                  1.9767         0.656065   
     42. B(O  29,Zr  4)                  2.0070         0.587027   
     43. B(O  30,Zr  4)                  1.9921         0.620075   
     44. B(O  31,Zr  4)                  2.0763         0.454980   
     45. B(O  32,Zr  5)                  2.0720         0.462268   
     46. B(O  33,Zr  5)                  1.9920         0.620327   
     47. B(O  34,Zr  5)                  2.0119         0.576425   
     48. B(O  35,Zr  5)                  1.9770         0.655406   
     49. B(C  36,O  33)                  1.3024         0.772116   
     50. B(C  36,O  12)                  1.3020         0.773176   
     51. B(C  37,O  13)                  1.3007         0.776817   
     52. B(C  37,O  25)                  1.3006         0.777166   
     53. B(C  38,O  21)                  1.2977         0.785569   
     54. B(C  38,O  14)                  1.2970         0.787628   
     55. B(C  39,O  29)                  1.2949         0.793466   
     56. B(C  39,O  15)                  1.2946         0.794333   
     57. B(C  40,O  34)                  1.2951         0.792956   
     58. B(C  40,O  16)                  1.2947         0.794118   
     59. B(C  41,O  26)                  1.2978         0.785053   
     60. B(C  41,O  17)                  1.2969         0.787799   
     61. B(C  42,O  22)                  1.3009         0.776424   
     62. B(C  42,O  18)                  1.3007         0.776728   
     63. B(C  43,O  19)                  1.3017         0.774026   
     64. B(C  43,O  30)                  1.3021         0.772877   
     65. B(C  44,O  35)                  1.2988         0.782179   
     66. B(C  44,O  20)                  1.2990         0.781795   
     67. B(C  45,O  31)                  1.2983         0.783827   
     68. B(C  45,O  23)                  1.3002         0.778212   
     69. B(C  46,O  32)                  1.2978         0.785247   
     70. B(C  46,O  24)                  1.2993         0.780954   
     71. B(C  47,O  28)                  1.2996         0.780084   
     72. B(C  47,O  27)                  1.2995         0.780299   
     73. B(H  48,C  41)                  1.0853         0.366402   
     74. B(H  49,C  42)                  1.0912         0.358539   
     75. B(H  50,C  38)                  1.0850         0.366754   
     76. B(H  51,C  37)                  1.0911         0.358625   
     77. B(H  52,C  43)                  1.0924         0.356955   
     78. B(H  53,C  47)                  1.0905         0.359422   
     79. B(H  54,C  39)                  1.0863         0.365029   
     80. B(H  55,C  45)                  1.0865         0.364708   
     81. B(H  56,C  40)                  1.0862         0.365195   
     82. B(H  57,C  46)                  1.0860         0.365388   
     83. B(H  58,C  36)                  1.0925         0.356748   
     84. B(H  59,C  44)                  1.0901         0.359968   
     85. B(Al 61,Al 60)                  2.7536         0.204811   
     86. B(H  62,Al 61)                  1.6756         0.293600   
     87. B(H  63,H  54)                  3.0991         0.010000   
     88. B(H  63,O  13)                  2.8380         0.010000   
     89. B(H  63,O  15)                  2.6061         0.010000   
     90. B(H  63,Al 61)                  1.6110         0.372262   
     91. B(H  64,C  39)                  2.8836         0.010000   
     92. B(H  64,H  54)                  2.4373         0.010000   
     93. B(H  64,Al 61)                  1.6740         0.295332   
     94. B(H  64,Al 60)                  1.6742         0.295136   
     95. B(H  65,O  28)                  2.7780         0.010000   
     96. B(H  65,O  29)                  2.5802         0.010000   
     97. B(H  65,Al 60)                  1.6106         0.372718   
     98. B(H  66,Al 60)                  1.6751         0.294071   
     99. B(H  67,Al 61)                  1.6093         0.374519   
    100. B(Al 68,H  66)                  1.6721         0.297339   
    101. B(Al 68,H  62)                  1.6715         0.297982   
    102. B(Al 68,Al 61)                  2.7184         0.233071   
    103. B(Al 68,Al 60)                  2.7211         0.230820   
    104. B(H  69,Al 68)                  1.6091         0.374875   
    105. B(H  70,O  25)                  2.9485         0.010000   
    106. B(H  70,O  27)                  2.8258         0.010000   
    107. B(H  70,O  28)                  2.6837         0.010000   
    108. B(H  70,C  37)                  2.6415         0.010000   
    109. B(H  70,C  47)                  2.6160         0.010000   
    110. B(H  70,O  13)                  2.5704         0.010000   
    111. B(H  70,O   9)                  2.3851         0.010000   
    112. B(H  70,Al 68)                  1.6085         0.375626   
    113. B(H  71,Al 60)                  1.6094         0.374443   
    114. A(O  12,Zr  0,O  14)           79.8987         0.510577   
    115. A(Zr  3,Zr  0,O  15)          111.7775         0.357688   
    116. A(Zr  5,Zr  0,O   9)           95.2127         0.329661   
    117. A(Zr  5,Zr  0,O  14)           89.8731         0.350005   
    118. A(O   9,Zr  0,O  12)          140.5807         0.477717   
    119. A(Zr  5,Zr  0,O  15)          141.4451         0.371339   
    120. A(O   9,Zr  0,O  13)           77.2882         0.483568   
    121. A(O   9,Zr  0,O  14)          138.6334         0.452947   
    122. A(Zr  5,Zr  0,O   6)           37.8705         0.348572   
    123. A(Zr  5,Zr  0,O  13)          127.8644         0.371965   
    124. A(Zr  3,Zr  0,O  13)           73.5570         0.358283   
    125. A(Zr  3,Zr  0,O  11)           87.3270         0.327886   
    126. A(O   6,Zr  0,O  14)          127.7272         0.481546   
    127. A(O  12,Zr  0,O  13)           81.3934         0.546047   
    128. A(O  14,Zr  0,O  15)           75.6987         0.515977   
    129. A(O   6,Zr  0,O  11)           65.7540         0.466533   
    130. A(O   6,Zr  0,O  12)           81.6737         0.508262   
    131. A(O   6,Zr  0,O  15)          141.2161         0.513632   
    132. A(O  11,Zr  0,O  12)           99.3848         0.494453   
    133. A(Zr  3,Zr  0,O  12)          104.6816         0.354290   
    134. A(O  12,Zr  0,O  15)          136.6120         0.545036   
    135. A(O  11,Zr  0,O  14)           69.7186         0.468617   
    136. A(Zr  3,Zr  0,O   9)           37.3445         0.318025   
    137. A(Zr  5,Zr  0,O  12)           72.5772         0.367769   
    138. A(O   9,Zr  0,O  11)           90.4843         0.439028   
    139. A(Zr  3,Zr  0,Zr  5)           70.7096         0.253245   
    140. A(O  11,Zr  0,O  13)          160.3044         0.500556   
    141. A(O  13,Zr  0,O  14)          129.2936         0.516922   
    142. A(O  11,Zr  0,O  15)          104.8959         0.499646   
    143. A(Zr  5,Zr  0,O  11)           36.9911         0.340022   
    144. A(Zr  3,Zr  0,O   6)           34.6254         0.336022   
    145. A(O  13,Zr  0,O  15)           86.9973         0.551900   
    146. A(Zr  3,Zr  0,O  14)          157.0455         0.337385   
    147. A(O   6,Zr  0,O  13)           95.0967         0.514573   
    148. A(O   9,Zr  0,O  15)           75.0115         0.482696   
    149. A(O   6,Zr  0,O   9)           67.8048         0.450949   
    150. A(O   7,Zr  1,O  16)          141.5801         0.510642   
    151. A(Zr  2,Zr  1,O  19)          105.2750         0.355074   
    152. A(O   8,Zr  1,O  16)           74.6469         0.482066   
    153. A(O  16,Zr  1,O  17)           75.8585         0.515595   
    154. A(O  10,Zr  1,O  17)           69.7007         0.467529   
    155. A(Zr  4,Zr  1,O   7)           37.7579         0.347654   
    156. A(O   7,Zr  1,O  17)          128.5874         0.485042   
    157. A(Zr  2,Zr  1,Zr  4)           70.7731         0.252325   
    158. A(Zr  2,Zr  1,O  10)           87.6842         0.325244   
    159. A(O  10,Zr  1,O  16)          107.5497         0.491996   
    160. A(O  16,Zr  1,O  18)           85.0241         0.545544   
    161. A(Zr  2,Zr  1,O   7)           34.8133         0.336174   
    162. A(Zr  2,Zr  1,O   8)           37.2860         0.319423   
    163. A(Zr  4,Zr  1,O  17)           90.8320         0.350692   
    164. A(O  10,Zr  1,O  19)           98.7829         0.491742   
    165. A(O   8,Zr  1,O  10)           91.0024         0.437778   
    166. A(O   7,Zr  1,O  10)           65.7653         0.463133   
    167. A(Zr  2,Zr  1,O  16)          111.0405         0.355243   
    168. A(Zr  2,Zr  1,O  18)           72.8518         0.356634   
    169. A(O   8,Zr  1,O  18)           76.8789         0.484121   
    170. A(O   7,Zr  1,O  18)           94.4866         0.512846   
    171. A(O  18,Zr  1,O  19)           81.7086         0.545255   
    172. A(O   7,Zr  1,O  19)           82.0350         0.510375   
    173. A(O   8,Zr  1,O  19)          141.1335         0.481818   
    174. A(Zr  4,Zr  1,O  19)           72.7105         0.367432   
    175. A(Zr  4,Zr  1,O  18)          127.2626         0.369064   
    176. A(O  17,Zr  1,O  18)          129.8092         0.517825   
    177. A(Zr  2,Zr  1,O  17)          157.3294         0.339078   
    178. A(O   7,Zr  1,O   8)           67.9176         0.453915   
    179. A(Zr  4,Zr  1,O  16)          143.7359         0.367608   
    180. A(Zr  4,Zr  1,O   8)           95.2223         0.330124   
    181. A(Zr  4,Zr  1,O  10)           36.7845         0.336216   
    182. A(O  10,Zr  1,O  18)          159.8058         0.494103   
    183. A(O   8,Zr  1,O  17)          137.5006         0.458202   
    184. A(O  17,Zr  1,O  19)           80.6075         0.515326   
    185. A(O  16,Zr  1,O  19)          135.3874         0.542883   
    186. A(O   7,Zr  2,O   8)           68.0016         0.455055   
    187. A(O   7,Zr  2,O  23)           71.1526         0.483092   
    188. A(O   8,Zr  2,O  23)          138.8026         0.463472   
    189. A(Zr  1,Zr  2,O  20)          112.8536         0.359668   
    190. A(Zr  5,Zr  2,O  21)           95.6918         0.343141   
    191. A(O   8,Zr  2,O  22)           88.0492         0.491123   
    192. A(O  22,Zr  2,O  23)           82.2304         0.521922   
    193. A(Zr  1,Zr  2,O  22)           71.9173         0.358366   
    194. A(O  21,Zr  2,O  22)          132.1879         0.521632   
    195. A(O  20,Zr  2,O  22)           83.8875         0.556136   
    196. A(O  11,Zr  2,O  22)          155.7336         0.520805   
    197. A(Zr  5,Zr  2,O   8)           38.1570         0.325219   
    198. A(O   8,Zr  2,O  21)          133.8003         0.463221   
    199. A(Zr  1,Zr  2,O   8)           37.5573         0.321998   
    200. A(Zr  5,Zr  2,O  11)           35.4777         0.342655   
    201. A(O   7,Zr  2,O  21)          128.0833         0.482827   
    202. A(O   8,Zr  2,O  11)           67.8266         0.462505   
    203. A(Zr  1,Zr  2,Zr  5)           70.5026         0.247234   
    204. A(O  20,Zr  2,O  21)           81.5624         0.523723   
    205. A(Zr  5,Zr  2,O  23)          146.5869         0.343312   
    206. A(Zr  1,Zr  2,O  23)          101.9022         0.339844   
    207. A(Zr  5,Zr  2,O  22)          122.9248         0.362090   
    208. A(O   7,Zr  2,O  22)           83.4895         0.512192   
    209. A(O  11,Zr  2,O  23)          113.8969         0.491112   
    210. A(O  11,Zr  2,O  21)           71.0476         0.490843   
    211. A(O   7,Zr  2,O  11)           84.9381         0.482074   
    212. A(Zr  1,Zr  2,O   7)           34.6303         0.334206   
    213. A(O  21,Zr  2,O  23)           77.6454         0.491883   
    214. A(Zr  1,Zr  2,O  11)           86.5429         0.339196   
    215. A(Zr  5,Zr  2,O   7)           88.9218         0.337596   
    216. A(O   8,Zr  2,O  20)           81.7356         0.493066   
    217. A(O   7,Zr  2,O  20)          147.4835         0.514236   
    218. A(Zr  5,Zr  2,O  20)           73.2541         0.363410   
    219. A(O  20,Zr  2,O  23)          136.0981         0.524014   
    220. A(Zr  1,Zr  2,O  21)          154.6412         0.339676   
    221. A(O  11,Zr  2,O  20)           94.7324         0.522891   
    222. A(O   6,Zr  3,O  10)           85.5132         0.481186   
    223. A(O   6,Zr  3,O  25)           85.0907         0.515764   
    224. A(O   9,Zr  3,O  10)           67.8555         0.459495   
    225. A(Zr  4,Zr  3,O  10)           35.2435         0.339098   
    226. A(O  26,Zr  3,O  27)           80.8317         0.522890   
    227. A(O   6,Zr  3,O  27)          151.0964         0.517438   
    228. A(Zr  0,Zr  3,O  27)          116.5762         0.360166   
    229. A(O  24,Zr  3,O  27)          134.3033         0.522291   
    230. A(Zr  0,Zr  3,Zr  4)           70.6181         0.246486   
    231. A(O  25,Zr  3,O  26)          133.1837         0.521195   
    232. A(O  24,Zr  3,O  25)           81.7581         0.520598   
    233. A(O  10,Zr  3,O  24)          117.2742         0.485628   
    234. A(O  10,Zr  3,O  27)           91.5430         0.519631   
    235. A(O   6,Zr  3,O  26)          124.6071         0.484154   
    236. A(Zr  4,Zr  3,O  26)           97.3156         0.340992   
    237. A(Zr  0,Zr  3,O  26)          152.6813         0.339101   
    238. A(O   6,Zr  3,O   9)           68.2209         0.457608   
    239. A(O  10,Zr  3,O  25)          154.3359         0.517948   
    240. A(O   9,Zr  3,O  25)           86.4813         0.492161   
    241. A(Zr  4,Zr  3,O   9)           38.1044         0.324063   
    242. A(Zr  4,Zr  3,O  25)          120.7412         0.361149   
    243. A(Zr  0,Zr  3,O  25)           71.9341         0.359107   
    244. A(Zr  0,Zr  3,O   9)           37.7975         0.322299   
    245. A(O   9,Zr  3,O  24)          138.0908         0.461784   
    246. A(Zr  4,Zr  3,O  24)          148.9930         0.340644   
    247. A(Zr  0,Zr  3,O  24)          100.5772         0.338755   
    248. A(Zr  4,Zr  3,O   6)           88.9956         0.337825   
    249. A(O   9,Zr  3,O  26)          135.4173         0.462299   
    250. A(O  10,Zr  3,O  26)           70.9108         0.486177   
    251. A(Zr  0,Zr  3,O  10)           86.9572         0.337222   
    252. A(O  25,Zr  3,O  27)           85.3218         0.557599   
    253. A(O   9,Zr  3,O  27)           84.0234         0.493742   
    254. A(O  24,Zr  3,O  26)           76.9111         0.488630   
    255. A(Zr  0,Zr  3,O   6)           34.6195         0.335958   
    256. A(Zr  4,Zr  3,O  27)           72.7995         0.362217   
    257. A(O   6,Zr  3,O  24)           70.7768         0.483609   
    258. A(Zr  1,Zr  4,O  10)           37.5395         0.343904   
    259. A(O   9,Zr  4,O  10)           66.9899         0.445006   
    260. A(O   7,Zr  4,O  10)           65.2454         0.453915   
    261. A(Zr  3,Zr  4,O  10)           34.8249         0.334612   
    262. A(O  28,Zr  4,O  31)          126.4049         0.518606   
    263. A(O   9,Zr  4,O  28)           78.1109         0.483447   
    264. A(O   7,Zr  4,O  31)           68.7761         0.461174   
    265. A(O  30,Zr  4,O  31)           81.2548         0.513155   
    266. A(Zr  1,Zr  4,Zr  3)           71.7035         0.253680   
    267. A(Zr  1,Zr  4,O  28)          127.8356         0.371428   
    268. A(O   9,Zr  4,O  31)          136.7066         0.452088   
    269. A(O  10,Zr  4,O  30)           84.1737         0.504882   
    270. A(O   7,Zr  4,O  30)           94.5874         0.488188   
    271. A(O   9,Zr  4,O  30)          141.6084         0.478442   
    272. A(O  28,Zr  4,O  30)           81.4640         0.549789   
    273. A(Zr  3,Zr  4,O  28)           74.1647         0.361133   
    274. A(O  29,Zr  4,O  30)          136.6747         0.538337   
    275. A(Zr  1,Zr  4,O  31)           92.8045         0.348974   
    276. A(O   7,Zr  4,O  29)          108.3723         0.483270   
    277. A(Zr  3,Zr  4,O  29)          110.2155         0.354369   
    278. A(Zr  1,Zr  4,O  29)          143.5723         0.364409   
    279. A(O   7,Zr  4,O  28)          162.9016         0.493318   
    280. A(O  10,Zr  4,O  31)          130.1533         0.476738   
    281. A(O   7,Zr  4,O   9)           95.5429         0.430715   
    282. A(Zr  3,Zr  4,O   9)           37.5660         0.318997   
    283. A(O  10,Zr  4,O  28)           97.7309         0.510227   
    284. A(Zr  3,Zr  4,O   7)           91.0607         0.324752   
    285. A(Zr  1,Zr  4,O   7)           36.3904         0.333671   
    286. A(O  10,Zr  4,O  29)          138.6302         0.499758   
    287. A(O  28,Zr  4,O  29)           85.2456         0.544112   
    288. A(Zr  1,Zr  4,O  30)           71.2203         0.367845   
    289. A(O   9,Zr  4,O  29)           73.4389         0.473644   
    290. A(Zr  3,Zr  4,O  30)          105.4056         0.357680   
    291. A(O  29,Zr  4,O  31)           74.0733         0.507930   
    292. A(Zr  1,Zr  4,O   9)           96.6564         0.327698   
    293. A(Zr  3,Zr  4,O  31)          159.4022         0.339497   
    294. A(O  34,Zr  5,O  35)           83.8641         0.542135   
    295. A(O  33,Zr  5,O  35)           82.0701         0.549726   
    296. A(O  32,Zr  5,O  35)          125.7625         0.520056   
    297. A(O   8,Zr  5,O  35)           77.5638         0.484492   
    298. A(O   6,Zr  5,O  35)          163.8004         0.493638   
    299. A(Zr  2,Zr  5,O  35)           74.4056         0.362563   
    300. A(O  33,Zr  5,O  34)          136.9163         0.536529   
    301. A(O  32,Zr  5,O  34)           74.5627         0.507708   
    302. A(O  11,Zr  5,O  34)          138.2165         0.495997   
    303. A(Zr  0,Zr  5,O  35)          128.7988         0.372748   
    304. A(O  32,Zr  5,O  33)           81.2820         0.514723   
    305. A(O   6,Zr  5,O  34)          108.5284         0.482047   
    306. A(Zr  2,Zr  5,O  34)          110.2285         0.354726   
    307. A(Zr  0,Zr  5,O  34)          143.8501         0.364620   
    308. A(O  11,Zr  5,O  33)           84.2853         0.502816   
    309. A(O   8,Zr  5,O  33)          141.0426         0.479599   
    310. A(O   6,Zr  5,O  33)           94.8406         0.488632   
    311. A(Zr  0,Zr  5,O  33)           71.1551         0.369237   
    312. A(O  11,Zr  5,O  32)          130.0176         0.476166   
    313. A(O   8,Zr  5,O  32)          137.2839         0.454444   
    314. A(O   6,Zr  5,O  32)           68.9495         0.462896   
    315. A(Zr  2,Zr  5,O  32)          159.8114         0.341779   
    316. A(Zr  0,Zr  5,O  32)           92.8730         0.351190   
    317. A(Zr  2,Zr  5,O   6)           91.1766         0.326287   
    318. A(Zr  0,Zr  5,Zr  2)           71.6029         0.255395   
    319. A(Zr  0,Zr  5,O   6)           36.5548         0.335122   
    320. A(O   8,Zr  5,O  34)           73.3442         0.473163   
    321. A(O  11,Zr  5,O  35)           98.8649         0.508000   
    322. A(O   8,Zr  5,O  11)           66.7556         0.444223   
    323. A(O   6,Zr  5,O  11)           64.9584         0.452438   
    324. A(Zr  2,Zr  5,O  11)           34.7389         0.334709   
    325. A(Zr  0,Zr  5,O  11)           37.3656         0.343857   
    326. A(O   6,Zr  5,O   8)           95.6613         0.432048   
    327. A(Zr  2,Zr  5,O  33)          104.7575         0.359178   
    328. A(Zr  2,Zr  5,O   8)           37.7017         0.320923   
    329. A(Zr  0,Zr  5,O   8)           96.6970         0.329558   
    330. A(Zr  3,O   6,Zr  5)          136.8219         0.459066   
    331. A(Zr  0,O   6,Zr  5)          105.5747         0.459162   
    332. A(Zr  0,O   6,Zr  3)          110.7551         0.479290   
    333. A(Zr  2,O   7,Zr  4)          136.7238         0.456334   
    334. A(Zr  1,O   7,Zr  4)          105.8516         0.459283   
    335. A(Zr  1,O   7,Zr  2)          110.5564         0.477326   
    336. A(Zr  1,O   8,Zr  2)          105.1567         0.432986   
    337. A(Zr  2,O   8,Zr  5)          104.1413         0.430505   
    338. A(Zr  1,O   8,Zr  5)          130.9837         0.426730   
    339. A(Zr  3,O   9,Zr  4)          104.3297         0.429716   
    340. A(Zr  0,O   9,Zr  4)          130.8765         0.423474   
    341. A(Zr  0,O   9,Zr  3)          104.8580         0.430842   
    342. A(Zr  4,O   9,H  70)          107.5531         0.174189   
    343. A(Zr  3,O   9,H  70)           99.7190         0.176065   
    344. A(Zr  0,O   9,H  70)          105.3656         0.174470   
    345. A(Zr  3,O  10,Zr  4)          109.9316         0.476121   
    346. A(Zr  1,O  10,Zr  4)          105.6760         0.457709   
    347. A(Zr  1,O  10,Zr  3)          141.6728         0.464445   
    348. A(Zr  2,O  11,Zr  5)          109.7835         0.477509   
    349. A(Zr  0,O  11,Zr  5)          105.6433         0.459675   
    350. A(Zr  0,O  11,Zr  2)          142.4725         0.471664   
    351. A(Zr  0,O  12,C  36)          124.9475         0.499962   
    352. A(Zr  0,O  13,C  37)          127.7326         0.506591   
    353. A(H  63,O  13,H  70)           74.8535         0.101805   
    354. A(C  37,O  13,H  63)          131.9077         0.151073   
    355. A(Zr  0,O  13,H  63)           97.7959         0.157961   
    356. A(C  37,O  13,H  70)           78.6010         0.166538   
    357. A(Zr  0,O  13,H  70)          105.0299         0.175141   
    358. A(Zr  0,O  14,C  38)          133.9318         0.475391   
    359. A(Zr  0,O  15,C  39)          139.3966         0.507776   
    360. A(C  39,O  15,H  63)          101.0025         0.164654   
    361. A(Zr  0,O  15,H  63)          105.5830         0.172440   
    362. A(Zr  1,O  16,C  40)          138.3340         0.504242   
    363. A(Zr  1,O  17,C  41)          133.1261         0.478327   
    364. A(Zr  1,O  18,C  42)          128.0499         0.504326   
    365. A(Zr  1,O  19,C  43)          125.4445         0.501580   
    366. A(Zr  2,O  20,C  44)          132.5578         0.509653   
    367. A(Zr  2,O  21,C  38)          139.3093         0.479007   
    368. A(Zr  2,O  22,C  42)          130.0646         0.506977   
    369. A(Zr  2,O  23,C  45)          137.1639         0.478438   
    370. A(Zr  3,O  24,C  46)          138.6142         0.476774   
    371. A(Zr  3,O  25,C  37)          131.7862         0.507911   
    372. A(C  37,O  25,H  70)           63.6189         0.145627   
    373. A(Zr  3,O  25,H  70)           87.3252         0.152097   
    374. A(Zr  3,O  26,C  41)          139.5792         0.477770   
    375. A(C  47,O  27,H  70)           67.3292         0.151765   
    376. A(Zr  3,O  27,H  70)           90.9408         0.159146   
    377. A(Zr  3,O  27,C  47)          132.7029         0.509937   
    378. A(H  65,O  28,H  70)           72.8142         0.101249   
    379. A(C  47,O  28,H  65)          124.6554         0.154308   
    380. A(Zr  4,O  28,H  65)          100.0078         0.161703   
    381. A(C  47,O  28,H  70)           72.9278         0.159636   
    382. A(Zr  4,O  28,H  70)          103.4178         0.167634   
    383. A(Zr  4,O  28,C  47)          129.4917         0.508241   
    384. A(Zr  4,O  29,C  39)          139.4605         0.499399   
    385. A(C  39,O  29,H  65)          103.4891         0.166281   
    386. A(Zr  4,O  29,H  65)          105.9612         0.172571   
    387. A(Zr  4,O  30,C  43)          126.9087         0.502053   
    388. A(Zr  4,O  31,C  45)          129.0842         0.475329   
    389. A(Zr  5,O  32,C  46)          130.0954         0.476880   
    390. A(Zr  5,O  33,C  36)          126.5269         0.501999   
    391. A(Zr  5,O  34,C  40)          140.0244         0.497650   
    392. A(Zr  5,O  35,C  44)          130.5996         0.508400   
    393. A(O  12,C  36,O  33)          126.5283         0.463970   
    394. A(O  33,C  36,H  58)          116.7407         0.363482   
    395. A(O  12,C  36,H  58)          116.7301         0.363567   
    396. A(O  13,C  37,O  25)          127.3980         0.464923   
    397. A(H  51,C  37,H  70)          108.2658         0.144508   
    398. A(O  25,C  37,H  70)           90.2071         0.164828   
    399. A(O  13,C  37,H  70)           72.5366         0.164820   
    400. A(O  25,C  37,H  51)          116.2520         0.364214   
    401. A(O  13,C  37,H  51)          116.3352         0.364186   
    402. A(O  14,C  38,O  21)          130.0711         0.467020   
    403. A(O  21,C  38,H  50)          114.9387         0.366288   
    404. A(O  14,C  38,H  50)          114.9871         0.366452   
    405. A(O  15,C  39,O  29)          128.8993         0.468604   
    406. A(H  54,C  39,H  64)           55.4328         0.134569   
    407. A(O  29,C  39,H  64)          103.3973         0.151293   
    408. A(O  15,C  39,H  64)          105.2220         0.151309   
    409. A(O  29,C  39,H  54)          115.5639         0.366620   
    410. A(O  15,C  39,H  54)          115.5356         0.366689   
    411. A(O  16,C  40,O  34)          128.8638         0.468526   
    412. A(O  34,C  40,H  56)          115.5752         0.366608   
    413. A(O  16,C  40,H  56)          115.5536         0.366700   
    414. A(O  17,C  41,O  26)          129.9432         0.466982   
    415. A(O  26,C  41,H  48)          114.9915         0.366187   
    416. A(O  17,C  41,H  48)          115.0632         0.366406   
    417. A(O  18,C  42,O  22)          127.4031         0.464832   
    418. A(O  22,C  42,H  49)          116.3007         0.364140   
    419. A(O  18,C  42,H  49)          116.2961         0.364164   
    420. A(O  30,C  43,H  52)          116.6988         0.363579   
    421. A(O  19,C  43,H  52)          116.6901         0.363672   
    422. A(O  19,C  43,O  30)          126.6104         0.464147   
    423. A(O  35,C  44,H  59)          116.1884         0.364848   
    424. A(O  20,C  44,H  59)          116.2096         0.364818   
    425. A(O  20,C  44,O  35)          127.6019         0.466015   
    426. A(O  31,C  45,H  55)          115.0375         0.365798   
    427. A(O  23,C  45,H  55)          115.1321         0.365348   
    428. A(O  23,C  45,O  31)          129.8280         0.465803   
    429. A(O  32,C  46,H  57)          115.0688         0.366028   
    430. A(O  24,C  46,H  57)          115.0455         0.365685   
    431. A(O  24,C  46,O  32)          129.8857         0.466257   
    432. A(H  53,C  47,H  70)          106.7485         0.145726   
    433. A(O  28,C  47,H  70)           78.7198         0.166518   
    434. A(O  27,C  47,H  70)           85.3885         0.166523   
    435. A(O  28,C  47,H  53)          116.2928         0.364586   
    436. A(O  27,C  47,H  53)          116.2569         0.364603   
    437. A(O  27,C  47,O  28)          127.4330         0.465623   
    438. A(C  39,H  54,H  63)           81.2113         0.109952   
    439. A(H  63,H  54,H  64)           53.7518         0.092747   
    440. A(C  39,H  54,H  64)          103.0358         0.125324   
    441. A(Al 68,Al 60,H  71)          118.5304         0.402311   
    442. A(H  66,Al 60,H  71)           99.4584         0.360324   
    443. A(H  65,Al 60,H  71)          125.7409         0.375276   
    444. A(H  64,Al 60,H  71)          101.9001         0.360546   
    445. A(Al 61,Al 60,H  71)          101.5320         0.393946   
    446. A(H  66,Al 60,Al 68)           35.5809         0.385636   
    447. A(H  65,Al 60,Al 68)          108.1033         0.401983   
    448. A(H  64,Al 60,Al 68)           90.2536         0.385879   
    449. A(Al 61,Al 60,Al 68)           59.5398         0.422395   
    450. A(H  65,Al 60,H  66)          103.1069         0.360041   
    451. A(H  64,Al 60,H  66)          124.8980         0.346095   
    452. A(Al 61,Al 60,H  66)           91.4627         0.377717   
    453. A(H  64,Al 60,H  65)          104.1372         0.360263   
    454. A(Al 61,Al 60,H  65)          126.1803         0.393628   
    455. A(Al 61,Al 60,H  64)           34.6689         0.377954   
    456. A(H  67,Al 61,Al 68)          117.1302         0.403014   
    457. A(H  64,Al 61,Al 68)           90.3482         0.386577   
    458. A(H  63,Al 61,Al 68)          109.9453         0.402585   
    459. A(H  62,Al 61,Al 68)           35.6422         0.386181   
    460. A(Al 60,Al 61,Al 68)           59.6347         0.423129   
    461. A(H  64,Al 61,H  67)          102.0172         0.360600   
    462. A(H  63,Al 61,H  67)          125.8092         0.375210   
    463. A(H  62,Al 61,H  67)           99.6933         0.360238   
    464. A(Al 60,Al 61,H  67)          100.8157         0.393960   
    465. A(H  63,Al 61,H  64)          103.0192         0.360228   
    466. A(H  62,Al 61,H  64)          125.4571         0.346040   
    467. A(Al 60,Al 61,H  64)           34.6732         0.377997   
    468. A(H  62,Al 61,H  63)          103.4010         0.359867   
    469. A(Al 60,Al 61,H  63)          126.0919         0.393543   
    470. A(Al 60,Al 61,H  62)           92.3214         0.377613   
    471. A(Al 61,H  62,Al 68)          108.6165         0.346561   
    472. A(O  13,H  63,H  54)           95.9620         0.093707   
    473. A(O  15,H  63,H  54)           40.2561         0.094708   
    474. A(H  54,H  63,Al 61)           89.0659         0.113856   
    475. A(O  13,H  63,O  15)           59.9671         0.101431   
    476. A(O  13,H  63,Al 61)          111.5742         0.143128   
    477. A(O  15,H  63,Al 61)          117.4752         0.154638   
    478. A(C  39,H  64,H  54)           21.5314         0.097150   
    479. A(C  39,H  64,Al 61)          103.3984         0.140300   
    480. A(C  39,H  64,Al 60)          103.6776         0.140293   
    481. A(H  54,H  64,Al 61)          113.8081         0.129892   
    482. A(H  54,H  64,Al 60)          114.3549         0.129886   
    483. A(Al 60,H  64,Al 61)          110.6579         0.346344   
    484. A(O  28,H  65,O  29)           60.3259         0.102350   
    485. A(O  28,H  65,Al 60)          116.8052         0.145911   
    486. A(O  29,H  65,Al 60)          116.9482         0.156085   
    487. A(Al 60,H  66,Al 68)          108.7645         0.346528   
    488. A(H  69,Al 68,H  70)          133.3349         0.375855   
    489. A(H  66,Al 68,H  70)          104.1514         0.361198   
    490. A(H  62,Al 68,H  70)          103.2547         0.361331   
    491. A(Al 61,Al 68,H  70)           86.4374         0.403224   
    492. A(Al 60,Al 68,H  70)           86.0647         0.402534   
    493. A(H  66,Al 68,H  69)          100.0953         0.361075   
    494. A(H  62,Al 68,H  69)           99.5512         0.361208   
    495. A(Al 61,Al 68,H  69)          131.6451         0.403082   
    496. A(Al 60,Al 68,H  69)          132.5394         0.402392   
    497. A(H  62,Al 68,H  66)          117.9022         0.347299   
    498. A(Al 61,Al 68,H  66)           92.7621         0.387034   
    499. A(Al 60,Al 68,H  66)           35.6547         0.386379   
    500. A(Al 61,Al 68,H  62)           35.7413         0.387179   
    501. A(Al 60,Al 68,H  62)           93.5636         0.386525   
    502. A(Al 60,Al 68,Al 61)           60.8255         0.432293   
    503. A(O  25,H  70,O  28)           99.8843         0.099630   
    504. A(O  25,H  70,C  37)           26.1740         0.100421   
    505. A(O  25,H  70,C  47)           82.4260         0.100666   
    506. A(O  13,H  70,O  25)           49.4092         0.100680   
    507. A(O   9,H  70,O  25)           63.1022         0.102626   
    508. A(O  25,H  70,Al 68)          113.6449         0.138475   
    509. A(O  27,H  70,O  28)           49.9626         0.100772   
    510. A(O  27,H  70,C  37)           81.3335         0.101648   
    511. A(O  27,H  70,C  47)           27.2822         0.101919   
    512. A(O  13,H  70,O  27)          100.1637         0.101934   
    513. A(O   9,H  70,O  27)           63.4036         0.104089   
    514. A(O  27,H  70,Al 68)          113.3460         0.143788   
    515. A(O  28,H  70,C  37)          123.7345         0.103234   
    516. A(O  28,H  70,C  47)           28.3524         0.103539   
    517. A(O  13,H  70,O  28)          124.9412         0.103557   
    518. A(O   9,H  70,O  28)           61.9997         0.105982   
    519. A(O  28,H  70,Al 68)          117.8018         0.150661   
    520. A(C  37,H  70,C  47)          108.5999         0.104621   
    521. A(O  13,H  70,C  37)           28.8624         0.104640   
    522. A(O   9,H  70,C  37)           72.6692         0.107246   
    523. A(O  25,H  70,O  27)           55.1625         0.098445   
    524. A(C  37,H  70,Al 68)          105.2752         0.155250   
    525. A(O  13,H  70,C  47)          124.6982         0.104975   
    526. A(O   9,H  70,C  47)           72.2678         0.107637   
    527. A(C  47,H  70,Al 68)          105.7669         0.156669   
    528. A(O   9,H  70,O  13)           63.1453         0.107660   
    529. A(O  13,H  70,Al 68)          116.5989         0.156751   
    530. D(Zr  5,Zr  2,Zr  1,O   7)    118.5249         0.010000   
    531. D(O   7,Zr  2,Zr  1,Zr  4)    -15.1859         0.010000   
    532. D(Zr  5,Zr  2,Zr  1,Zr  4)    103.3390         0.010000   
    533. D(Zr  4,Zr  3,Zr  0,O   6)   -118.4823         0.010000   
    534. D(O   6,Zr  3,Zr  0,Zr  5)     15.1957         0.010000   
    535. D(Zr  4,Zr  3,Zr  0,Zr  5)   -103.2866         0.010000   
    536. D(O   7,Zr  4,Zr  1,Zr  2)     14.1364         0.010000   
    537. D(Zr  3,Zr  4,Zr  1,Zr  2)   -104.6472         0.010000   
    538. D(Zr  3,Zr  4,Zr  1,O   7)   -118.7836         0.010000   
    539. D(O   7,Zr  4,Zr  3,Zr  0)     73.0652         0.010000   
    540. D(Zr  1,Zr  4,Zr  3,O   6)     74.4394         0.010000   
    541. D(Zr  1,Zr  4,Zr  3,Zr  0)    104.4022         0.010000   
    542. D(O   6,Zr  5,Zr  0,Zr  3)    -14.0410         0.010000   
    543. D(Zr  2,Zr  5,Zr  0,Zr  3)    104.9660         0.010000   
    544. D(Zr  0,Zr  5,Zr  2,Zr  1)   -104.7261         0.010000   
    545. D(Zr  2,Zr  5,Zr  0,O   6)    119.0070         0.010000   
    546. D(O   6,Zr  5,Zr  2,Zr  1)    -73.3274         0.010000   
    547. D(Zr  0,Zr  5,Zr  2,O   7)    -74.7668         0.010000   
    548. D(Zr  5,O   6,Zr  3,Zr  0)   -145.4349         0.010000   
    549. D(Zr  0,O   6,Zr  5,O   8)    -93.6156         0.010000   
    550. D(Zr  0,O   6,Zr  5,Zr  2)    -56.1027         0.010000   
    551. D(Zr  0,O   6,Zr  3,O   9)     23.2174         0.010000   
    552. D(Zr  3,O   6,Zr  5,Zr  0)    146.5818         0.010000   
    553. D(Zr  5,O   6,Zr  0,Zr  3)    156.2333         0.010000   
    554. D(Zr  3,O   6,Zr  0,Zr  5)   -156.2333         0.010000   
    555. D(Zr  3,O   6,Zr  0,O   9)    -23.0377         0.010000   
    556. D(Zr  0,O   6,Zr  3,Zr  4)     56.0247         0.010000   
    557. D(Zr  2,O   7,Zr  1,O   8)     23.0003         0.010000   
    558. D(Zr  1,O   7,Zr  2,O   8)    -23.1368         0.010000   
    559. D(Zr  1,O   7,Zr  2,Zr  5)    -55.9321         0.010000   
    560. D(Zr  4,O   7,Zr  1,Zr  2)   -156.1755         0.010000   
    561. D(Zr  2,O   7,Zr  1,Zr  4)    156.1755         0.010000   
    562. D(Zr  2,O   7,Zr  4,Zr  1)   -146.5146         0.010000   
    563. D(Zr  1,O   7,Zr  4,O   9)     93.7051         0.010000   
    564. D(Zr  1,O   7,Zr  4,Zr  3)     56.3335         0.010000   
    565. D(Zr  4,O   7,Zr  2,Zr  1)    145.4701         0.010000   
    566. D(Zr  1,O   8,Zr  5,Zr  0)    -77.3593         0.010000   
    567. D(Zr  1,O   8,Zr  2,O   7)     21.4889         0.010000   
    568. D(Zr  5,O   8,Zr  2,Zr  1)   -140.2610         0.010000   
    569. D(Zr  1,O   8,Zr  5,Zr  2)   -125.1744         0.010000   
    570. D(Zr  1,O   8,Zr  2,Zr  5)    140.2610         0.010000   
    571. D(Zr  2,O   8,Zr  5,Zr  0)     47.8150         0.010000   
    572. D(Zr  2,O   8,Zr  1,Zr  4)    -48.2482         0.010000   
    573. D(Zr  5,O   8,Zr  1,Zr  2)    124.7951         0.010000   
    574. D(Zr  2,O   8,Zr  1,O   7)    -21.6066         0.010000   
    575. D(Zr  3,O   9,Zr  4,Zr  1)    -47.9221         0.010000   
    576. D(Zr  0,O   9,Zr  4,Zr  3)    124.8279         0.010000   
    577. D(Zr  4,O   9,Zr  3,Zr  0)    140.0477         0.010000   
    578. D(Zr  0,O   9,Zr  3,Zr  4)   -140.0477         0.010000   
    579. D(Zr  0,O   9,Zr  4,Zr  1)     76.9059         0.010000   
    580. D(Zr  4,O   9,Zr  0,Zr  3)   -124.6295         0.010000   
    581. D(Zr  3,O   9,Zr  0,O   6)     21.5039         0.010000   
    582. D(Zr  0,O   9,Zr  3,O   6)    -21.4345         0.010000   
    583. D(Zr  3,O   9,Zr  0,Zr  5)     48.2084         0.010000   
    584. D(Zr  1,O  10,Zr  4,Zr  3)   -165.5731         0.010000   
    585. D(Zr  1,O  10,Zr  4,O   7)    -31.2646         0.010000   
    586. D(Zr  4,O  10,Zr  1,Zr  2)     60.2443         0.010000   
    587. D(Zr  1,O  10,Zr  3,Zr  4)    157.2441         0.010000   
    588. D(Zr  1,O  10,Zr  3,Zr  0)     97.2891         0.010000   
    589. D(Zr  3,O  10,Zr  1,Zr  4)   -157.8097         0.010000   
    590. D(Zr  4,O  10,Zr  3,Zr  0)    -59.9551         0.010000   
    591. D(Zr  3,O  10,Zr  4,Zr  1)    165.5731         0.010000   
    592. D(Zr  3,O  10,Zr  1,Zr  2)    -97.5654         0.010000   
    593. D(Zr  2,O  11,Zr  5,Zr  0)   -167.4076         0.010000   
    594. D(Zr  0,O  11,Zr  5,Zr  2)    167.4076         0.010000   
    595. D(Zr  5,O  11,Zr  2,Zr  1)     60.5702         0.010000   
    596. D(Zr  0,O  11,Zr  2,Zr  5)   -159.8399         0.010000   
    597. D(Zr  0,O  11,Zr  2,Zr  1)    -99.2697         0.010000   
    598. D(Zr  5,O  11,Zr  0,Zr  3)    -60.8126         0.010000   
    599. D(Zr  0,O  11,Zr  5,O   6)     31.8865         0.010000   
    600. D(Zr  2,O  11,Zr  0,Zr  5)    160.3193         0.010000   
    601. D(Zr  2,O  11,Zr  0,Zr  3)     99.5067         0.010000   
    602. D(C  36,O  12,Zr  0,Zr  5)     33.2698         0.010000   
    603. D(C  36,O  12,Zr  0,Zr  3)     97.1565         0.010000   
    604. D(H  70,O  13,Zr  0,Zr  3)    -61.7220         0.010000   
    605. D(C  37,O  13,Zr  0,Zr  5)    -22.9038         0.010000   
    606. D(C  37,O  13,Zr  0,Zr  3)     25.3557         0.010000   
    607. D(C  38,O  14,Zr  0,Zr  5)     68.8030         0.010000   
    608. D(C  38,O  14,Zr  0,Zr  3)     37.2652         0.010000   
    609. D(H  63,O  15,Zr  0,Zr  3)     98.4068         0.010000   
    610. D(C  39,O  15,Zr  0,Zr  5)     55.3875         0.010000   
    611. D(C  39,O  15,Zr  0,Zr  3)    -30.6271         0.010000   
    612. D(C  40,O  16,Zr  1,Zr  4)    -56.0517         0.010000   
    613. D(C  40,O  16,Zr  1,Zr  2)     29.8115         0.010000   
    614. D(C  41,O  17,Zr  1,Zr  4)    -70.9085         0.010000   
    615. D(C  41,O  17,Zr  1,Zr  2)    -35.9642         0.010000   
    616. D(C  42,O  18,Zr  1,Zr  4)     22.0279         0.010000   
    617. D(C  42,O  18,Zr  1,Zr  2)    -26.0771         0.010000   
    618. D(C  43,O  19,Zr  1,Zr  4)    -32.2138         0.010000   
    619. D(C  43,O  19,Zr  1,Zr  2)    -95.9484         0.010000   
    620. D(C  44,O  20,Zr  2,Zr  5)     10.1641         0.010000   
    621. D(C  44,O  20,Zr  2,Zr  1)    -49.5013         0.010000   
    622. D(C  38,O  21,Zr  2,Zr  5)    -30.3123         0.010000   
    623. D(C  38,O  21,Zr  2,Zr  1)     24.7369         0.010000   
    624. D(C  42,O  22,Zr  2,Zr  5)     25.6800         0.010000   
    625. D(C  42,O  22,Zr  2,Zr  1)    -25.2905         0.010000   
    626. D(C  45,O  23,Zr  2,Zr  5)    -68.7646         0.010000   
    627. D(C  45,O  23,Zr  2,Zr  1)      3.7823         0.010000   
    628. D(C  46,O  24,Zr  3,Zr  4)     56.5598         0.010000   
    629. D(C  46,O  24,Zr  3,Zr  0)    -13.2790         0.010000   
    630. D(H  70,O  25,Zr  3,Zr  0)     69.4527         0.010000   
    631. D(C  37,O  25,Zr  3,Zr  4)    -34.0008         0.010000   
    632. D(C  37,O  25,Zr  3,Zr  0)     19.1194         0.010000   
    633. D(C  41,O  26,Zr  3,Zr  0)    -36.7349         0.010000   
    634. D(C  41,O  26,Zr  3,Zr  4)     24.5462         0.010000   
    635. D(H  70,O  27,Zr  3,Zr  0)    -13.6016         0.010000   
    636. D(C  47,O  27,Zr  3,Zr  4)    -11.3171         0.010000   
    637. D(C  47,O  27,Zr  3,Zr  0)     45.7744         0.010000   
    638. D(H  70,O  28,Zr  4,Zr  1)    111.5595         0.010000   
    639. D(C  47,O  28,Zr  4,Zr  1)     32.7750         0.010000   
    640. D(C  47,O  28,Zr  4,Zr  3)    -17.9184         0.010000   
    641. D(H  65,O  29,Zr  4,Zr  1)    177.1629         0.010000   
    642. D(C  39,O  29,Zr  4,Zr  3)     38.5151         0.010000   
    643. D(C  39,O  29,Zr  4,Zr  1)    -47.7909         0.010000   
    644. D(C  43,O  30,Zr  4,Zr  3)    -98.7949         0.010000   
    645. D(C  43,O  30,Zr  4,Zr  1)    -34.7484         0.010000   
    646. D(C  45,O  31,Zr  4,Zr  3)    -34.8951         0.010000   
    647. D(C  45,O  31,Zr  4,Zr  1)    -75.1591         0.010000   
    648. D(C  46,O  32,Zr  5,Zr  2)     35.4978         0.010000   
    649. D(C  46,O  32,Zr  5,Zr  0)     74.3143         0.010000   
    650. D(C  36,O  33,Zr  5,Zr  2)     99.9732         0.010000   
    651. D(C  36,O  33,Zr  5,Zr  0)     35.7431         0.010000   
    652. D(C  40,O  34,Zr  5,Zr  0)     57.7284         0.010000   
    653. D(C  40,O  34,Zr  5,Zr  2)    -28.5006         0.010000   
    654. D(C  44,O  35,Zr  5,Zr  0)    -38.8460         0.010000   
    655. D(C  44,O  35,Zr  5,Zr  2)     11.0016         0.010000   
    656. D(O  33,C  36,O  12,Zr  0)    -22.5386         0.045710   
    657. D(H  58,C  36,O  33,Zr  5)    153.2922         0.045570   
    658. D(O  12,C  36,O  33,Zr  5)    -27.0677         0.045570   
    659. D(H  58,C  36,O  12,Zr  0)    157.1016         0.045710   
    660. D(H  51,C  37,O  25,Zr  3)    169.6925         0.055695   
    661. D(O  13,C  37,O  25,H  70)    -67.9765         0.055695   
    662. D(O  13,C  37,O  25,Zr  3)     -8.8481         0.055695   
    663. D(H  51,C  37,O  13,Zr  0)    157.5440         0.059920   
    664. D(O  25,C  37,O  13,H  70)     76.3647         0.059920   
    665. D(O  25,C  37,O  13,Zr  0)    -23.9165         0.059920   
    666. D(H  50,C  38,O  21,Zr  2)    169.4215         0.047359   
    667. D(O  14,C  38,O  21,Zr  2)     -9.8847         0.047359   
    668. D(H  50,C  38,O  14,Zr  0)    164.0240         0.047637   
    669. D(O  21,C  38,O  14,Zr  0)    -16.6700         0.047637   
    670. D(H  54,C  39,O  29,Zr  4)    171.2039         0.058351   
    671. D(O  15,C  39,O  29,H  65)    127.3254         0.058351   
    672. D(O  15,C  39,O  29,Zr  4)     -8.3623         0.058351   
    673. D(H  54,C  39,O  15,Zr  0)   -176.5406         0.058494   
    674. D(O  29,C  39,O  15,H  63)   -127.3130         0.058494   
    675. D(O  29,C  39,O  15,Zr  0)      3.0257         0.058494   
    676. D(H  56,C  40,O  34,Zr  5)    172.6822         0.048360   
    677. D(O  16,C  40,O  34,Zr  5)     -8.3575         0.048360   
    678. D(H  56,C  40,O  16,Zr  1)   -173.6091         0.048518   
    679. D(O  34,C  40,O  16,Zr  1)      7.4305         0.048518   
    680. D(H  48,C  41,O  26,Zr  3)   -165.9738         0.047290   
    681. D(O  17,C  41,O  26,Zr  3)     13.4776         0.047290   
    682. D(H  48,C  41,O  17,Zr  1)   -162.0732         0.047660   
    683. D(O  26,C  41,O  17,Zr  1)     18.4757         0.047660   
    684. D(H  49,C  42,O  22,Zr  2)   -162.2511         0.046139   
    685. D(O  18,C  42,O  22,Zr  2)     17.6296         0.046139   
    686. D(H  49,C  42,O  18,Zr  1)   -159.8808         0.046179   
    687. D(O  22,C  42,O  18,Zr  1)     20.2385         0.046179   
    688. D(H  52,C  43,O  30,Zr  4)   -153.7493         0.045670   
    689. D(O  19,C  43,O  30,Zr  4)     26.5475         0.045670   
    690. D(H  52,C  43,O  19,Zr  1)   -157.9678         0.045822   
    691. D(O  30,C  43,O  19,Zr  1)     21.7353         0.045822   
    692. D(H  59,C  44,O  35,Zr  5)    171.2233         0.046905   
    693. D(O  20,C  44,O  35,Zr  5)     -8.9041         0.046905   
    694. D(H  59,C  44,O  20,Zr  2)    173.1387         0.046853   
    695. D(O  35,C  44,O  20,Zr  2)     -6.7339         0.046853   
    696. D(H  55,C  45,O  31,Zr  4)   -163.8116         0.047125   
    697. D(O  23,C  45,O  31,Zr  4)     15.5879         0.047125   
    698. D(H  55,C  45,O  23,Zr  2)   -147.9924         0.046376   
    699. D(O  31,C  45,O  23,Zr  2)     32.6085         0.046376   
    700. D(H  57,C  46,O  32,Zr  5)    161.4368         0.047316   
    701. D(O  24,C  46,O  32,Zr  5)    -18.6226         0.047316   
    702. D(H  57,C  46,O  24,Zr  3)    157.5086         0.046741   
    703. D(O  32,C  46,O  24,Zr  3)    -22.4320         0.046741   
    704. D(H  53,C  47,O  28,Zr  4)   -163.2256         0.060488   
    705. D(O  27,C  47,O  28,H  70)    -75.1716         0.060488   
    706. D(O  27,C  47,O  28,Zr  4)     18.3524         0.060488   
    707. D(H  53,C  47,O  27,Zr  3)   -175.2357         0.056199   
    708. D(O  28,C  47,O  27,H  70)     72.0083         0.056199   
    709. D(O  28,C  47,O  27,Zr  3)      3.1868         0.056199   
    710. D(H  63,H  54,C  39,O  15)    -41.9231         0.136955   
    711. D(H  64,H  54,C  39,O  29)     88.9874         0.136955   
    712. D(H  64,H  54,C  39,O  15)    -91.3867         0.136955   
    713. D(H  63,Al 61,Al 60,H  64)    -55.6801         0.010000   
    714. D(H  62,Al 61,Al 60,H  65)   -105.8385         0.010000   
    715. D(H  62,Al 61,Al 60,H  64)   -164.1375         0.010000   
    716. D(Al 68,H  62,Al 61,H  63)   -105.6353         0.010000   
    717. D(Al 68,H  62,Al 61,Al 60)     22.3694         0.010000   
    718. D(O  13,H  63,Al 61,Al 60)    -71.7882         0.010000   
    719. D(O  15,H  63,Al 61,Al 60)     -5.4292         0.010000   
    720. D(O  15,H  63,H  54,C  39)     27.6109         0.010000   
    721. D(Al 61,H  63,H  54,H  64)      3.7975         0.010000   
    722. D(Al 61,H  63,H  54,C  39)   -109.5538         0.010000   
    723. D(O  13,H  63,O  15,Zr  0)    -21.7755         0.010000   
    724. D(Al 61,H  63,O  15,C  39)     26.9678         0.010000   
    725. D(Al 61,H  63,O  15,Zr  0)   -122.0344         0.010000   
    726. D(O  15,H  63,O  13,Zr  0)     21.1711         0.010000   
    727. D(O  15,H  63,Al 61,H  62)     97.5862         0.010000   
    728. D(Al 61,H  63,O  13,C  37)    -31.0153         0.010000   
    729. D(Al 61,H  63,O  13,Zr  0)    131.3205         0.010000   
    730. D(H  54,H  64,Al 61,Al 60)   -130.3963         0.010000   
    731. D(Al 60,H  64,Al 61,H  63)    136.7646         0.010000   
    732. D(Al 60,H  64,Al 61,H  62)     19.5899         0.010000   
    733. D(H  54,H  64,Al 60,Al 61)    130.1076         0.010000   
    734. D(Al 61,H  64,Al 60,H  66)    -17.4726         0.010000   
    735. D(Al 61,H  64,Al 60,H  65)   -134.9127         0.010000   
    736. D(Al 61,H  64,H  54,C  39)     64.6462         0.010000   
    737. D(Al 60,H  64,H  54,H  63)   -132.5296         0.010000   
    738. D(Al 60,H  64,H  54,C  39)    -63.8892         0.010000   
    739. D(Al 61,H  64,C  39,O  15)    -11.0021         0.010000   
    740. D(Al 60,H  64,C  39,O  29)     10.6595         0.010000   
    741. D(Al 60,H  64,C  39,O  15)   -126.5467         0.010000   
    742. D(O  28,H  65,Al 60,Al 61)     70.0630         0.010000   
    743. D(O  29,H  65,Al 60,H  64)     31.4324         0.010000   
    744. D(O  29,H  65,Al 60,Al 61)      1.4933         0.010000   
    745. D(O  28,H  65,O  29,Zr  4)     20.4445         0.010000   
    746. D(Al 60,H  65,O  29,C  39)    -24.3625         0.010000   
    747. D(Al 60,H  65,O  29,Zr  4)    127.4566         0.010000   
    748. D(O  29,H  65,O  28,Zr  4)    -20.2578         0.010000   
    749. D(Al 60,H  65,O  28,C  47)     27.5976         0.010000   
    750. D(Al 60,H  65,O  28,Zr  4)   -127.5051         0.010000   
    751. D(Al 68,H  66,Al 60,H  64)    -15.0381         0.010000   
    752. D(Al 68,H  66,Al 60,Al 61)    -24.8752         0.010000   
    753. D(H  62,Al 68,H  66,Al 60)     51.8677         0.010000   
    754. D(H  66,Al 68,H  62,Al 61)    -50.0260         0.010000   
    755. D(Al 60,Al 68,H  62,Al 61)    -22.6784         0.010000   
    756. D(H  62,Al 68,Al 61,Al 60)   -153.8500         0.010000   
    757. D(Al 60,Al 68,Al 61,H  63)   -120.9102         0.010000   
    758. D(Al 60,Al 68,Al 61,H  62)    153.8500         0.010000   
    759. D(H  62,Al 68,Al 60,Al 61)     14.9477         0.010000   
    760. D(Al 61,Al 68,Al 60,H  65)    121.8877         0.010000   
    761. D(Al 61,Al 68,Al 60,H  64)     16.9117         0.010000   
    762. D(Al 61,Al 68,O   9,Zr  0)     42.1328         0.010000   
    763. D(Al 61,Al 68,H  66,Al 60)     25.2422         0.010000   
    764. D(Al 60,Al 68,O   9,Zr  3)   -148.9423         0.010000   
    765. D(Al 60,Al 68,O   9,Zr  0)    102.9904         0.010000   
    766. D(O   9,H  70,C  37,O  13)     65.5332         0.010000   
    767. D(Al 68,H  70,C  37,O  25)    112.7610         0.010000   
    768. D(Al 68,H  70,C  37,O  13)   -117.7774         0.010000   
    769. D(Al 68,H  70,O  28,C  47)    -70.7145         0.010000   
    770. D(Al 68,H  70,O  28,Zr  4)    161.6464         0.010000   
    771. D(O   9,H  70,O  27,Zr  3)     33.5755         0.010000   
    772. D(Al 68,H  70,O  27,C  47)     78.9758         0.010000   
    773. D(Al 68,H  70,O  27,Zr  3)   -144.2865         0.010000   
    774. D(O   9,H  70,O  25,Zr  3)    -34.2030         0.010000   
    775. D(Al 68,H  70,O  25,C  37)    -76.1851         0.010000   
    776. D(Al 68,H  70,O  25,Zr  3)    143.6584         0.010000   
    777. D(O   9,H  70,O  13,Zr  0)     23.2016         0.010000   
    778. D(Al 68,H  70,O  13,C  37)     72.6561         0.010000   
    779. D(O   9,H  70,O  28,Zr  4)    -22.6299         0.010000   
    780. D(Al 68,H  70,O  13,Zr  0)   -161.0257         0.010000   
    781. D(C  47,H  70,O   9,Zr  0)   -167.3389         0.010000   
    782. D(O  13,H  70,O   9,Zr  3)     87.4187         0.010000   
    783. D(Al 68,H  70,C  47,O  27)   -110.5415         0.010000   
    784. D(O  13,H  70,O   9,Zr  0)    -21.0550         0.010000   
    785. D(C  47,H  70,Al 68,Al 60)    -90.9895         0.010440   
    786. D(O  13,H  70,Al 68,Al 61)     64.6335         0.010440   
    787. D(O  13,H  70,Al 68,Al 60)    125.6023         0.010440   
    788. D(O   9,H  70,C  47,O  27)     66.0812         0.010000   
    789. D(Al 68,H  70,C  47,O  28)    119.8225         0.010000   
    -----------------------------------------------------------------

Number of atoms                         .... 72
Number of degrees of freedom            .... 789


         *************************************************************
         *                GEOMETRY OPTIMIZATION CYCLE   1            *
         *************************************************************
---------------------------------
CARTESIAN COORDINATES (ANGSTROEM)
---------------------------------
  Zr    -0.596198    2.159892    1.645902
  Zr     0.513739   -1.883133   -1.488813
  Zr     1.806728   -0.998545    1.563833
  Zr    -1.895188    1.285975   -1.406284
  Zr     1.520236    1.338072   -1.598741
  Zr    -1.602730   -1.055535    1.743458
  O     -1.737262    0.760872    0.604692
  O      1.652155   -0.477793   -0.456494
  O      0.076539   -1.880839    0.633485
  O     -0.159775    2.165784   -0.484915
  O     -0.192387    0.125108   -1.674613
  O      0.113450    0.163822    1.804060
  O     -2.145100    2.055707    2.904133
  O     -1.610907    3.732057    0.997614
  O      0.411500    1.894154    3.443059
  O      1.037413    3.268466    1.460061
  O     -1.078625   -3.062886   -1.276785
  O     -0.527661   -1.649688   -3.260631
  O      1.543371   -3.442821   -0.814523
  O      2.048494   -1.784834   -2.757785
  O      1.333987   -2.272535    2.994644
  O      2.076390    0.252682    3.185002
  O      2.872267   -2.510568    0.860210
  O      3.486324    0.072485    1.020694
  O     -3.625138    0.311380   -0.818195
  O     -2.893834    2.857228   -0.742244
  O     -2.225570   -0.053705   -2.948241
  O     -1.414641    2.438662   -2.932349
  O      0.889738    2.764625   -2.813149
  O      2.254655    2.839237   -0.487402
  O      1.965821    0.467382   -3.334159
  O      3.496991    0.840384   -1.203867
  O     -3.578535   -0.557315    1.367687
  O     -2.033482   -0.193320    3.486707
  O     -2.332901   -2.563792    0.629953
  O     -0.983681   -2.511934    2.928419
  C     -2.417772    1.037691    3.668652
  C     -2.608001    3.746797    0.162476
  C      1.462172    1.219803    3.794392
  C      2.031120    3.425768    0.645249
  C     -2.033368   -3.254891   -0.423612
  C     -1.611745   -1.010660   -3.574233
  C      2.544889   -3.444102    0.015483
  C      2.336161   -0.767462   -3.517138
  C      0.205529   -2.798641    3.364973
  C      4.041917    0.480140   -0.081908
  C     -4.149267   -0.174968    0.266638
  C     -0.287786    2.948188   -3.331454
  H     -2.072640   -1.317565   -4.507621
  H      3.181938   -4.329931    0.002998
  H      1.888423    1.501183    4.751677
  H     -3.267494    4.614681    0.211287
  H      2.946472   -0.971155   -4.399941
  H     -0.339888    3.625831   -4.184274
  H      2.783897    4.143839    0.957892
  H      5.126751    0.536361   -0.058654
  H     -2.680854   -4.102699   -0.627969
  H     -5.230441   -0.276139    0.249558
  H     -3.025294    1.237197    4.554525
  H      0.263385   -3.572715    4.130336
  Al     1.989544    6.220144   -1.719192
  Al     0.542753    6.762199    0.560134
  H     -0.904211    6.794980   -0.284124
  H      0.248974    5.733667    1.764709
  H      2.008239    6.225382   -0.045150
  H      2.643786    4.802738   -2.115476
  H      0.606330    6.277031   -2.662364
  H      0.802586    8.342930    0.713967
  Al    -0.715611    5.926951   -1.700108
  H     -1.888132    6.591691   -2.578956
  H     -0.438657    4.429951   -1.180887
  H      2.603430    7.667685   -2.062461

----------------------------
CARTESIAN COORDINATES (A.U.)
----------------------------
  NO LB      ZA    FRAG     MASS         X           Y           Z
   0 Zr   12.0000*   0    91.220   -1.126652    4.081605    3.110304
   1 Zr   12.0000*   0    91.220    0.970826   -3.558605   -2.813449
   2 Zr   12.0000*   0    91.220    3.414222   -1.886976    2.955215
   3 Zr   12.0000*   0    91.220   -3.581386    2.430140   -2.657491
   4 Zr   12.0000*   0    91.220    2.872830    2.528589   -3.021183
   5 Zr   12.0000*   0    91.220   -3.028720   -1.994672    3.294658
   6 O     8.0000    0    15.999   -3.282950    1.437840    1.142703
   7 O     8.0000    0    15.999    3.122121   -0.902898   -0.862650
   8 O     8.0000    0    15.999    0.144638   -3.554272    1.197113
   9 O     8.0000    0    15.999   -0.301932    4.092738   -0.916356
  10 O     8.0000    0    15.999   -0.363558    0.236420   -3.164561
  11 O     8.0000    0    15.999    0.214390    0.309578    3.409180
  12 O     8.0000    0    15.999   -4.053651    3.884723    5.488016
  13 O     8.0000    0    15.999   -3.044173    7.052565    1.885216
  14 O     8.0000    0    15.999    0.777622    3.579433    6.506438
  15 O     8.0000    0    15.999    1.960427    6.176506    2.759115
  16 O     8.0000    0    15.999   -2.038306   -5.788016   -2.412775
  17 O     8.0000    0    15.999   -0.997135   -3.117458   -6.161699
  18 O     8.0000    0    15.999    2.916549   -6.505989   -1.539225
  19 O     8.0000    0    15.999    3.871093   -3.372848   -5.211457
  20 O     8.0000    0    15.999    2.520870   -4.294469    5.659057
  21 O     8.0000    0    15.999    3.923809    0.477500    6.018781
  22 O     8.0000    0    15.999    5.427797   -4.744286    1.625562
  23 O     8.0000    0    15.999    6.588197    0.136977    1.928833
  24 O     8.0000    0    15.999   -6.850518    0.588423   -1.546165
  25 O     8.0000    0    15.999   -5.468554    5.399378   -1.402637
  26 O     8.0000    0    15.999   -4.205717   -0.101488   -5.571368
  27 O     8.0000    0    15.999   -2.673284    4.608403   -5.541336
  28 O     8.0000    0    15.999    1.681360    5.224385   -5.316081
  29 O     8.0000    0    15.999    4.260681    5.365380   -0.921056
  30 O     8.0000    0    15.999    3.714864    0.883223   -6.300648
  31 O     8.0000    0    15.999    6.608354    1.588095   -2.274979
  32 O     8.0000    0    15.999   -6.762450   -1.053173    2.584553
  33 O     8.0000    0    15.999   -3.842724   -0.365321    6.588922
  34 O     8.0000    0    15.999   -4.408545   -4.844865    1.190439
  35 O     8.0000    0    15.999   -1.858887   -4.746867    5.533910
  36 C     6.0000    0    12.011   -4.568926    1.960951    6.932748
  37 C     6.0000    0    12.011   -4.928407    7.080420    0.307035
  38 C     6.0000    0    12.011    2.763104    2.305094    7.170361
  39 C     6.0000    0    12.011    3.838260    6.473763    1.219344
  40 C     6.0000    0    12.011   -3.842508   -6.150853   -0.800511
  41 C     6.0000    0    12.011   -3.045757   -1.909870   -6.754322
  42 C     6.0000    0    12.011    4.809143   -6.508410    0.029259
  43 C     6.0000    0    12.011    4.414705   -1.450292   -6.646428
  44 C     6.0000    0    12.011    0.388394   -5.288665    6.358878
  45 C     6.0000    0    12.011    7.638116    0.907334   -0.154783
  46 C     6.0000    0    12.011   -7.840978   -0.330642    0.503872
  47 C     6.0000    0    12.011   -0.543837    5.571269   -6.295535
  48 H     1.0000    0     1.008   -3.916721   -2.489838   -8.518169
  49 H     1.0000    0     1.008    6.012992   -8.182383    0.005666
  50 H     1.0000    0     1.008    3.568602    2.836824    8.979369
  51 H     1.0000    0     1.008   -6.174669    8.720483    0.399275
  52 H     1.0000    0     1.008    5.568025   -1.835216   -8.314684
  53 H     1.0000    0     1.008   -0.642296    6.851828   -7.907132
  54 H     1.0000    0     1.008    5.260803    7.830721    1.810153
  55 H     1.0000    0     1.008    9.688156    1.013575   -0.110840
  56 H     1.0000    0     1.008   -5.066079   -7.752977   -1.186690
  57 H     1.0000    0     1.008   -9.884101   -0.521827    0.471596
  58 H     1.0000    0     1.008   -5.716977    2.337963    8.606805
  59 H     1.0000    0     1.008    0.497726   -6.751452    7.805203
  60 Al   13.0000    0    26.982    3.759694   11.754368   -3.248802
  61 Al   13.0000    0    26.982    1.025655   12.778705    1.058500
  62 H     1.0000    0     1.008   -1.708711   12.840650   -0.536916
  63 H     1.0000    0     1.008    0.470492   10.835060    3.334817
  64 H     1.0000    0     1.008    3.795022   11.764267   -0.085320
  65 H     1.0000    0     1.008    4.996031    9.075859   -3.997671
  66 H     1.0000    0     1.008    1.145798   11.861870   -5.031140
  67 H     1.0000    0     1.008    1.516668   15.765853    1.349203
  68 Al   13.0000    0    26.982   -1.352309   11.200315   -3.212739
  69 H     1.0000    0     1.008   -3.568052   12.456491   -4.873520
  70 H     1.0000    0     1.008   -0.828941    8.371395   -2.231553
  71 H     1.0000    0     1.008    4.919769   14.489824   -3.897486
[...]
215:   2909.91   0.028074  141.87  0.003011  (-0.024244  0.048538 -0.008186)

* The epsilon (eps) is given for a Dirac delta lineshape.
** The dipole moment derivative (T) already includes vibrational overlap.

The first frequency considered to be a vibration is 9
The total number of vibrations considered is 207


--------------------------
THERMOCHEMISTRY AT 298.15K
--------------------------

Temperature         ...   298.15 K
Pressure            ...     1.00 atm
Total Mass          ...  1273.54 AMU
Quasi RRHO          ...     True
Cut-Off Frequency   ...     1.00 cm^-1

Throughout the following assumptions are being made:
  (1) The electronic state is orbitally nondegenerate
  (2) There are no thermally accessible electronically excited states
  (3) Hindered rotations indicated by low frequency modes are not
      treated as such but are treated as vibrations and this may
      cause some error
  (4) All equations used are the standard statistical mechanics
      equations for an ideal gas
  (5) All vibrations are strictly harmonic

freq.       7.33  E(vib)   ...       0.58 
freq.      11.31  E(vib)   ...       0.58 
freq.      16.55  E(vib)   ...       0.57 
freq.      25.90  E(vib)   ...       0.56 
freq.      30.20  E(vib)   ...       0.55 
freq.      32.41  E(vib)   ...       0.55 
freq.      39.74  E(vib)   ...       0.54 
freq.      45.89  E(vib)   ...       0.53 
freq.      51.72  E(vib)   ...       0.52 
freq.      79.75  E(vib)   ...       0.49 
freq.      79.84  E(vib)   ...       0.49 
freq.      93.28  E(vib)   ...       0.47 
freq.      95.46  E(vib)   ...       0.47 
freq.      96.42  E(vib)   ...       0.47 
freq.      99.49  E(vib)   ...       0.46 
freq.      99.93  E(vib)   ...       0.46 
freq.     105.22  E(vib)   ...       0.45 
freq.     105.72  E(vib)   ...       0.45 
freq.     110.27  E(vib)   ...       0.45 
freq.     111.17  E(vib)   ...       0.45 
freq.     115.61  E(vib)   ...       0.44 
freq.     117.31  E(vib)   ...       0.44 
freq.     129.28  E(vib)   ...       0.43 
freq.     137.05  E(vib)   ...       0.42 
freq.     146.07  E(vib)   ...       0.41 
freq.     150.51  E(vib)   ...       0.40 
freq.     151.18  E(vib)   ...       0.40 
freq.     151.70  E(vib)   ...       0.40 
freq.     152.17  E(vib)   ...       0.40 
freq.     152.90  E(vib)   ...       0.40 
freq.     159.08  E(vib)   ...       0.39 
freq.     160.99  E(vib)   ...       0.39 
freq.     162.36  E(vib)   ...       0.39 
freq.     163.59  E(vib)   ...       0.39 
freq.     165.16  E(vib)   ...       0.39 
freq.     167.25  E(vib)   ...       0.39 
freq.     169.83  E(vib)   ...       0.38 
freq.     171.33  E(vib)   ...       0.38 
freq.     186.49  E(vib)   ...       0.37 
freq.     187.35  E(vib)   ...       0.36 
freq.     188.72  E(vib)   ...       0.36 
freq.     189.71  E(vib)   ...       0.36 
freq.     192.73  E(vib)   ...       0.36 
freq.     195.33  E(vib)   ...       0.36 
freq.     197.57  E(vib)   ...       0.35 
freq.     203.01  E(vib)   ...       0.35 
freq.     208.69  E(vib)   ...       0.34 
freq.     213.41  E(vib)   ...       0.34 
freq.     214.49  E(vib)   ...       0.34 
freq.     230.59  E(vib)   ...       0.32 
freq.     232.73  E(vib)   ...       0.32 
freq.     233.61  E(vib)   ...       0.32 
freq.     237.06  E(vib)   ...       0.32 
freq.     238.65  E(vib)   ...       0.32 
freq.     242.87  E(vib)   ...       0.31 
freq.     261.33  E(vib)   ...       0.30 
freq.     262.31  E(vib)   ...       0.29 
freq.     262.72  E(vib)   ...       0.29 
freq.     264.08  E(vib)   ...       0.29 
freq.     264.98  E(vib)   ...       0.29 
freq.     267.75  E(vib)   ...       0.29 
freq.     268.98  E(vib)   ...       0.29 
freq.     270.82  E(vib)   ...       0.29 
freq.     274.70  E(vib)   ...       0.28 
freq.     275.23  E(vib)   ...       0.28 
freq.     276.56  E(vib)   ...       0.28 
freq.     277.21  E(vib)   ...       0.28 
freq.     279.33  E(vib)   ...       0.28 
freq.     280.80  E(vib)   ...       0.28 
freq.     282.92  E(vib)   ...       0.28 
freq.     288.61  E(vib)   ...       0.27 
freq.     289.90  E(vib)   ...       0.27 
freq.     293.06  E(vib)   ...       0.27 
freq.     294.27  E(vib)   ...       0.27 
freq.     300.81  E(vib)   ...       0.26 
freq.     302.29  E(vib)   ...       0.26 
freq.     306.24  E(vib)   ...       0.26 
freq.     306.90  E(vib)   ...       0.26 
freq.     310.81  E(vib)   ...       0.26 
freq.     313.26  E(vib)   ...       0.25 
freq.     315.43  E(vib)   ...       0.25 
freq.     316.61  E(vib)   ...       0.25 
freq.     319.25  E(vib)   ...       0.25 
freq.     323.16  E(vib)   ...       0.25 
freq.     325.41  E(vib)   ...       0.24 
freq.     328.24  E(vib)   ...       0.24 
freq.     338.34  E(vib)   ...       0.23 
freq.     341.38  E(vib)   ...       0.23 
freq.     349.51  E(vib)   ...       0.23 
freq.     352.49  E(vib)   ...       0.22 
freq.     358.43  E(vib)   ...       0.22 
freq.     368.92  E(vib)   ...       0.21 
freq.     385.42  E(vib)   ...       0.20 
freq.     395.00  E(vib)   ...       0.20 
freq.     397.73  E(vib)   ...       0.20 
freq.     399.52  E(vib)   ...       0.19 
freq.     402.36  E(vib)   ...       0.19 
freq.     413.06  E(vib)   ...       0.19 
freq.     415.07  E(vib)   ...       0.19 
freq.     417.00  E(vib)   ...       0.18 
freq.     419.77  E(vib)   ...       0.18 
freq.     421.03  E(vib)   ...       0.18 
freq.     426.39  E(vib)   ...       0.18 
freq.     429.36  E(vib)   ...       0.18 
freq.     470.37  E(vib)   ...       0.15 
freq.     476.60  E(vib)   ...       0.15 
freq.     478.24  E(vib)   ...       0.15 
freq.     487.71  E(vib)   ...       0.15 
freq.     515.05  E(vib)   ...       0.13 
freq.     529.34  E(vib)   ...       0.13 
freq.     540.60  E(vib)   ...       0.12 
freq.     543.78  E(vib)   ...       0.12 
freq.     619.80  E(vib)   ...       0.09 
freq.     660.86  E(vib)   ...       0.08 
freq.     662.65  E(vib)   ...       0.08 
freq.     673.67  E(vib)   ...       0.08 
freq.     678.05  E(vib)   ...       0.08 
freq.     680.78  E(vib)   ...       0.08 
freq.     685.69  E(vib)   ...       0.07 
freq.     699.84  E(vib)   ...       0.07 
freq.     733.76  E(vib)   ...       0.06 
freq.     734.53  E(vib)   ...       0.06 
freq.     734.81  E(vib)   ...       0.06 
freq.     735.14  E(vib)   ...       0.06 
freq.     735.22  E(vib)   ...       0.06 
freq.     738.30  E(vib)   ...       0.06 
freq.     739.21  E(vib)   ...       0.06 
freq.     739.89  E(vib)   ...       0.06 
freq.     740.11  E(vib)   ...       0.06 
freq.     740.32  E(vib)   ...       0.06 
freq.     741.45  E(vib)   ...       0.06 
freq.     741.96  E(vib)   ...       0.06 
freq.     742.69  E(vib)   ...       0.06 
freq.     743.41  E(vib)   ...       0.06 
freq.     760.41  E(vib)   ...       0.06 
freq.     926.49  E(vib)   ...       0.03 
freq.     997.98  E(vib)   ...       0.02 
freq.     998.54  E(vib)   ...       0.02 
freq.     998.79  E(vib)   ...       0.02 
freq.     998.93  E(vib)   ...       0.02 
freq.    1000.41  E(vib)   ...       0.02 
freq.    1000.76  E(vib)   ...       0.02 
freq.    1003.37  E(vib)   ...       0.02 
freq.    1004.19  E(vib)   ...       0.02 
freq.    1004.40  E(vib)   ...       0.02 
freq.    1005.06  E(vib)   ...       0.02 
freq.    1005.42  E(vib)   ...       0.02 
freq.    1005.68  E(vib)   ...       0.02 
freq.    1106.34  E(vib)   ...       0.02 
freq.    1131.06  E(vib)   ...       0.01 
freq.    1348.49  E(vib)   ...       0.01 
freq.    1351.06  E(vib)   ...       0.01 
freq.    1351.74  E(vib)   ...       0.01 
freq.    1352.21  E(vib)   ...       0.01 
freq.    1353.30  E(vib)   ...       0.01 
freq.    1353.68  E(vib)   ...       0.01 
freq.    1354.62  E(vib)   ...       0.01 
freq.    1355.03  E(vib)   ...       0.01 
freq.    1356.18  E(vib)   ...       0.01 
freq.    1356.59  E(vib)   ...       0.01 
freq.    1357.61  E(vib)   ...       0.01 
freq.    1358.43  E(vib)   ...       0.01 
freq.    1360.40  E(vib)   ...       0.01 
freq.    1360.43  E(vib)   ...       0.01 
freq.    1360.69  E(vib)   ...       0.01 
freq.    1360.97  E(vib)   ...       0.01 
freq.    1365.81  E(vib)   ...       0.01 
freq.    1366.33  E(vib)   ...       0.01 
freq.    1367.52  E(vib)   ...       0.01 
freq.    1369.48  E(vib)   ...       0.01 
freq.    1370.27  E(vib)   ...       0.01 
freq.    1373.73  E(vib)   ...       0.01 
freq.    1374.67  E(vib)   ...       0.01 
freq.    1383.05  E(vib)   ...       0.01 
freq.    1539.34  E(vib)   ...       0.00 
freq.    1547.50  E(vib)   ...       0.00 
freq.    1564.89  E(vib)   ...       0.00 
freq.    1565.77  E(vib)   ...       0.00 
freq.    1570.49  E(vib)   ...       0.00 
freq.    1578.36  E(vib)   ...       0.00 
freq.    1578.87  E(vib)   ...       0.00 
freq.    1615.94  E(vib)   ...       0.00 
freq.    1633.81  E(vib)   ...       0.00 
freq.    1635.00  E(vib)   ...       0.00 
freq.    1636.86  E(vib)   ...       0.00 
freq.    1638.95  E(vib)   ...       0.00 
freq.    1640.19  E(vib)   ...       0.00 
freq.    1671.67  E(vib)   ...       0.00 
freq.    1795.25  E(vib)   ...       0.00 
freq.    1885.83  E(vib)   ...       0.00 
freq.    1889.11  E(vib)   ...       0.00 
freq.    1895.26  E(vib)   ...       0.00 
freq.    1907.71  E(vib)   ...       0.00 
freq.    1909.67  E(vib)   ...       0.00 
freq.    1923.71  E(vib)   ...       0.00 
freq.    2886.88  E(vib)   ...       0.00 
freq.    2887.38  E(vib)   ...       0.00 
freq.    2887.64  E(vib)   ...       0.00 
freq.    2888.99  E(vib)   ...       0.00 
freq.    2889.31  E(vib)   ...       0.00 
freq.    2890.23  E(vib)   ...       0.00 
freq.    2891.15  E(vib)   ...       0.00 
freq.    2893.59  E(vib)   ...       0.00 
freq.    2906.82  E(vib)   ...       0.00 
freq.    2907.36  E(vib)   ...       0.00 
freq.    2908.44  E(vib)   ...       0.00 
freq.    2909.91  E(vib)   ...       0.00 

------------
INNER ENERGY
------------

The inner energy is: U= E(el) + E(ZPE) + E(vib) + E(rot) + E(trans)
    E(el)   - is the total energy from the electronic structure calculation
              = E(kin-el) + E(nuc-el) + E(el-el) + E(nuc-nuc)
    E(ZPE)  - the the zero temperature vibrational energy from the frequency calculation
    E(vib)  - the the finite temperature correction to E(ZPE) due to population
              of excited vibrational states
    E(rot)  - is the rotational thermal energy
    E(trans)- is the translational thermal energy

Summary of contributions to the inner energy U:
Electronic energy                ...  -3732.51247315 Eh
Zero point energy                ...      0.37000758 Eh     232.18 kcal/mol
Thermal vibrational correction   ...      0.06105339 Eh      38.31 kcal/mol
Thermal rotational correction    ...      0.00141627 Eh       0.89 kcal/mol
Thermal translational correction ...      0.00141627 Eh       0.89 kcal/mol
-----------------------------------------------------------------------
Total thermal energy                  -3732.07857964 Eh


Summary of corrections to the electronic energy:
(perhaps to be used in another calculation)
Total thermal correction                  0.06388594 Eh      40.09 kcal/mol
Non-thermal (ZPE) correction              0.37000758 Eh     232.18 kcal/mol
-----------------------------------------------------------------------
Total correction                          0.43389352 Eh     272.27 kcal/mol


--------
ENTHALPY
--------

The enthalpy is H = U + kB*T
                kB is Boltzmann's constant
Total thermal energy              ...  -3732.07857964 Eh 
Thermal Enthalpy correction       ...      0.00094421 Eh       0.59 kcal/mol
-----------------------------------------------------------------------
Total Enthalpy                    ...  -3732.07763543 Eh


Note: Only C1 symmetry has been detected, increase convergence thresholds 
      if your molecule has a higher symmetry. Symmetry factor of 1.0 is   
      used for the rotational entropy correction. 
 

Note: Rotational entropy computed according to Herzberg 
Infrared and Raman Spectra, Chapter V,1, Van Nostrand Reinhold, 1945 
Point Group:  C1, Symmetry Number:   1  
Rotational constants in cm-1:     0.001797     0.001223     0.001180 

Vibrational entropy computed according to the QRRHO of S. Grimme
Chem.Eur.J. 2012 18 9955 using a reference frequency of 100.0 cm-1


-------
ENTROPY
-------

The entropy contributions are T*S = T*(S(el)+S(vib)+S(rot)+S(trans))
     S(el)   - electronic entropy
     S(vib)  - vibrational entropy
     S(rot)  - rotational entropy
     S(trans)- translational entropy
The entropies will be listed as multiplied by the temperature to get
units of energy

Electronic entropy                ...      0.00000000 Eh      0.00 kcal/mol
Vibrational entropy               ...      0.11081531 Eh     69.54 kcal/mol
Rotational entropy                ...      0.01884433 Eh     11.82 kcal/mol
Translational entropy             ...      0.02247478 Eh     14.10 kcal/mol
-----------------------------------------------------------------------
Final entropy term                ...      0.15213442 Eh     95.47 kcal/mol

In case the symmetry of your molecule has not been determined correctly
or in case you have a reason to use a different symmetry number we print 
out the resulting rotational entropy values for sn=1,12:

 non-linear molecules -----------------------------------
|  sn= 1 | S(rot)=       0.01884433 Eh     11.82 kcal/mol|
|  sn= 2 | S(rot)=       0.01818987 Eh     11.41 kcal/mol|
|  sn= 3 | S(rot)=       0.01780704 Eh     11.17 kcal/mol|
|  sn= 4 | S(rot)=       0.01753542 Eh     11.00 kcal/mol|
|  sn= 5 | S(rot)=       0.01732473 Eh     10.87 kcal/mol|
|  sn= 6 | S(rot)=       0.01715258 Eh     10.76 kcal/mol|
|  sn= 7 | S(rot)=       0.01700704 Eh     10.67 kcal/mol|
|  sn= 8 | S(rot)=       0.01688096 Eh     10.59 kcal/mol|
|  sn= 9 | S(rot)=       0.01676975 Eh     10.52 kcal/mol|
|  sn=10 | S(rot)=       0.01667027 Eh     10.46 kcal/mol|
|  sn=11 | S(rot)=       0.01658028 Eh     10.40 kcal/mol|
|  sn=12 | S(rot)=       0.01649813 Eh     10.35 kcal/mol|
 linear molecules ---------------------------------------
|  Dinfh | S(rot)=       0.01169149 Eh      7.34 kcal/mol|
|  Cinfv | S(rot)=       0.01234595 Eh      7.75 kcal/mol|
 --------------------------------------------------------


-------------------
GIBBS FREE ENERGY
-------------------

The Gibbs free energy is G = H - T*S

Total enthalpy                    ...  -3732.07763543 Eh 
Total entropy correction          ...     -0.15213442 Eh    -95.47 kcal/mol
-----------------------------------------------------------------------
Final Gibbs free energy         ...  -3732.22976984 Eh

For completeness - the Gibbs free energy minus the electronic energy
G-E(el)                           ...      0.28270331 Eh    177.40 kcal/mol


Maximum memory used throughout the entire PROP-calculation: 143.4 MB

--------------------------------
SUGGESTED CITATIONS FOR THIS RUN
--------------------------------

Below you find a list of papers that are relevant to this ORCA run
We neither can nor want to force you to cite these papers, but we appreciate if you do
You receive ORCA, which is the product of decades of hard work by many enthusiastic individuals, for free
The only thing we kindly ask in return is that you cite our papers,
We deeply appreciate it, if you show your appreciation for ORCA by not just citing the generic ORCA reference.

Please note that relegating all ORCA citations to the supporting information does *not* help us.
SI sections are not indexed - citations you put there will not count into any citation statistics
But we need these citations in order to attract the funding resources that allow us to do what we are doing

Therefore, if you are a happy ORCA user, please consider citing a few of the papers listed below in the main body of your paper

In addition to the list printed below, the program has created the file run.bibtex that contains the list in bibtex format
You can import this file easily into all common literature databanks and citation aid programs


List of essential papers. We consider these as the minimum necessary citations

  1. Neese, F.
     Software update: the ORCA program system, version 6.0
     WIRES Comput. Molec. Sci. 2025 15(1), e70019
     doi.org/10.1002/wcms.7019

List of papers to cite with high priority. The work reported in these papers was absolutely
necessary for this run to complete.
Our perspective: the developers of density functionals and basis sets usually get cited in chemistry papers
Good! But without the algorithms to do something with them, the functionals or basis sets would not do anything.
Hence, in our opinion, the algorithm design and method developments papers are equally worthy of getting cited

  1. Neese, F.
     An improvement of the resolution of the identity approximation for the formation of the Coulomb matrix
     J. Comp. Chem. 2003 24(14), 1740-1747
     doi.org/10.1002/jcc.10318
  2. Grimme, S.; Antony, J.; Ehrlich, S.; Krieg, H.
     A consistent and accurate ab initio parametrization of density functional dispersion correction (DFT-D) for the 94 elements H-Pu
     J. Chem. Phys. 2010 132 , 154104
     doi.org/10.1063/1.3382344
  3. Grimme, S.; Ehrlich, S.; Goerigk, L.
     Effect of the damping function in dispersion corrected density functional theory
     J. Comput. Chem. 2011 32(7), 1456-1465
     doi.org/10.1002/jcc.21759
  4. Bykov, D.; Petrenko, T.; Izsak, R.; Kossmann, S.; Becker, U.; Valeev, E.; Neese, F.
     Efficient implementation of the analytic second derivatives of Hartree-Fock and hybrid DFT energies: a detailed analysis of different approximations
     Molec. Phys. 2015 113 , 1961-1977
     doi.org/10.1080/00268976.2015.1025114
  5. Helmich-Paris, B.
     A trust-region augmented Hessian implementation for restricted and unrestricted Hartree–Fock and Kohn–Sham methods
     J. Chem. Phys. 2021 154 , 164104
     doi.org/10.1063/5.0040798
  6. Neese, F.
     The SHARK Integral Generation and Digestion System
     J. Comp. Chem. 2022 44(3), 381
     doi.org/10.1002/jcc.26942

List of suggested additional citations. These are papers that are important in the 'surrounding' of 
of this run, or papers that preceded the highly important papers. If you like your results we are grateful for a citation.

  1. Neese, F.
     The ORCA program system
     WIRES Comput. Molec. Sci. 2012 2(1), 73-78
     doi.org/10.1002/wcms.81
  2. Neese, F.
     Software update: the ORCA program system, version 4.0
     WIRES Comput. Molec. Sci. 2018 8(1), 1-6
     doi.org/10.1002/wcms.1327
  3. Neese, F.; Wennmohs, F.; Becker, U.; Riplinger, C.
     The ORCA quantum chemistry program package
     J. Chem. Phys. 2020 152(22), 224108
     doi.org/10.1063/5.0004608
  4. Neese, F.
     Software update: The ORCA program system—Version 5.0
     WIRES Comput. Molec. Sci. 2022 12(1), e1606
     doi.org/10.1002/wcms.1606

List of optional additional citations

  1. Neese, F.
     Approximate second-order SCF convergence for spin unrestricted wavefunctions
     Chem. Phys. Lett. 2000 325(1-3), 93-98
     doi.org/10.1016/s0009-2614(00)00662-x

Timings for individual modules:

Sum of individual times          ...     7836.759 sec (= 130.613 min)
Startup calculation              ...      325.287 sec (=   5.421 min)   4.2 %
SCF iterations                   ...     2426.250 sec (=  40.438 min)  31.0 %
Property integrals               ...     1523.306 sec (=  25.388 min)  19.4 %
SCF Response                     ...     1360.239 sec (=  22.671 min)  17.4 %
Property calculations            ...     1305.893 sec (=  21.765 min)  16.7 %
SCF Gradient evaluation          ...      868.260 sec (=  14.471 min)  11.1 %
Geometry relaxation              ...       27.523 sec (=   0.459 min)   0.4 %
                             ****ORCA TERMINATED NORMALLY****
TOTAL RUN TIME: 0 days 2 hours 11 minutes 0 seconds 173 msec
