
                                 *****************
                                 * O   R   C   A *
                                 *****************

                                            #,                                       
                                            ###                                      
                                            ####                                     
                                            #####                                    
                                            ######                                   
                                           ########,                                 
                                     ,,################,,,,,                         
                               ,,#################################,,                 
                          ,,##########################################,,             
                       ,#########################################, ''#####,          
                    ,#############################################,,   '####,        
                  ,##################################################,,,,####,       
                ,###########''''           ''''###############################       
              ,#####''   ,,,,##########,,,,          '''####'''          '####       
            ,##' ,,,,###########################,,,                        '##       
           ' ,,###''''                  '''############,,,                           
         ,,##''                                '''############,,,,        ,,,,,,###''
      ,#''                                            '''#######################'''  
     '                                                          ''''####''''         
             ,#######,   #######,   ,#######,      ##                                
            ,#'     '#,  ##    ##  ,#'     '#,    #''#        ,####,    ,#,          
            ##       ##  ##   ,#'  ##            #'  '#       #'       ,# #          
            ##       ##  #######   ##           ,######,      #####,      #          
            '#,     ,#'  ##    ##  '#,     ,#' ,#      #,     #,   #      #          
             '#######'   ##     ##  '#######'  #'      '#     '####' #    #          



                #########################################################
                #                        -***-                          #
                #          Department of theory and spectroscopy        #
                #                                                       #
                #                      Frank Neese                      #
                #                                                       #
                #     Directorship, Architecture, Infrastructure        #
                #                    SHARK, DRIVERS                     #
                #        Core code/Algorithms in most modules           #
                #                                                       #
                #        Max Planck Institute fuer Kohlenforschung      #
                #                Kaiser Wilhelm Platz 1                 #
                #                 D-45470 Muelheim/Ruhr                 #
                #                      Germany                          #
                #                                                       #
                #                  All rights reserved                  #
                #                        -***-                          #
                #########################################################


                         Program Version 6.1.0  -  RELEASE   -
                                (GIT: $679e74b$)
                          ($2025-06-10 18:02:51 +0200$)


 With contributions from (in alphabetic order):
[Max-Planck-Institut fuer Kohlenforschung]                               
  Daniel Aravena         : Magnetic Suceptibility                        
  Michael Atanasov       : Ab Initio Ligand Field Theory (pilot matlab implementation)
  Alexander A. Auer      : GIAO ZORA, VPT2 properties, NMR spectrum      
  Ute Becker             : All parallelization in ORCA, NUMFREQ, NUMCALC 
  Giovanni Bistoni       : ED, misc. LED, open-shell LED, HFLD           
  Dmytro Bykov           : pre 5.0 version of the SCF Hessian            
  Marcos Casanova-Páez   : Triplet and SCS-CIS(D). UHF-(DLPNO)-IP/EA/STEOM-CCSD. UHF-CVS-IP/STEOM-CCSD   
  Vijay G. Chilkuri      : MRCI spin determinant printing, contributions to CSF-ICE 
  Pauline Colinet        : FMM embedding                                 
  Dipayan Datta          : RHF DLPNO-CCSD density                        
  Achintya Kumar Dutta   : EOM-CC, STEOM-CC                              
  Nicolas Foglia         : Exact transition moments, OPA infrastructure, MCD improvements    
  Dmitry Ganyushin       : Spin-Orbit,Spin-Spin,Magnetic field MRCI      
  Miquel Garcia-Rates    : C-PCM and meta-GGA Hessian, CCSD/C-PCM, Gaussian charge scheme 
  Tiago L. C. Gouveia    : GS-ROHF, GS-ROCIS                             
  Yang Guo               : DLPNO-NEVPT2, F12-NEVPT2, CIM, IAO-localization        
  Andreas Hansen         : Spin unrestricted coupled pair/coupled cluster methods 
  Ingolf Harden          : AUTO-CI MPn and infrastructure                
  Benjamin Helmich-Paris : MC-RPA, TRAH-(SCF,CASSCF), AVAS, COSX integrals, SCF dyn. polar., MC-PDFT, srDFT 
  Lee Huntington         : MR-EOM, pCC                                   
  Robert Izsak           : Overlap fitted RIJCOSX, COSX-SCS-MP3, EOM     
  Riya Kayal             : Wick's Theorem for AUTO-CI, AUTO-CI UHF-CCSDT 
  Emily Kempfer          : AUTO-CI RHF CISDT and CCSDT, approximate NEVPT4
  Christian Kollmar      : KDIIS, OOCD, Brueckner-CCSD(T), CCSD density, CASPT2, CASPT2-K, improved NEVPT2 
  Axel Koslowski         : Symmetry handling                             
  Simone Kossmann        : meta-GGA functionals, TD-DFT gradient, OOMP2, (MP2 Hessian; deprecated post 5.0) 
  Lucas Lang             : DCDCAS, Hyperfine gauge corrections, ICE-SOC+SSC
  Marvin Lechner         : AUTO-CI (C++ implementation), FIC-MRCC        
  Spencer Leger          : CASSCF response                               
  Dagmar Lenk            : GEPOL surface, SMD, ORCA-2-JSON               
  Dimitrios Liakos       : Extrapolation schemes; Compound Job, Property file
  Dimitrios Manganas     : Further ROCIS development; embedding schemes. LFT, Crystal Embedding 
  Dimitrios Pantazis     : SARC Basis sets                               
  Anastasios Papadopoulos: AUTO-CI, single reference methods and gradients 
  Taras Petrenko         : pre 6.0 DFT Hessian and TD-DFT gradient,  ECA, NRVS 
  Petra Pikulova         : Analytic Raman intensities                    
  Peter Pinski           : DLPNO-MP2, DLPNO-MP2 Gradient                 
  Shashank Vittal Rao    : ES-AILFT, MagRelax                            
  Christoph Reimann      : Effective Core Potentials                     
  Marius Retegan         : Local ZFS, SOC                                
  Christoph Riplinger    : Optimizer, TS searches, QM/MM, DLPNO-CCSD(T), (RO)-DLPNO pert. Triples 
  Michael Roemelt        : Original ROCIS implementation, recursive CI coupling coefficients
  Masaaki Saitow         : Open-shell DLPNO-CCSD energy and density      
  Barbara Sandhoefer     : DKH picture change effects                    
  Yorick L. A. Schmerwitz: GMF and freeze-and-release deltaSCF, NEB S-IDPP initial path                    
  Kantharuban Sivalingam : CASSCF convergence/infrastructure, NEVPT2, NEVPT3, NEVPT4(SD), FIC-MRCI and CEPA variants
  Bernardo de Souza      : ESD, SOC TD-DFT                               
  Georgi L. Stoychev     : AutoAux, RI-MP2 NMR, DLPNO-MP2 response, X2C  
  Van Anh Tran           : RI-MP2 g-tensors                              
  Willem Van den Heuvel  : Paramagnetic NMR                              
  Zikuan Wang            : NOTCH, Electric field optimization            
  Frank Wennmohs         : Technical directorship and infrastructure     
  Hang Xu                : AUTO-CI-Response properties                   
                                                                         
[FACCTs GmbH]                                                            
  Markus Bursch, Nicolas Foglia, Miquel Garcia-Rates, Ingolf Harden, Hagen Neugebauer, Anastasios Papadopoulos, 
  Christoph Riplinger, Bernardo de Souza, Georgi L. Stoychev                                                    
                                                                 
  APM, various basis sets, CI-OPT, improved COSX, DLPNO-Multilevel,           
  DOCKER, DRACO, updates on ESD, Fragmentator, GOAT, IRC, LR-CPCM, L-BFGS, MBIS, meta-GGA TD-DFT gradient, ML-optimized integration grids, 
  MM, NACMEs, nearIR, NEB, NEB-TS, NL-DFT gradient (VV10), 2- and 3-layer-ONIOM, interface openCOSMO-RS, QMMM,   
  Crystal-QMMM, RESP, rigid body optimization, SF, symmetry and pop. for TD-DFT, various functionals, SOLVATOR                                   
                                                                         
[Other institutions]                                                     
  V. Asgeirsson          : NEB                                           
  Christoph Bannwarth    : sTDA-DFT, sTD-DFT, PBEh-3c, B97-3c, D3        
  Giovanni Bistoni       : ETS/NOCV, ADLD/ADEX, COVALED                  
  Martin Brehm           : Molecular dynamics                            
  Ronald Cardenas        : ETS/NOCV                                      
  Martina Colucci        : COVALED                                       
  Sebastian Ehlert       : rSCAN, r2SCAN, r2SCAN-3c, D4, dhf basis sets  
  Marvin Friede          : D4 for Fr, Ra, Ac-Lr                          
  Lars Goerigk           : TD-DFT with DH, B97 family of functionals     
  Stefan Grimme          : VdW corrections, initial TS optimization, DFT functionals, gCP, sTDA/sTD-DF 
  Waldemar Hujo          : DFT-NL                                        
  H. Jonsson             : NEB                                           
  Holger Kruse           : gCP                                           
  Marcel Mueller         : wB97X-3c, vDZP basis set                      
  Hagen Neugebauer       : wr2SCAN, Native XTB                           
  Gianluca Regni         : ADLD/ADEX                                     
  Tobias Risthaus        : pre 6.0 range-separated hybrid DFT and stability analysis
  Lukas Wittmann         : regularized MP2, r2SCAN double-hybrids, wr2SCAN        
                                                                         
We gratefully acknowledge several colleagues who have allowed us to      
interface, adapt or use parts of their codes:                            
  Ed Valeev, F. Pavosevic, A. Kumar             : LibInt (2-el integral package), F12 methods 
  Garnet Chan, S. Sharma, J. Yang, R. Olivares  : DMRG                   
  Ulf Ekstrom                                   : XCFun DFT Library      
  Mihaly Kallay                                 : mrcc  (arbitrary order and MRCC methods)
  Frank Weinhold                                : gennbo (NPA and NBO analysis)           
  Simon Mueller                                 : openCOSMO-RS                            
  Christopher J. Cramer and Donald G. Truhlar   : smd solvation model                     
  S Lehtola, MJT Oliveira, MAL Marques          : LibXC Library                           
  Liviu Ungur et al                             : ANISO software                          


 Your calculation uses the libint2 library for the computation of 2-el integrals
 For citations please refer to: http://libint.valeyev.net

 Your ORCA version has been built with support for libXC version: 7.0.0
 For citations please refer to: https://libxc.gitlab.io

 This ORCA versions uses:
   CBLAS   interface :  Fast vector & matrix operations
   LAPACKE interface :  Fast linear algebra routines
   SCALAPACK package :  Parallel linear algebra routines
   Shared memory     :  Shared parallel matrices
   BLAS/LAPACK       :  OpenBLAS 0.3.29  USE64BITINT DYNAMIC_ARCH NO_AFFINITY Bulldozer SINGLE_THREADED
        Core in use  :  Bulldozer
   Copyright (c) 2011-2014, The OpenBLAS Project


  ***********************************
  * Starting time: Sun Aug 17 22:49:13 2025
  * Host name:     chromium07
  * Process ID:    397897
  * Working dir.:  /local/scratch/mehlhorn/62105
  ***********************************



***************************************
The coordinates will be read from file: start.xyz
***************************************


Your calculation utilizes the geometrical counterpoise correction gCP
Please cite in your paper:
H.Kruse, S. Grimme J.Chem.Phys., 136, (2012), 154101 
   

Your calculation utilizes the atom-pairwise dispersion correction
with the Becke-Johnson damping scheme (D3BJ)


Your calculation employs the composite approach PBEh-3c.
Please cite in your paper:
Grimme, S.; Brandenburg, J. G.; Bannwarth, C.; Hansen A. J. Chem. Phys. 2015, 143, 054107 
   

================================================================================

----- Orbital basis set information -----
Your calculation utilizes the basis: def2-mSVP

----- AuxJ basis set information -----
Your calculation utilizes the auxiliary basis: def2-mSVP/J
================================================================================
                                        WARNINGS
                       Please study these warnings very carefully!
================================================================================


WARNING: Geometry Optimization
  ===> : Switching off AutoStart
         For restart on a previous wavefunction, please use MOREAD

================================================================================
                                       INPUT FILE
================================================================================
NAME = run.inp
|  1> # Geometry optimization for (AlH3)n cluster
|  2> 
|  3> %pal nprocs 24  end
|  4> 
|  5> %geom MaxIter 500 end
|  6> 
|  7> %elprop Polar 1 end # invoke raman
|  8> 
|  9> ! PBEh-3c
| 10> ! RKS	# closed shell for AlH3
| 11> ! Freq 	# Frequency analysis to check the stabiltity of the structures
| 12> 
| 13> 
| 14> ! NoPop # population analysis not necessary	
| 15> 
| 16> ! DEFGRID3
| 17> ! ExtremeSCF
| 18> ! VeryTightOpt
| 19> 
| 20> 
| 21> ! SmallPrint
| 22> 
| 23> 
| 24> * xyzFile 0 1 start.xyz # only maingroup elements H and Al so there should be no net spin
| 25> 
| 26>                          ****END OF INPUT****
================================================================================

                       *****************************
                       * Geometry Optimization Run *
                       *****************************

Geometry optimization settings:
Update method            Update   .... BFGS
Choice of coordinates    CoordSys .... (2022) Redundant Internals
Initial Hessian          InHess   .... Almloef's Model
Max. no of cycles        MaxIter  .... 500

Convergence Tolerances:
Energy Change            TolE     ....  2.0000e-07 Eh
Max. Gradient            TolMAXG  ....  3.0000e-05 Eh/bohr
RMS Gradient             TolRMSG  ....  8.0000e-06 Eh/bohr
Max. Displacement        TolMAXD  ....  2.0000e-04 bohr
RMS Displacement         TolRMSD  ....  1.0000e-04 bohr
Strict Convergence                .... False

------------------------------------------------------------------------------
                        ORCA OPTIMIZATION COORDINATE SETUP
------------------------------------------------------------------------------

The optimization will be done in redundant internal coordinates (2022)
Making redundant internal coordinates   ...  (2022 redundants) done
Evaluating the initial hessian          ...  (Almloef) done
Evaluating the coordinates              ...  done
Calculating the B-matrix                .... done
Calculating the G-matrix                .... done
The number of degrees of freedom        ....  117

    -----------------------------------------------------------------
                    Redundant Internal Coordinates


    -----------------------------------------------------------------
         Definition                    Initial Value    Approx d2E/dq
    -----------------------------------------------------------------
      1. B(Al  1,Al  0)                  3.0616         0.066058   
      2. B(H   2,Al  1)                  1.7224         0.247245   
      3. B(H   3,Al  1)                  1.5866         0.407158   
      4. B(H   4,Al  1)                  1.7225         0.247142   
      5. B(H   4,Al  0)                  1.7218         0.247735   
      6. B(H   5,Al  0)                  1.5870         0.406573   
      7. B(H   6,Al  0)                  1.7157         0.253384   
      8. B(H   7,Al  1)                  1.5865         0.407188   
      9. B(Al  8,H   6)                  1.7157         0.253334   
     10. B(Al  8,H   2)                  1.7218         0.247752   
     11. B(Al  8,Al  1)                  3.0654         0.065149   
     12. B(Al  8,Al  0)                  3.0731         0.063328   
     13. B(H   9,Al  8)                  1.5870         0.406573   
     14. B(H  10,Al  8)                  1.5876         0.405682   
     15. B(H  11,Al  0)                  1.5876         0.405618   
     16. A(H   4,Al  0,H   6)           98.0673         0.327917   
     17. A(Al  1,Al  0,H   4)           27.2699         0.303977   
     18. A(Al  1,Al  0,Al  8)           59.9571         0.281576   
     19. A(Al  8,Al  0,H  11)          103.5571         0.327072   
     20. A(H   4,Al  0,H   5)          104.3939         0.354905   
     21. A(H   6,Al  0,H  11)          106.7636         0.356123   
     22. A(Al  1,Al  0,H   5)          131.4941         0.329485   
     23. A(Al  1,Al  0,H  11)           88.7691         0.329357   
     24. A(H   5,Al  0,H  11)          128.9146         0.386298   
     25. A(H   5,Al  0,H   6)          105.8749         0.356266   
     26. A(H   4,Al  0,Al  8)           74.2282         0.301933   
     27. A(Al  1,Al  0,H   6)           86.3707         0.305076   
     28. A(H   5,Al  0,Al  8)          122.4920         0.327198   
     29. A(H   4,Al  0,H  11)          108.6299         0.354764   
     30. A(H   6,Al  0,Al  8)           26.4167         0.303022   
     31. A(H   2,Al  1,H   7)          104.7519         0.354877   
     32. A(H   3,Al  1,H   4)          104.7520         0.354847   
     33. A(Al  0,Al  1,H   3)          127.3488         0.329563   
     34. A(H   2,Al  1,H   4)           95.8559         0.326465   
     35. A(H   4,Al  1,Al  8)           74.4479         0.303187   
     36. A(H   3,Al  1,Al  8)           98.6262         0.328809   
     37. A(H   2,Al  1,H   3)          109.3825         0.354872   
     38. A(H   2,Al  1,Al  8)           27.1180         0.303207   
     39. A(Al  0,Al  1,Al  8)           60.2074         0.282816   
     40. A(H   7,Al  1,Al  8)          127.3317         0.328814   
     41. A(Al  0,Al  1,H   4)           27.2587         0.303860   
     42. A(H   4,Al  1,H   7)          109.3707         0.354852   
     43. A(Al  0,Al  1,H   7)           98.6932         0.329567   
     44. A(Al  0,Al  1,H   2)           74.2402         0.303880   
     45. A(H   3,Al  1,H   7)          128.1011         0.386655   
     46. A(Al  1,H   2,Al  8)          125.7546         0.326598   
     47. A(Al  0,H   4,Al  1)          125.4713         0.326572   
     48. A(Al  0,H   6,Al  8)          127.1675         0.329128   
     49. A(Al  1,Al  8,H   2)           27.1275         0.303306   
     50. A(Al  0,Al  8,H   2)           73.9095         0.301936   
     51. A(Al  0,Al  8,Al  1)           59.8354         0.280973   
     52. A(H   6,Al  8,H  10)          106.6762         0.356121   
     53. A(H   2,Al  8,H  10)          108.6570         0.354777   
     54. A(Al  1,Al  8,H  10)           89.0462         0.328612   
     55. A(Al  0,Al  8,H  10)          104.3229         0.327080   
     56. A(H   6,Al  8,H   9)          105.9639         0.356253   
     57. A(H   9,Al  8,H  10)          128.8994         0.386309   
     58. A(H   2,Al  8,H   9)          104.3568         0.354909   
     59. A(Al  1,Al  8,H   9)          131.2887         0.328731   
     60. A(Al  0,Al  8,H   9)          121.8595         0.327198   
     61. A(H   2,Al  8,H   6)           98.1108         0.327909   
     62. A(Al  1,Al  8,H   6)           86.2481         0.304390   
     63. A(Al  0,Al  8,H   6)           26.4158         0.303012   
     64. D(H   2,Al  1,Al  0,H   4)   -141.1883         0.010000   
     65. D(H   3,Al  1,Al  0,H   6)     76.8919         0.010000   
     66. D(H   3,Al  1,Al  0,H   5)    -31.1567         0.010000   
     67. D(H   3,Al  1,Al  0,Al  8)     77.3195         0.010000   
     68. D(H   2,Al  1,Al  0,Al  8)    -25.2962         0.010000   
     69. D(H   3,Al  1,Al  0,H   4)    -38.5726         0.010000   
     70. D(H   2,Al  1,Al  0,H   6)    -25.7238         0.010000   
     71. D(H   2,Al  1,Al  0,H   5)   -133.7723         0.010000   
     72. D(H   2,Al  1,Al  0,H  11)     81.1601         0.010000   
     73. D(H   3,Al  1,Al  0,H  11)   -176.2242         0.010000   
     74. D(Al  8,H   2,Al  1,H   7)    149.4950         0.010000   
     75. D(Al  8,H   2,Al  1,H   3)    -70.2357         0.010000   
     76. D(Al  8,H   2,Al  1,Al  0)     54.4413         0.010000   
     77. D(Al  8,H   2,Al  1,H   4)     37.6689         0.010000   
     78. D(Al  1,H   4,Al  0,H   5)   -174.2717         0.010000   
     79. D(Al  0,H   4,Al  1,H   7)    -70.5746         0.010000   
     80. D(Al  0,H   4,Al  1,Al  8)     54.1337         0.010000   
     81. D(Al  0,H   4,Al  1,H   3)    149.1658         0.010000   
     82. D(Al  0,H   4,Al  1,H   2)     37.3273         0.010000   
     83. D(Al  1,H   4,Al  0,H  11)     45.2937         0.010000   
     84. D(Al  1,H   4,Al  0,Al  8)    -54.0199         0.010000   
     85. D(Al  1,H   4,Al  0,H   6)    -65.5119         0.010000   
     86. D(Al  8,H   6,Al  0,H   4)     25.5282         0.010000   
     87. D(Al  8,H   6,Al  0,Al  1)      0.8320         0.010000   
     88. D(Al  8,H   6,Al  0,H   5)    133.0660         0.010000   
     89. D(Al  8,H   6,Al  0,H  11)    -86.7846         0.010000   
     90. D(Al  1,Al  8,Al  0,H  11)    -80.5036         0.010000   
     91. D(Al  1,Al  8,Al  0,H   6)    179.0408         0.010000   
     92. D(Al  1,Al  8,Al  0,H   5)    122.6207         0.010000   
     93. D(H   2,Al  8,Al  0,Al  1)     25.3496         0.010000   
     94. D(Al  1,Al  8,Al  0,H   4)     25.3607         0.010000   
     95. D(H   9,Al  8,H   6,Al  0)    131.1617         0.010000   
     96. D(H   2,Al  8,H   6,Al  0)     23.6272         0.010000   
     97. D(Al  1,Al  8,H   6,Al  0)     -0.8311         0.010000   
     98. D(H  10,Al  8,H   2,Al  1)     45.7677         0.010000   
     99. D(H   9,Al  8,H   2,Al  1)   -173.8271         0.010000   
    100. D(H   6,Al  8,H   2,Al  1)    -64.9680         0.010000   
    101. D(H   6,Al  8,Al  1,H   2)    115.9816         0.010000   
    102. D(H   6,Al  8,Al  1,Al  0)      0.4276         0.010000   
    103. D(H   2,Al  8,Al  1,H   7)    -38.1231         0.010000   
    104. D(H   2,Al  8,Al  1,H   4)   -140.8752         0.010000   
    105. D(H   2,Al  8,Al  1,H   3)    116.1151         0.010000   
    106. D(H   2,Al  8,Al  1,Al  0)   -115.5539         0.010000   
    107. D(Al  0,Al  8,Al  1,H   7)     77.4308         0.010000   
    108. D(Al  0,Al  8,Al  1,H   4)    -25.3212         0.010000   
    109. D(Al  0,Al  8,H   2,Al  1)    -54.2736         0.010000   
    110. D(Al  0,Al  8,Al  1,H   3)   -128.3310         0.010000   
    111. D(Al  0,Al  8,Al  1,H   2)    115.5539         0.010000   
    112. D(H   6,Al  8,Al  0,Al  1)   -179.0408         0.010000   
    113. D(H   2,Al  8,Al  0,H  11)    -55.1540         0.010000   
    114. D(H   2,Al  8,Al  0,H   6)   -155.6096         0.010000   
    115. D(H   2,Al  8,Al  0,H   5)    147.9703         0.010000   
    116. D(H  10,Al  8,H   6,Al  0)    -88.7073         0.010000   
    117. D(H   2,Al  8,Al  0,H   4)     50.7103         0.010000   
    -----------------------------------------------------------------

Number of atoms                         .... 12
Number of degrees of freedom            .... 117


         *************************************************************
         *                GEOMETRY OPTIMIZATION CYCLE   1            *
         *************************************************************
---------------------------------
CARTESIAN COORDINATES (ANGSTROEM)
---------------------------------
  Al    -0.229336    1.518703    2.565116
  Al     0.000112   -0.000504   -0.083076
  H      0.872647   -0.936119    1.070095
  H     -1.104359   -0.908608   -0.770597
  H     -0.863311    0.941431    1.071975
  H     -1.473730    2.184180    3.291105
  H      0.004026    0.001019    3.330439
  H      1.099008    0.904057   -0.784024
  Al     0.255504   -1.515923    2.569274
  H      1.513503   -2.162228    3.289111
  H     -1.181016   -2.143499    2.318487
  H      1.213893    2.125802    2.302455

----------------------------
CARTESIAN COORDINATES (A.U.)
----------------------------
  NO LB      ZA    FRAG     MASS         X           Y           Z
   0 Al   13.0000    0    26.982   -0.433383    2.869932    4.847367
   1 Al   13.0000    0    26.982    0.000213   -0.000953   -0.156991
   2 H     1.0000    0     1.008    1.649064   -1.769008    2.022187
   3 H     1.0000    0     1.008   -2.086937   -1.717021   -1.456217
   4 H     1.0000    0     1.008   -1.631422    1.779047    2.025739
   5 H     1.0000    0     1.008   -2.784947    4.127502    6.219287
   6 H     1.0000    0     1.008    0.007608    0.001925    6.293617
   7 H     1.0000    0     1.008    2.076824    1.708421   -1.481591
   8 Al   13.0000    0    26.982    0.482833   -2.864680    4.855224
   9 H     1.0000    0     1.008    2.860107   -4.086019    6.215520
  10 H     1.0000    0     1.008   -2.231796   -4.050626    4.381305
  11 H     1.0000    0     1.008    2.293925    4.017183    4.351009

--------------------------------
INTERNAL COORDINATES (ANGSTROEM)
--------------------------------
 Al     0   0   0     0.000000000000     0.00000000     0.00000000
 Al     1   0   0     3.061626664413     0.00000000     0.00000000
 H      2   1   0     1.722351193348    74.24023321     0.00000000
 H      2   1   3     1.586567350603   127.34882232   102.61565028
 H      1   2   3     1.721812237687    27.26993737   218.81172661
 H      1   2   3     1.586958318248   131.49411502   226.22768752
 H      1   2   3     1.715675058198    86.37074864   334.27621942
 H      2   1   3     1.586547067194    98.69322919   257.02628612
 Al     7   1   2     1.715729209230   127.16748732     0.83198618
 H      9   7   1     1.586958575288   105.96385021   131.16165909
 H      9   7   1     1.587555950282   106.67618388   271.29272972
 H      1   2   3     1.587599103362    88.76907786    81.16010090

---------------------------
INTERNAL COORDINATES (A.U.)
---------------------------
 Al     0   0   0     0.000000000000     0.00000000     0.00000000
 Al     1   0   0     5.785635920052     0.00000000     0.00000000
 H      2   1   0     3.254772061860    74.24023321     0.00000000
 H      2   1   3     2.998177785661   127.34882232   102.61565028
 H      1   2   3     3.253753583262    27.26993737   218.81172661
 H      1   2   3     2.998916607437   131.49411502   226.22768752
 H      1   2   3     3.242155994795    86.37074864   334.27621942
 H      2   1   3     2.998139455573    98.69322919   257.02628612
 Al     7   1   2     3.242258325415   127.16748732     0.83198618
 H      9   7   1     2.998917093172   105.96385021   131.16165909
 H      9   7   1     3.000045968310   106.67618388   271.29272972
 H      1   2   3     3.000127515814    88.76907786    81.16010090

---------------------
BASIS SET INFORMATION
---------------------
There are 2 groups of distinct atoms

 Group   1 Type Al  : 10s7p1d contracted to 4s3p1d pattern {5311/511/1}
 Group   2 Type H   : 4s contracted to 2s pattern {31}

Atom   0Al   basis set group =>   1
Atom   1Al   basis set group =>   1
Atom   2H    basis set group =>   2
Atom   3H    basis set group =>   2
Atom   4H    basis set group =>   2
Atom   5H    basis set group =>   2
Atom   6H    basis set group =>   2
Atom   7H    basis set group =>   2
Atom   8Al   basis set group =>   1
Atom   9H    basis set group =>   2
Atom  10H    basis set group =>   2
Atom  11H    basis set group =>   2
---------------------------------
AUXILIARY/J BASIS SET INFORMATION
---------------------------------
There are 2 groups of distinct atoms

 Group   1 Type Al  : 14s5p5d2f1g contracted to 8s4p3d1f1g pattern {71111111/2111/311/2/1}
 Group   2 Type H   : 5s2p1d contracted to 3s1p1d pattern {311/2/1}

Atom   0Al   basis set group =>   1
Atom   1Al   basis set group =>   1
Atom   2H    basis set group =>   2
Atom   3H    basis set group =>   2
Atom   4H    basis set group =>   2
Atom   5H    basis set group =>   2
Atom   6H    basis set group =>   2
Atom   7H    basis set group =>   2
Atom   8Al   basis set group =>   1
Atom   9H    basis set group =>   2
Atom  10H    basis set group =>   2
Atom  11H    basis set group =>   2


           ************************************************************
           *        Program running with 24 parallel MPI-processes    *
           *              working on a common directory               *
           ************************************************************
------------------------------------------------------------------------------
                             ORCA STARTUP CALCULATIONS
                           -- RI-GTO INTEGRALS CHOSEN --
------------------------------------------------------------------------------
------------------------------------------------------------------------------
                   ___                                                        
                  /   \      - P O W E R E D   B Y -                         
                 /     \                                                     
                 |  |  |   _    _      __       _____    __    __             
                 |  |  |  | |  | |    /  \     |  _  \  |  |  /  |          
                  \  \/   | |  | |   /    \    | | | |  |  | /  /          
                 / \  \   | |__| |  /  /\  \   | |_| |  |  |/  /          
                |  |  |   |  __  | /  /__\  \  |    /   |      \           
                |  |  |   | |  | | |   __   |  |    \   |  |\   \          
                \     /   | |  | | |  |  |  |  | |\  \  |  | \   \       
                 \___/    |_|  |_| |__|  |__|  |_| \__\ |__|  \__/        
                                                                              
                      - O R C A' S   B I G   F R I E N D -                    
                                      &                                       
                       - I N T E G R A L  F E E D E R -                       
                                                                              
 v1 FN, 2020, v2 2021, v3 2022-2024                                           
------------------------------------------------------------------------------


----------------------
SHARK INTEGRAL PACKAGE
----------------------

Number of atoms                             ...     12
Number of basis functions                   ...     72
Number of shells                            ...     42
Maximum angular momentum                    ...      2
Integral batch strategy                     ... SHARK/LIBINT Hybrid
RI-J (if used) integral strategy            ... SPLIT-RIJ (Revised 2003 algorithm where possible)
Printlevel                                  ...      1
Contraction scheme used                     ... SEGMENTED contraction
Prescreening option                         ... SCHWARTZ
   Thresh                                   ... 3.000e-16
   Tcut                                     ... 3.000e-16
   Tpresel                                  ... 3.000e-16 
Coulomb Range Separation                    ... NOT USED
Exchange Range Separation                   ... NOT USED
Multipole approximations                    ... NOT USED
Finite Nucleus Model                        ... NOT USED
CABS basis                                  ... NOT available
Auxiliary Coulomb fitting basis             ... AVAILABLE
   # of basis functions in Aux-J            ...    252
   # of shells in Aux-J                     ...     96
   Maximum angular momentum in Aux-J        ...      4
Auxiliary J/K fitting basis                 ... NOT available
Auxiliary Correlation fitting basis         ... NOT available
Auxiliary 'external' fitting basis          ... NOT available

Checking pre-screening integrals            ... done (  0.0 sec) Dimension = 42
   => SHARK Basis and OBASIS are compatible. Storing Pre-screening
Shell pair information
Shell pair cut-off parameter TPreSel        ...   3.0e-16
Total number of shell pairs                 ...       903
Shell pairs after pre-screening             ...       882
Total number of primitive shell pairs       ...      4191
Primitive shell pairs kept                  ...      3043
          la=0 lb=0:    450 shell pairs
          la=1 lb=0:    264 shell pairs
          la=1 lb=1:     45 shell pairs
          la=2 lb=0:     90 shell pairs
          la=2 lb=1:     27 shell pairs
          la=2 lb=2:      6 shell pairs

Checking whether 4 symmetric matrices of dimension 72 fit in memory
:Max Core in MB      =   4096.00
 MB in use           =      4.47
 MB left             =   4091.53
 MB needed           =      0.08
 Data fit in memory  = YES
Calculating RI/J V-Matrix + Cholesky decomp.... done (  0.1 sec)
Calculating Nuclear repulsion               ... done (  0.0 sec) ENN=    170.946225274334 Eh

Diagonalization of the overlap matrix:
Smallest eigenvalue                        ... 1.082e-02
Time for diagonalization                   ...    0.040 sec
Threshold for overlap eigenvalues          ... 1.000e-07
Number of eigenvalues below threshold      ... 0
Time for construction of square roots      ...    0.001 sec
Total time needed                          ...    0.043 sec

-------------------
DFT GRID GENERATION
-------------------

General Integration Accuracy     IntAcc      ... 4.959
Radial Grid Type                 RadialGrid  ... OptM3 with GC (2021)
Angular Grid (max. ang.)         AngularGrid ... 6 (Lebedev-590)
Angular grid pruning method      GridPruning ... 4 (adaptive)
Weight generation scheme         WeightScheme... mBecke (2022)
Basis function cutoff            BFCut       ... 3.0000e-16
Integration weight cutoff        WCut        ... 1.0000e-14
Partially contracted basis set               ... off
Rotationally invariant grid construction     ... off
Angular grids for H and He will be reduced by one unit

Total number of grid points                  ...   128061
Total number of batches                      ...     2007
Average number of points per batch           ...       63
Average number of grid points per atom       ...    10672

--------------------
COSX GRID GENERATION
--------------------

GRIDX 1
-------
General Integration Accuracy     IntAcc      ... 4.020
Radial Grid Type                 RadialGrid  ... OptM3 with GC (2021)
Angular Grid (max. ang.)         AngularGrid ... 2 (Lebedev-110)
Angular grid pruning method      GridPruning ... 4 (adaptive)
Weight generation scheme         WeightScheme... mBecke (2022)
Basis function cutoff            BFCut       ... 3.0000e-16
Integration weight cutoff        WCut        ... 1.0000e-14
Partially contracted basis set               ... on
Rotationally invariant grid construction     ... off
Angular grids for H and He will be reduced by one unit

Total number of grid points                  ...    12853
Total number of batches                      ...      106
Average number of points per batch           ...      121
Average number of grid points per atom       ...     1071
UseSFitting                                  ... on

GRIDX 2
-------
General Integration Accuracy     IntAcc      ... 4.338
Radial Grid Type                 RadialGrid  ... OptM3 with GC (2021)
Angular Grid (max. ang.)         AngularGrid ... 3 (Lebedev-194)
Angular grid pruning method      GridPruning ... 4 (adaptive)
Weight generation scheme         WeightScheme... mBecke (2022)
Basis function cutoff            BFCut       ... 3.0000e-16
Integration weight cutoff        WCut        ... 1.0000e-14
Partially contracted basis set               ... on
Rotationally invariant grid construction     ... off
Angular grids for H and He will be reduced by one unit

Total number of grid points                  ...    29704
Total number of batches                      ...      238
Average number of points per batch           ...      124
Average number of grid points per atom       ...     2475
UseSFitting                                  ... on

GRIDX 3
-------
General Integration Accuracy     IntAcc      ... 4.871
Radial Grid Type                 RadialGrid  ... OptM3 with GC (2021)
Angular Grid (max. ang.)         AngularGrid ... 4 (Lebedev-302)
Angular grid pruning method      GridPruning ... 4 (adaptive)
Weight generation scheme         WeightScheme... mBecke (2022)
Basis function cutoff            BFCut       ... 3.0000e-16
Integration weight cutoff        WCut        ... 1.0000e-14
Partially contracted basis set               ... on
Rotationally invariant grid construction     ... off
Angular grids for H and He will be reduced by one unit

Total number of grid points                  ...    59620
Total number of batches                      ...      469
Average number of points per batch           ...      127
Average number of grid points per atom       ...     4968
UseSFitting                                  ... on
Grids setup in   4.3 sec
Initializing property integral containers    ... done (  0.0 sec)

SHARK setup successfully completed in   4.8 seconds

Maximum memory used throughout the entire STARTUP-calculation: 26.0 MB


           ************************************************************
           *        Program running with 24 parallel MPI-processes    *
           *              working on a common directory               *
           ************************************************************
-------------------------------------------------------------------------------
                                 ORCA GUESS
                   Start orbitals & Density for SCF / CASSCF
-------------------------------------------------------------------------------

------------
SCF SETTINGS
------------
Hamiltonian:
 Density Functional     Method          .... DFT(GTOs)
 Exchange Functional    Exchange        .... PBE
   PBE kappa parameter   XKappa         ....  1.024500
   PBE mue parameter    XMuePBE         ....  0.123457
 Correlation Functional Correlation     .... PBE
   PBE beta parameter  CBetaPBE         ....  0.030000
 LDA part of GGA corr.  LDAOpt          .... PW91-LDA
 Gradients option       PostSCFGGA      .... off
 Hybrid DFT is turned on
   Fraction HF Exchange ScalHFX         ....  0.420000
   Scaling of DF-GGA-X  ScalDFX         ....  0.580000
   Scaling of DF-GGA-C  ScalDFC         ....  1.000000
   Scaling of DF-LDA-C  ScalLDAC        ....  1.000000
   Perturbative correction              ....  0.000000
 RI-approximation to the Coulomb term is turned on
   Number of AuxJ basis functions       .... 252
   RIJ-COSX (HFX calculated with COS-X)).... on


General Settings:
 Integral files         IntName         .... run
 Hartree-Fock type      HFTyp           .... RHF
 Total Charge           Charge          ....    0
 Multiplicity           Mult            ....    1
 Number of Electrons    NEL             ....   48
 Basis Dimension        Dim             ....   72
 Nuclear Repulsion      ENuc            ....    170.9462252743 Eh

Convergence Acceleration:
 AO-DIIS                CNVDIIS         .... on
   Start iteration      DIISMaxIt       ....    12
   Startup error        DIISStart       ....  0.200000
   # of expansion vecs  DIISMaxEq       ....     5
   Bias factor          DIISBfac        ....   1.050
   Max. coefficient     DIISMaxC        ....  10.000
 MO-DIIS                CNVKDIIS        .... off
 Trust-Rad. Augm. Hess. CNVTRAH         .... auto
   Auto Start mean grad. ratio tolernc. ....  1.125000
   Auto Start start iteration           ....    50
   Auto Start num. interpolation iter.  ....    10
   Max. Number of Micro iterations      ....    24
   Max. Number of Macro iterations      .... Maxiter - #DIIS iter
   Number of Davidson start vectors     ....     2
   Converg. threshold    (grad. norm)   ....   1.000e-09
   Grad. Scal. Fac. for Micro threshold ....   0.100
   Minimum threshold for Micro iter.    ....   1.000e-02
   NR start threshold (gradient norm)   ....   1.000e-04
   Initial trust radius                 ....   0.400
   Minimum AH scaling param. (alpha)    ....   1.000
   Maximum AH scaling param. (alpha)    .... 1000.000
   Quad. conv. algorithm                .... NR
   White noise on init. David. guess    .... on
   Maximum white noise                  ....   0.010
   Pseudo random numbers                .... off
   Inactive MOs                         .... canonical
   Orbital update algorithm             .... Taylor
   Preconditioner                       .... Diag
   Full preconditioner red. dimension   ....   250
 SOSCF                 CNVSOSCF           .... on
   Start iteration     SOSCFMaxIt         ....   150
   Startup grad/error  SOSCFStart         ....  0.003300
   Hessian update      SOSCFHessUp        .... L-BFGS
   Autom. constraints  SOSCFAutoConstrain .... off
 Level Shifting         CNVShift        .... on
   Level shift para.    LevelShift      ....    0.2500
   Turn off err/grad.   ShiftErr        ....    0.0010
 Zerner damping         CNVZerner       .... off
 Static damping         CNVDamp         .... on
   Fraction old density DampFac         ....    0.7000
   Max. Damping (<1)    DampMax         ....    0.9800
   Min. Damping (>=0)   DampMin         ....    0.0000
   Turn off err/grad.   DampErr         ....    0.1000

SCF Procedure:
 Maximum # iterations   MaxIter         ....   125
 SCF integral mode      SCFMode         .... Direct
   Integral package                     .... SHARK and LIBINT hybrid scheme
 Reset frequency        DirectResetFreq ....    20
 Integral Threshold     Thresh          ....  3.000e-16 Eh
 Primitive CutOff       TCut            ....  3.000e-16 Eh

Convergence Tolerance:
 Convergence Check Mode ConvCheckMode   .... All-Criteria
 Convergence forced     ConvForced      .... 0
 Energy Change          TolE            ....  1.000e-14 Eh
 Max Density Change     TolMaxP         ....  1.000e-14
 RMS Density Change     TolRMSP         ....  1.000e-14
 Orbital Gradient       TolG            ....  1.000e-09
 Orbital Rotation angle TolX            ....  1.000e-09
 DIIS Error             TolErr          ....  1.000e-14

--------------------------------
INITIAL GUESS: MINIMAL BASIS EHT
--------------------------------
The minimal basis has 36 functions
EHT matrix was diagonalized
Basis set overlap was calculated now projecting the orbitals
Using GuessMode=FMatrix for the initial guess
C*T matrix was formed
Effective Fockian was calculated
Effective Fockian was diagonalized
Initial density was built
                      ------------------
                      INITIAL GUESS DONE
                      ------------------
             **** ENERGY FILE WAS UPDATED (run.en.tmp) ****
Finished Guess after   0.7 sec
Maximum memory used throughout the entire GUESS-calculation: 6.7 MB


           ************************************************************
           *        Program running with 24 parallel MPI-processes    *
           *              working on a common directory               *
           ************************************************************

-------------------------------------------------------------------------------------------
                                      ORCA LEAN-SCF
                              memory conserving SCF solver
-------------------------------------------------------------------------------------------

----------------------------------------D-I-I-S--------------------------------------------
Iteration    Energy (Eh)           Delta-E    RMSDP     MaxDP     DIISErr   Damp  Time(sec)
-------------------------------------------------------------------------------------------
               ***  Starting incremental Fock matrix formation  ***
    1    -730.6370993809175616     0.00e+00  5.00e-02  9.43e-02  3.40e-01  0.700   0.6
    2    -730.9663737835170423    -3.29e-01  4.18e-02  7.47e-02  2.43e-01  0.700   0.4
                               ***Turning on AO-DIIS***
    3    -731.1954388005915462    -2.29e-01  2.93e-02  4.86e-02  1.69e-01  0.700   0.4
    4    -731.3508652702834070    -1.55e-01  2.09e-02  3.33e-02  1.18e-01  0.700   0.4
    5    -731.4577634245229092    -1.07e-01  1.48e-02  2.33e-02  8.22e-02  0.700   0.3
    6    -731.5318513405945851    -7.41e-02  3.50e-02  5.49e-02  5.74e-02  0.000   0.3
                              *** Initializing SOSCF ***
---------------------------------------S-O-S-C-F--------------------------------------
Iteration    Energy (Eh)           Delta-E    RMSDP     MaxDP     MaxGrad    Time(sec)
--------------------------------------------------------------------------------------
    7    -731.7025973471355655    -1.71e-01  7.36e-04  1.34e-03  7.43e-04     0.4
               *** Restarting incremental Fock matrix formation ***
    8    -731.7026032523923504    -5.91e-06  5.11e-04  1.49e-03  2.64e-04     0.5
    9    -731.7026058756069915    -2.62e-06  1.23e-04  3.39e-04  5.27e-05     0.4
   10    -731.7026059835112619    -1.08e-07  4.94e-06  8.19e-06  2.45e-06     0.4
   11    -731.7026059839470236    -4.36e-10  1.23e-06  1.67e-06  9.64e-07     0.4
   12    -731.7026059839517984    -4.77e-12  3.15e-07  1.21e-06  1.56e-07     0.4
   13    -731.7026059839456593     6.14e-12  5.44e-08  2.06e-07  3.22e-08     0.4
   14    -731.7026059839467962    -1.14e-12  2.64e-09  3.31e-09  2.70e-09     0.4
   15    -731.7026059839464551     3.41e-13  0.00e+00  0.00e+00  9.97e-10     0.4
                           ***RMSP convergence achieved***
                           ***MAXP convergence achieved***
                       ***Gradient convergence achieved***
                    ***Orbital Rotation convergence achieved***
   16    -731.7026059839464551     0.00e+00  0.00e+00  0.00e+00  9.97e-10     0.2
                          ***Energy convergence achieved***

               *****************************************************
               *                     SUCCESS                       *
               *           SCF CONVERGED AFTER  16 CYCLES          *
               *****************************************************

Recomputing exchange energy using gridx3       ... done (    0.513 sec)
Old exchange energy                            :    -24.166997552 Eh
New exchange energy                            :    -24.166994039 Eh
Exchange energy change after final integration :      0.000003513 Eh
Total energy after final integration           :   -731.702602471 Eh
             **** ENERGY FILE WAS UPDATED (run.en.tmp) ****

----------------
TOTAL SCF ENERGY
----------------

Total Energy       :       -731.70260247125373 Eh          -19910.64005 eV

Components:
Nuclear Repulsion  :        170.94622527433378 Eh            4651.68328 eV
Electronic Energy  :       -902.64883125828010 Eh          -24562.32342 eV
One Electron Energy:      -1356.20233958466451 Eh          -36904.14183 eV
Two Electron Energy:        453.55350832638436 Eh           12341.81841 eV

Virial components:
Potential Energy   :      -1461.76117560247098 Eh          -39776.54379 eV
Kinetic Energy     :        730.05857313121726 Eh           19865.90374 eV
Virial Ratio       :          2.00225191429913

DFT components:
N(Alpha)           :       24.000002608875 electrons
N(Beta)            :       24.000002608875 electrons
N(Total)           :       48.000005217750 electrons
E(X)               :      -32.144609907491 Eh       
E(C)               :       -2.218094668445 Eh       
E(XC)              :      -34.362704575936 Eh       

---------------
SCF CONVERGENCE
---------------

  Last Energy change         ...    0.0000e+00  Tolerance :   1.0000e-14
  Last MAX-Density change    ...    0.0000e+00  Tolerance :   1.0000e-14
  Last RMS-Density change    ...    0.0000e+00  Tolerance :   1.0000e-14
  Last DIIS Error            ...    7.4288e-04  Tolerance :   1.0000e-14
  Last Orbital Gradient      ...    9.9668e-10  Tolerance :   1.0000e-09
  Last Orbital Rotation      ...    0.0000e+00  Tolerance :   1.0000e-09


----------------
ORBITAL ENERGIES
----------------

  NO   OCC          E(Eh)            E(eV) 
   0   2.0000     -56.625135     -1540.8483 
   1   2.0000     -56.625103     -1540.8474 
   2   2.0000     -56.623969     -1540.8165 
   3   2.0000      -4.366542      -118.8197 
   4   2.0000      -4.366519      -118.8190 
   5   2.0000      -4.365291      -118.7856 
   6   2.0000      -2.857364       -77.7528 
   7   2.0000      -2.857309       -77.7513 
   8   2.0000      -2.856248       -77.7225 
   9   2.0000      -2.855857       -77.7118 
  10   2.0000      -2.855802       -77.7103 
  11   2.0000      -2.854459       -77.6738 
  12   2.0000      -2.851128       -77.5831 
  13   2.0000      -2.851101       -77.5824 
  14   2.0000      -2.849810       -77.5473 
  15   2.0000      -0.598928       -16.2977 
  16   2.0000      -0.495836       -13.4924 
  17   2.0000      -0.493085       -13.4175 
  18   2.0000      -0.401292       -10.9197 
  19   2.0000      -0.393975       -10.7206 
  20   2.0000      -0.381255       -10.3745 
  21   2.0000      -0.373529       -10.1642 
  22   2.0000      -0.361475        -9.8362 
  23   2.0000      -0.354250        -9.6396 
  24   0.0000      -0.009653        -0.2627 
  25   0.0000      -0.004772        -0.1299 
  26   0.0000      -0.002406        -0.0655 
  27   0.0000       0.017008         0.4628 
  28   0.0000       0.046303         1.2600 
  29   0.0000       0.062344         1.6965 
  30   0.0000       0.064482         1.7547 
  31   0.0000       0.095739         2.6052 
  32   0.0000       0.098826         2.6892 
  33   0.0000       0.108924         2.9640 
  34   0.0000       0.158559         4.3146 
*Only the first 10 virtual orbitals were printed.
-------
TIMINGS
-------

Total SCF time: 0 days 0 hours 0 min 7 sec 

Total time                  ....       7.920 sec
Sum of individual times     ....       7.598 sec  ( 95.9%)

SCF preparation             ....       0.689 sec  (  8.7%)
Fock matrix formation       ....       6.512 sec  ( 82.2%)
  Startup                   ....       0.023 sec  (  0.4% of F)
  Split-RI-J                ....       0.374 sec  (  5.8% of F)
  Chain of spheres X        ....       4.188 sec  ( 64.3% of F)
  XC integration            ....       1.831 sec  ( 28.1% of F)
    XC Preparation          ....       0.000 sec  (  0.0% of XC)
    Basis function eval.    ....       0.469 sec  ( 25.6% of XC)
    Density eval.           ....       0.211 sec  ( 11.5% of XC)
    XC-Functional eval.     ....       0.115 sec  (  6.3% of XC)
    XC-Potential eval.      ....       0.210 sec  ( 11.5% of XC)
Diagonalization             ....       0.000 sec  (  0.0%)
Density matrix formation    ....       0.056 sec  (  0.7%)
Total Energy calculation    ....       0.038 sec  (  0.5%)
Population analysis         ....       0.000 sec  (  0.0%)
Orbital Transformation      ....       0.025 sec  (  0.3%)
Orbital Orthonormalization  ....       0.000 sec  (  0.0%)
DIIS solution               ....       0.155 sec  (  2.0%)
SOSCF solution              ....       0.124 sec  (  1.6%)
Finished LeanSCF after   7.9 sec

Maximum memory used throughout the entire LEANSCF-calculation: 7.7 MB


           ************************************************************
           *        Program running with 24 parallel MPI-processes    *
           *              working on a common directory               *
           ************************************************************

------------------------------------------------------------------------------
                         ORCA PROPERTY INTEGRAL CALCULATIONS
------------------------------------------------------------------------------

GBWName                                   ... run.gbw
Number of atoms                           ...     12
Number of basis functions                 ...     72
Max core memory                           ...   4096 MB

Dipole integrals                          ... YES
Quadrupole integrals                      ...  NO
Linear momentum integrals                 ...  NO
Angular momentum integrals                ...  NO
Higher moments length integrals           ...  NO
Higher moments velocity integrals         ...  NO
Kinetic energy integrals                  ...  NO
GIAO right hand sides                     ...  NO
GIAO dipole derivative integrals          ...  NO
SOC integrals                             ...  NO
EPR diamagnetic integrals (GIAO)          ...  NO
EPR gauge integrals                       ...  NO
Field gradient integrals                  ...  NO (   0 nuclei)
Spin-dipole/Fermi contact integrals       ...  NO (   0 nuclei)
Contact density integrals                 ...  NO (   0 nuclei)
Nucleus-orbit integrals                   ...  NO (   0 nuclei)
Geometric perturbations                   ...  NO (  12 nuclei)

Choice of electric origin   ... Center of mass
Position of electric origin ... (  0.0166,  0.0014,  3.1811) 
Choice of magnetic origin   ... GIAO
Position of magnetic origin ... (  0.0000,  0.0000,  0.0000) 

Calculating integrals                     ... Electric Dipole (Length)     done (  0.0 sec)

Property integrals calculated in   0.0 sec

Maximum memory used throughout the entire PROPINT-calculation: 6.8 MB


-------------------------------------------------------------------------------
                          DFT DISPERSION CORRECTION                            
                                                                               
                              DFTD3 V3.1  Rev 1                                
                          USING Becke-Johnson damping                          
-------------------------------------------------------------------------------
The PBEh-3c composite method is recognized
Using three-body term ABC
Active option DFTDOPT                   ...         4   

molecular C6(AA) [au] = 2779.581980 


            DFT-D V3
 parameters
 s6 scaling factor         :     1.0000 
 a1 scaling factor         :     0.4860 
 s8 scaling factor         :     0.0000 
 a2 scaling factor         :     4.5000 
 Damping factor alpha9(ATM):    16.0000 
 ad hoc parameters k1-k3   :    16.0000     1.3333    -4.0000 

 Edisp/kcal,au: -2.732125298640  -0.004353918339 
 E6   /kcal   :  -2.740934024 
 E8   /kcal   :  -0.000000000 
 E6(ABC)      :   0.008808725 
 % E8         :   0.000000000 
 % E6(ABC)    :  -0.322412936 

-------------------------   ----------------
Dispersion correction           -0.004353918
-------------------------   ----------------

------------------   -----------------
gCP correction             0.020331721
------------------   -----------------

-------------------------   --------------------
FINAL SINGLE POINT ENERGY      -731.686624668393
-------------------------   --------------------



           ************************************************************
           *        Program running with 24 parallel MPI-processes    *
           *              working on a common directory               *
           ************************************************************
------------------------------------------------------------------------------
                         ORCA SCF GRADIENT CALCULATION
------------------------------------------------------------------------------

Nuc. rep. gradient        (SHARK) ... done (  0.0 sec)
HCore & Overlap gradient  (SHARK) ... done (  0.0 sec)
Split-RIJ-J gradient      (SHARK) ... done (  0.3 sec)
done (  2.4 sec)
XC gradient                       ... done (  0.7 sec)
Dispersion correction             ... done (  0.1 sec)

-------------------
DISPERSION GRADIENT
-------------------

   1   Al  :   -0.000017449    0.000115335    0.000068131
   2   Al  :   -0.000000659   -0.000000011   -0.000135240
   3   H   :    0.000035991   -0.000042794   -0.000026844
   4   H   :   -0.000034547   -0.000019896   -0.000080095
   5   H   :   -0.000036387    0.000042885   -0.000026732
   6   H   :   -0.000040101    0.000056652    0.000040019
   7   H   :   -0.000000224    0.000000019    0.000067160
   8   H   :    0.000033758    0.000019664   -0.000080445
   9   Al  :    0.000018068   -0.000115290    0.000068544
  10   H   :    0.000040800   -0.000056476    0.000040019
  11   H   :   -0.000040542   -0.000081302    0.000032982
  12   H   :    0.000041292    0.000081212    0.000032499

Difference to translation invariance:
           :    0.0000000000    0.0000000000    0.0000000000

Difference to rotation invariance:
           :    0.0000000000   -0.0000000000   -0.0000000000

Norm of the Dispersion gradient    ...    0.0003386238
RMS gradient                       ...    0.0000564373
MAX gradient                       ...    0.0001352402
gCP correction                   ... done

------------------
CARTESIAN GRADIENT
------------------

   1   Al  :    0.001820927   -0.001370181   -0.001293104
   2   Al  :   -0.000006978   -0.000000452    0.001620491
   3   H   :    0.004161645   -0.001121959   -0.001140835
   4   H   :   -0.003235568   -0.002434620   -0.002162194
   5   H   :   -0.004169777    0.001147530   -0.001119437
   6   H   :   -0.003689524    0.001807730    0.001971023
   7   H   :   -0.000049272   -0.000002460    0.004378348
   8   H   :    0.003224613    0.002425918   -0.002185970
   9   Al  :   -0.001809318    0.001364429   -0.001262542
  10   H   :    0.003727548   -0.001759929    0.001942355
  11   H   :   -0.003885715   -0.002266956   -0.000353728
  12   H   :    0.003911419    0.002210950   -0.000394407

Difference to translation invariance:
           :    0.0000000000    0.0000000000   -0.0000000000

Difference to rotation invariance:
           :   -0.0000014466   -0.0000003006    0.0000261251

Norm of the Cartesian gradient     ...    0.0141279433
RMS gradient                       ...    0.0023546572
MAX gradient                       ...    0.0043783484

-------
TIMINGS
-------

Total SCF gradient time     ....        3.561 sec

Densities                   ....       0.000 sec  (  0.0%)
One electron gradient       ....       0.042 sec  (  1.2%)
RI-J Coulomb gradient       ....       0.279 sec  (  7.8%)
COSX gradient               ....       2.380 sec  ( 66.8%)
XC gradient                 ....       0.722 sec  ( 20.3%)

Maximum memory used throughout the entire SCFGRAD-calculation: 26.5 MB
------------------------------------------------------------------------------
                         ORCA GEOMETRY RELAXATION STEP
------------------------------------------------------------------------------

Reading the OPT-File                    .... done
Getting information on internals        .... done
Copying old internal coords+grads       .... done
Making the new internal coordinates     .... (2022 redundants) done
Validating the new internal coordinates .... (2022 redundants) done
Calculating the B-matrix                .... done
Calculating the G,G- and P matrices     .... done
Transforming gradient to internals      .... done
Projecting the internal gradient        .... done
Number of atoms                         ....  12
Number of internal coordinates          .... 117
Current Energy                          ....  -731.686624668 Eh
Current gradient norm                   ....     0.014127943 Eh/bohr
Maximum allowed component of the step   ....  0.300
Current trust radius                    ....  0.300
Evaluating the initial hessian          ....  (Almloef) done
Projecting the Hessian                  .... done
Forming the augmented Hessian           .... done
Diagonalizing the augmented Hessian     .... done
Last element of RFO vector              ....  0.999064272
Lowest eigenvalues of augmented Hessian:
 -0.000520095  0.018991487  0.022459697  0.032512527  0.059310505
Length of the computed step             ....  0.043290704
The final length of the internal step   ....  0.043290704
Converting the step to Cartesian space:
 Initial RMS(Int)=    0.0040022270
Transforming coordinates:
 Iter   0:  RMS(Cart)=    0.0074426469 RMS(Int)=    0.0040028417
done
Storing new coordinates                 .... done

                                .--------------------.
          ----------------------|Geometry convergence|-------------------------
          Item                value                   Tolerance       Converged
          ---------------------------------------------------------------------
          RMS gradient        0.0012023712            0.0000080000      NO
          MAX gradient        0.0045828615            0.0000300000      NO
          RMS step            0.0040022270            0.0001000000      NO
          MAX step            0.0112413778            0.0002000000      NO
          -------------------------------------------------------------------------
          ........................................................
          Max(Bonds)      0.0059      Max(Angles)    0.27
          Max(Dihed)        0.25      Max(Improp)    0.00
          ---------------------------------------------------------------------

The optimization has not yet converged - more geometry cycles are needed


    ---------------------------------------------------------------------------
                         Redundant Internal Coordinates
                            (Angstroem and degrees)

        Definition                    Value    dE/dq     Step     New-Value
    ----------------------------------------------------------------------------
     1. B(Al  1,Al  0)                3.0616  0.001284 -0.0052    3.0564   
     2. B(H   2,Al  1)                1.7224  0.001513 -0.0049    1.7175   
     3. B(H   3,Al  1)                1.5866  0.004583 -0.0059    1.5806   
     4. B(H   4,Al  1)                1.7225  0.001653 -0.0049    1.7176   
     5. B(H   4,Al  0)                1.7218  0.001915 -0.0052    1.7166   
     6. B(H   5,Al  0)                1.5870  0.004552 -0.0059    1.5810   
     7. B(H   6,Al  0)                1.7157  0.001988 -0.0049    1.7107   
     8. B(H   7,Al  1)                1.5865  0.004582 -0.0059    1.5806   
     9. B(Al  8,H   6)                1.7157  0.001957 -0.0049    1.7108   
    10. B(Al  8,H   2)                1.7218  0.001763 -0.0052    1.7166   
    11. B(Al  8,Al  1)                3.0654  0.001325 -0.0053    3.0601   
    12. B(Al  8,Al  0)                3.0731  0.001255 -0.0053    3.0678   
    13. B(H   9,Al  8)                1.5870  0.004552 -0.0059    1.5810   
    14. B(H  10,Al  8)                1.5876  0.004469 -0.0058    1.5817   
    15. B(H  11,Al  0)                1.5876  0.004467 -0.0058    1.5818   
    16. A(H   4,Al  0,H   6)           98.07  0.000947   -0.15     97.92   
    17. A(Al  1,Al  0,H   4)           27.27  0.000612   -0.13     27.14   
    18. A(Al  1,Al  0,Al  8)           59.96  0.000011   -0.00     59.96   
    19. A(Al  8,Al  0,H  11)          103.56  0.000326   -0.08    103.48   
    20. A(H   4,Al  0,H   5)          104.39 -0.000760    0.15    104.54   
    21. A(H   6,Al  0,H  11)          106.76  0.000285   -0.08    106.69   
    22. A(Al  1,Al  0,H   5)          131.49 -0.000153    0.01    131.50   
    23. A(Al  1,Al  0,H  11)           88.77  0.000266   -0.04     88.72   
    24. A(H   5,Al  0,H  11)          128.91 -0.000184    0.07    128.98   
    25. A(H   5,Al  0,H   6)          105.87 -0.000595    0.09    105.97   
    26. A(H   4,Al  0,Al  8)           74.23  0.000347   -0.06     74.17   
    27. A(Al  1,Al  0,H   6)           86.37  0.000798   -0.13     86.24   
    28. A(H   5,Al  0,Al  8)          122.49 -0.000112    0.00    122.50   
    29. A(H   4,Al  0,H  11)          108.63  0.000631   -0.13    108.50   
    30. A(H   6,Al  0,Al  8)           26.42  0.000787   -0.13     26.28   
    31. A(H   2,Al  1,H   7)          104.75 -0.000412    0.08    104.83   
    32. A(H   3,Al  1,H   4)          104.75 -0.000491    0.08    104.83   
    33. A(Al  0,Al  1,H   3)          127.35  0.000082   -0.05    127.30   
    34. A(H   2,Al  1,H   4)           95.86  0.000929   -0.19     95.66   
    35. A(H   4,Al  1,Al  8)           74.45  0.000350   -0.06     74.39   
    36. A(H   3,Al  1,Al  8)           98.63  0.000030   -0.01     98.62   
    37. A(H   2,Al  1,H   3)          109.38  0.000187   -0.05    109.33   
    38. A(H   2,Al  1,Al  8)           27.12  0.000556   -0.14     26.98   
    39. A(Al  0,Al  1,Al  8)           60.21 -0.000011   -0.00     60.21   
    40. A(H   7,Al  1,Al  8)          127.33  0.000080   -0.04    127.29   
    41. A(Al  0,Al  1,H   4)           27.26  0.000654   -0.14     27.12   
    42. A(H   4,Al  1,H   7)          109.37  0.000281   -0.05    109.32   
    43. A(Al  0,Al  1,H   7)           98.69  0.000068   -0.01     98.69   
    44. A(Al  0,Al  1,H   2)           74.24  0.000308   -0.06     74.18   
    45. A(H   3,Al  1,H   7)          128.10 -0.000143    0.06    128.16   
    46. A(Al  1,H   2,Al  8)          125.75 -0.001072    0.27    126.02   
    47. A(Al  0,H   4,Al  1)          125.47 -0.001266    0.27    125.75   
    48. A(Al  0,H   6,Al  8)          127.17 -0.001579    0.26    127.43   
    49. A(Al  1,Al  8,H   2)           27.13  0.000517   -0.13     27.00   
    50. A(Al  0,Al  8,H   2)           73.91  0.000296   -0.06     73.85   
    51. A(Al  0,Al  8,Al  1)           59.84 -0.000000    0.00     59.84   
    52. A(H   6,Al  8,H  10)          106.68  0.000249   -0.07    106.60   
    53. A(H   2,Al  8,H  10)          108.66  0.000503   -0.13    108.53   
    54. A(Al  1,Al  8,H  10)           89.05  0.000222   -0.05     89.00   
    55. A(Al  0,Al  8,H  10)          104.32  0.000304   -0.08    104.24   
    56. A(H   6,Al  8,H   9)          105.96 -0.000441    0.08    106.05   
    57. A(H   9,Al  8,H  10)          128.90 -0.000241    0.07    128.97   
    58. A(H   2,Al  8,H   9)          104.36 -0.000672    0.14    104.50   
    59. A(Al  1,Al  8,H   9)          131.29 -0.000154    0.01    131.30   
    60. A(Al  0,Al  8,H   9)          121.86  0.000014    0.00    121.86   
    61. A(H   2,Al  8,H   6)           98.11  0.000939   -0.16     97.95   
    62. A(Al  1,Al  8,H   6)           86.25  0.000791   -0.13     86.12   
    63. A(Al  0,Al  8,H   6)           26.42  0.000792   -0.13     26.28   
    64. D(H   2,Al  1,Al  0,H   4)   -141.19 -0.000413    0.07   -141.11   
    65. D(H   3,Al  1,Al  0,H   6)     76.89 -0.000043    0.02     76.91   
    66. D(H   3,Al  1,Al  0,H   5)    -31.16  0.000071    0.02    -31.14   
    67. D(H   3,Al  1,Al  0,Al  8)     77.32 -0.000027    0.02     77.34   
    68. D(H   2,Al  1,Al  0,Al  8)    -25.30 -0.000475    0.13    -25.17   
    69. D(H   3,Al  1,Al  0,H   4)    -38.57  0.000035   -0.03    -38.61   
    70. D(H   2,Al  1,Al  0,H   6)    -25.72 -0.000491    0.13    -25.59   
    71. D(H   2,Al  1,Al  0,H   5)   -133.77 -0.000377    0.13   -133.65   
    72. D(H   2,Al  1,Al  0,H  11)     81.16 -0.000258    0.06     81.22   
    73. D(H   3,Al  1,Al  0,H  11)   -176.22  0.000191   -0.05   -176.27   
    74. D(Al  8,H   2,Al  1,H   7)    149.50  0.000134   -0.05    149.45   
    75. D(Al  8,H   2,Al  1,H   3)    -70.24 -0.000260    0.06    -70.18   
    76. D(Al  8,H   2,Al  1,Al  0)     54.44 -0.000120   -0.01     54.44   
    77. D(Al  8,H   2,Al  1,H   4)     37.67 -0.000376    0.06     37.72   
    78. D(Al  1,H   4,Al  0,H   5)   -174.27  0.000021    0.04   -174.23   
    79. D(Al  0,H   4,Al  1,H   7)    -70.57 -0.000243    0.04    -70.53   
    80. D(Al  0,H   4,Al  1,Al  8)     54.13 -0.000101   -0.01     54.12   
    81. D(Al  0,H   4,Al  1,H   3)    149.17  0.000141   -0.06    149.10   
    82. D(Al  0,H   4,Al  1,H   2)     37.33 -0.000253    0.04     37.37   
    83. D(Al  1,H   4,Al  0,H  11)     45.29  0.000393   -0.06     45.24   
    84. D(Al  1,H   4,Al  0,Al  8)    -54.02  0.000084    0.01    -54.01   
    85. D(Al  1,H   4,Al  0,H   6)    -65.51 -0.000487    0.13    -65.39   
    86. D(Al  8,H   6,Al  0,H   4)     25.53  0.000633   -0.14     25.38   
    87. D(Al  8,H   6,Al  0,Al  1)      0.83  0.000008   -0.00      0.83   
    88. D(Al  8,H   6,Al  0,H   5)    133.07  0.000005   -0.02    133.05   
    89. D(Al  8,H   6,Al  0,H  11)    -86.78 -0.000491    0.08    -86.70   
    90. D(Al  1,Al  8,Al  0,H  11)    -80.50 -0.000120    0.00    -80.50   
    91. D(Al  1,Al  8,Al  0,H   6)    179.04 -0.000010    0.00    179.04   
    92. D(Al  1,Al  8,Al  0,H   5)    122.62 -0.000151    0.01    122.63   
    93. D(H   2,Al  8,Al  0,Al  1)     25.35  0.000441   -0.12     25.23   
    94. D(Al  1,Al  8,Al  0,H   4)     25.36  0.000531   -0.13     25.23   
    95. D(H   9,Al  8,H   6,Al  0)    131.16  0.000013   -0.02    131.15   
    96. D(H   2,Al  8,H   6,Al  0)     23.63  0.000512   -0.14     23.49   
    97. D(Al  1,Al  8,H   6,Al  0)     -0.83 -0.000008    0.00     -0.83   
    98. D(H  10,Al  8,H   2,Al  1)     45.77  0.000406   -0.07     45.70   
    99. D(H   9,Al  8,H   2,Al  1)   -173.83 -0.000070    0.04   -173.79   
   100. D(H   6,Al  8,H   2,Al  1)    -64.97 -0.000397    0.11    -64.86   
   101. D(H   6,Al  8,Al  1,H   2)    115.98  0.000001    0.04    116.02   
   102. D(H   6,Al  8,Al  1,Al  0)      0.43  0.000016   -0.00      0.43   
   103. D(H   2,Al  8,Al  1,H   7)    -38.12  0.000045   -0.02    -38.14   
   104. D(H   2,Al  8,Al  1,H   4)   -140.88 -0.000553    0.09   -140.79   
   105. D(H   2,Al  8,Al  1,H   3)    116.12 -0.000065    0.01    116.12   
   106. D(H   2,Al  8,Al  1,Al  0)   -115.55  0.000015   -0.04   -115.60   
   107. D(Al  0,Al  8,Al  1,H   7)     77.43  0.000029    0.02     77.45   
   108. D(Al  0,Al  8,Al  1,H   4)    -25.32 -0.000568    0.13    -25.19   
   109. D(Al  0,Al  8,H   2,Al  1)    -54.27  0.000109    0.00    -54.27   
   110. D(Al  0,Al  8,Al  1,H   3)   -128.33 -0.000081    0.05   -128.28   
   111. D(Al  0,Al  8,Al  1,H   2)    115.55 -0.000015    0.04    115.60   
   112. D(H   6,Al  8,Al  0,Al  1)   -179.04  0.000010   -0.00   -179.04   
   113. D(H   2,Al  8,Al  0,H  11)    -55.15  0.000321   -0.12    -55.27   
   114. D(H   2,Al  8,Al  0,H   6)   -155.61  0.000431   -0.12   -155.73   
   115. D(H   2,Al  8,Al  0,H   5)    147.97  0.000290   -0.11    147.86   
   116. D(H  10,Al  8,H   6,Al  0)    -88.71 -0.000460    0.08    -88.62   
   117. D(H   2,Al  8,Al  0,H   4)     50.71  0.000972   -0.25     50.46   
    ----------------------------------------------------------------------------

Geometry step timings:
Preparation and reading OPT file:      0.000 s ( 0.433 %)
Internal coordinates            :      0.000 s ( 0.619 %)
B/P matrices and projection     :      0.004 s (22.115 %)
Hessian update/contruction      :      0.002 s (11.333 %)
Making the step                 :      0.009 s (49.809 %)
Converting the step to Cartesian:      0.001 s ( 3.015 %)
Storing new data                :      0.000 s ( 0.652 %)
Checking convergence            :      0.000 s ( 0.748 %)
Final printing                  :      0.002 s (11.271 %)
Total time                      :      0.018 s

Time for energy+gradient        :     20.906 s
Time for complete geometry iter :     21.708 s

         *************************************************************
         *                GEOMETRY OPTIMIZATION CYCLE   2            *
         *************************************************************
---------------------------------
CARTESIAN COORDINATES (ANGSTROEM)
---------------------------------
  Al    -0.229673    1.515958    2.563667
  Al     0.000130   -0.000524   -0.080037
  H      0.867118   -0.933664    1.072047
  H     -1.100751   -0.905148   -0.764195
  H     -0.857666    0.939029    1.073878
  H     -1.469580    2.178461    3.287137
  H      0.004097    0.001005    3.323230
  H      1.095423    0.900531   -0.777695
  Al     0.255810   -1.513186    2.567744
  H      1.509246   -2.156567    3.285134
  H     -1.175998   -2.137099    2.317662
  H      1.208785    2.119514    2.301787

----------------------------
CARTESIAN COORDINATES (A.U.)
----------------------------
  NO LB      ZA    FRAG     MASS         X           Y           Z
   0 Al   13.0000    0    26.982   -0.434019    2.864745    4.844629
   1 Al   13.0000    0    26.982    0.000245   -0.000991   -0.151247
   2 H     1.0000    0     1.008    1.638615   -1.764370    2.025876
   3 H     1.0000    0     1.008   -2.080119   -1.710481   -1.444119
   4 H     1.0000    0     1.008   -1.620754    1.774508    2.029336
   5 H     1.0000    0     1.008   -2.777104    4.116695    6.211788
   6 H     1.0000    0     1.008    0.007742    0.001900    6.279995
   7 H     1.0000    0     1.008    2.070050    1.701756   -1.469630
   8 Al   13.0000    0    26.982    0.483411   -2.859507    4.852333
   9 H     1.0000    0     1.008    2.852062   -4.075321    6.208004
  10 H     1.0000    0     1.008   -2.222315   -4.038533    4.379746
  11 H     1.0000    0     1.008    2.284273    4.005302    4.349747

--------------------------------
INTERNAL COORDINATES (ANGSTROEM)
--------------------------------
 Al     0   0   0     0.000000000000     0.00000000     0.00000000
 Al     1   0   0     3.056418887344     0.00000000     0.00000000
 H      2   1   0     1.717473604172    74.17553577     0.00000000
 H      2   1   3     1.580618669674   127.30032062   102.50695851
 H      1   2   3     1.716593317722    27.13517748   218.88570124
 H      1   2   3     1.581040636885   131.50402193   226.35429578
 H      1   2   3     1.710749885415    86.23812277   334.40772604
 H      2   1   3     1.580599443706    98.68718949   256.94580272
 Al     7   1   2     1.710816776053   127.43145189     0.83087173
 H      9   7   1     1.581041133145   106.04773456   131.14628616
 H      9   7   1     1.581734500358   106.60361201   271.37582401
 H      1   2   3     1.581778845857    88.72456063    81.22343555

---------------------------
INTERNAL COORDINATES (A.U.)
---------------------------
 Al     0   0   0     0.000000000000     0.00000000     0.00000000
 Al     1   0   0     5.775794647625     0.00000000     0.00000000
 H      2   1   0     3.245554754125    74.17553577     0.00000000
 H      2   1   3     2.986936407847   127.30032062   102.50695851
 H      1   2   3     3.243891253814    27.13517748   218.88570124
 H      1   2   3     2.987733810313   131.50402193   226.35429578
 H      1   2   3     3.232848767071    86.23812277   334.40772604
 H      2   1   3     2.986900076032    98.68718949   256.94580272
 Al     7   1   2     3.232975172058   127.43145189     0.83087173
 H      9   7   1     2.987734748109   106.04773456   131.14628616
 H      9   7   1     2.989045022251   106.60361201   271.37582401
 H      1   2   3     2.989128823099    88.72456063    81.22343555



           ************************************************************
           *        Program running with 24 parallel MPI-processes    *
           *              working on a common directory               *
           ************************************************************
------------------------------------------------------------------------------
                   ___                                                        
                  /   \      - P O W E R E D   B Y -                         
                 /     \                                                     
                 |  |  |   _    _      __       _____    __    __             
                 |  |  |  | |  | |    /  \     |  _  \  |  |  /  |          
                  \  \/   | |  | |   /    \    | | | |  |  | /  /          
                 / \  \   | |__| |  /  /\  \   | |_| |  |  |/  /          
                |  |  |   |  __  | /  /__\  \  |    /   |      \           
                |  |  |   | |  | | |   __   |  |    \   |  |\   \          
                \     /   | |  | | |  |  |  |  | |\  \  |  | \   \       
                 \___/    |_|  |_| |__|  |__|  |_| \__\ |__|  \__/        
                                                                              
                      - O R C A' S   B I G   F R I E N D -                    
                                      &                                       
                       - I N T E G R A L  F E E D E R -                       
                                                                              
 v1 FN, 2020, v2 2021, v3 2022-2024                                           
------------------------------------------------------------------------------


----------------------
SHARK INTEGRAL PACKAGE
----------------------

Number of atoms                             ...     12
Number of basis functions                   ...     72
Number of shells                            ...     42
Maximum angular momentum                    ...      2
Integral batch strategy                     ... SHARK/LIBINT Hybrid
RI-J (if used) integral strategy            ... SPLIT-RIJ (Revised 2003 algorithm where possible)
Printlevel                                  ...      1
Contraction scheme used                     ... SEGMENTED contraction
Prescreening option                         ... SCHWARTZ
   Thresh                                   ... 3.000e-16
   Tcut                                     ... 3.000e-16
   Tpresel                                  ... 3.000e-16 
Coulomb Range Separation                    ... NOT USED
Exchange Range Separation                   ... NOT USED
Multipole approximations                    ... NOT USED
Finite Nucleus Model                        ... NOT USED
CABS basis                                  ... NOT available
Auxiliary Coulomb fitting basis             ... AVAILABLE
   # of basis functions in Aux-J            ...    252
   # of shells in Aux-J                     ...     96
   Maximum angular momentum in Aux-J        ...      4
Auxiliary J/K fitting basis                 ... NOT available
Auxiliary Correlation fitting basis         ... NOT available
Auxiliary 'external' fitting basis          ... NOT available

Checking pre-screening integrals            ... done (  0.0 sec) Dimension = 42
   => SHARK Basis and OBASIS are compatible. Storing Pre-screening
Shell pair information
Shell pair cut-off parameter TPreSel        ...   3.0e-16
Total number of shell pairs                 ...       903
Shell pairs after pre-screening             ...       882
Total number of primitive shell pairs       ...      4191
Primitive shell pairs kept                  ...      3044
          la=0 lb=0:    450 shell pairs
          la=1 lb=0:    264 shell pairs
          la=1 lb=1:     45 shell pairs
          la=2 lb=0:     90 shell pairs
          la=2 lb=1:     27 shell pairs
[...]
      1       0.013153  -0.006069   0.000110  -0.004488  -0.001639   0.000056
      2       0.000983  -0.001957   0.004023  -0.012675  -0.005951   0.007042
      3      -0.000149   0.004144  -0.000451  -0.005515  -0.023972  -0.028815
      4      -0.000231   0.007310  -0.000566  -0.003570  -0.015701  -0.020847
      5      -0.006789  -0.001171  -0.016415  -0.000055   0.000306   0.000248
      6       0.005537   0.010208  -0.016569  -0.008003   0.005099  -0.004779
      7      -0.049495  -0.060228   0.095620   0.013583  -0.031581   0.001860
      8       0.088429   0.100068  -0.168414  -0.028101   0.051114  -0.006514
      9       0.092994  -0.056378   0.500162   0.106672   0.306762   0.390746
     10       0.065642  -0.037830   0.360253   0.078001   0.221654   0.279663
     11       0.051433  -0.033109   0.289352   0.062497   0.185353   0.228982
     12      -0.005197   0.010254   0.013773   0.009132   0.000488  -0.004672
     13       0.053210  -0.067095  -0.088696  -0.027310  -0.021336   0.001979
     14       0.094354  -0.111887  -0.156163  -0.049387  -0.031669   0.006792
     15       0.272216  -0.230133   0.016684  -0.585901  -0.279449   0.283696
     16      -0.128088   0.113361  -0.007412   0.286007   0.136904  -0.137124
     17      -0.149235   0.122914  -0.005761   0.324092   0.153318  -0.154767
     18      -0.001362   0.048464  -0.002704   0.005124   0.019308  -0.008337
     19       0.008993  -0.307763   0.017192  -0.022052  -0.079539   0.028193
     20      -0.001962   0.000202  -0.001394  -0.002064   0.000557  -0.000057
     21      -0.087620  -0.115522  -0.483807   0.038402   0.325251   0.388700
     22      -0.061913  -0.080380  -0.348944   0.027049   0.235516   0.278271
     23       0.050011   0.069523   0.289754  -0.025842  -0.202314  -0.235776
     24      -0.009099  -0.010300   0.003417  -0.023776   0.027857  -0.020889
     25      -0.012947  -0.006997   0.000629   0.002796  -0.002965  -0.000279
     26       0.001004   0.002681   0.003800  -0.008362   0.010855  -0.007090
     27      -0.264263  -0.256393   0.007965   0.391662  -0.516288   0.291884
     28       0.118766   0.120492  -0.004531  -0.182986   0.241918  -0.135189
     29      -0.142776  -0.134771   0.007317   0.213893  -0.279941   0.156701
     30       0.529433   0.525909  -0.126581   0.247821  -0.238479   0.272290
     31       0.243587   0.244289  -0.057138   0.117985  -0.113889   0.126753
     32       0.065461   0.068384  -0.015876   0.030060  -0.025333   0.033241
     33      -0.564652   0.513518   0.068794  -0.325653  -0.099928   0.267024
     34      -0.250017   0.229227   0.029027  -0.149444  -0.046130   0.119605
     35       0.072816  -0.069351  -0.008813   0.039404   0.009442  -0.033938


-----------
IR SPECTRUM
-----------

 Mode   freq       eps      Int      T**2         TX        TY        TZ
       cm**-1   L/(mol*cm) km/mol    a.u.
----------------------------------------------------------------------------
  7:    115.78   0.000245    1.24  0.000661  (-0.001344  0.000157  0.025680)
  8:    144.92   0.000139    0.70  0.000299  ( 0.016062  0.006437  0.000208)
  9:    236.66   0.000547    2.76  0.000721  (-0.000096  0.000194 -0.026859)
 10:    306.99   0.002173   10.98  0.002208  ( 0.041279 -0.022449 -0.000729)
 11:    326.22   0.000067    0.34  0.000064  (-0.000434  0.000166  0.008018)
 12:    431.53   0.000751    3.79  0.000543  (-0.018536  0.014118 -0.000179)
 13:    445.98   0.000075    0.38  0.000053  (-0.000172  0.000119  0.007260)
 14:    453.81   0.001999   10.10  0.001375  (-0.000162  0.000459 -0.037077)
 15:    515.16   0.000027    0.13  0.000016  (-0.003892  0.000938  0.000380)
 16:    547.71   0.014329   72.41  0.008164  (-0.068359  0.059081  0.000595)
 17:    604.88   0.029606  149.61  0.015274  (-0.000533 -0.000500  0.123585)
 18:    709.59   0.139223  703.58  0.061227  ( 0.007565  0.247191 -0.008181)
 19:    710.28   0.108898  550.33  0.047845  ( 0.002392  0.009200  0.218528)
 20:    753.94   0.000344    1.74  0.000142  ( 0.000203  0.000168  0.011927)
 21:    785.95   0.040471  204.53  0.016069  (-0.080540  0.097802 -0.004180)
 22:    812.07   0.039626  200.26  0.015228  ( 0.001174  0.009919  0.122996)
 23:    818.11   0.050166  253.52  0.019135  (-0.057248 -0.125810  0.005463)
 24:   1056.87   0.049524  250.28  0.014623  (-0.006151  0.001259  0.120763)
 25:   1071.82   0.060648  306.49  0.017658  ( 0.123187 -0.049610  0.004657)
 26:   1139.33   0.000031    0.16  0.000009  (-0.002181  0.000945  0.001704)
 27:   1816.95   0.004779   24.15  0.000821  ( 0.004647 -0.028256 -0.000895)
 28:   1894.61   0.250249  1264.66  0.041219  ( 0.000967  0.001308  0.203018)
 29:   1914.75   0.255157  1289.46  0.041585  ( 0.026714 -0.202161  0.001569)
 30:   2015.11   0.001989   10.05  0.000308  ( 0.001400 -0.000872 -0.017475)
 31:   2019.65   0.008059   40.72  0.001245  (-0.030405  0.017906 -0.000292)
 32:   2020.23   0.000032    0.16  0.000005  ( 0.001616 -0.001296  0.000843)
 33:   2029.60   0.007056   35.66  0.001085  ( 0.006934 -0.006745 -0.031485)
 34:   2029.66   0.009848   49.77  0.001514  ( 0.027547 -0.026370  0.007738)
 35:   2036.08   0.086838  438.84  0.013309  (-0.110000 -0.034774  0.000307)

* The epsilon (eps) is given for a Dirac delta lineshape.
** The dipole moment derivative (T) already includes vibrational overlap.

--------------
RAMAN SPECTRUM  
--------------

 Mode    freq (cm**-1)   Activity   Depolarization
-------------------------------------------------------------------
   7:       115.78      1.766061      0.522143
   8:       144.92      0.499958      0.747960
   9:       236.66      4.864634      0.749815
  10:       306.99      4.496777      0.749844
  11:       326.22     11.204435      0.380377
  12:       431.53     11.153862      0.750000
  13:       445.98      9.679641      0.749092
  14:       453.81      6.610590      0.749139
  15:       515.16      1.759584      0.749991
  16:       547.71      3.478501      0.749764
  17:       604.88      2.056314      0.155330
  18:       709.59      4.039965      0.749986
  19:       710.28     13.172566      0.746689
  20:       753.94      6.215603      0.676760
  21:       785.95      5.948211      0.749999
  22:       812.07      8.409631      0.649432
  23:       818.11      3.549929      0.749053
  24:      1056.87      6.048774      0.566765
  25:      1071.82      8.499608      0.745336
  26:      1139.33     91.543566      0.037124
  27:      1816.95      2.002025      0.750000
  28:      1894.61      8.573358      0.732886
  29:      1914.75     12.015273      0.749989
  30:      2015.11    381.072493      0.035839
  31:      2019.65     10.917956      0.594133
  32:      2020.23    126.151503      0.050325
  33:      2029.60     96.608604      0.367493
  34:      2029.66     54.317029      0.708905
  35:      2036.08     28.408446      0.750000

The first frequency considered to be a vibration is 7
The total number of vibrations considered is 29


--------------------------
THERMOCHEMISTRY AT 298.15K
--------------------------

Temperature         ...   298.15 K
Pressure            ...     1.00 atm
Total Mass          ...    90.02 AMU
Quasi RRHO          ...     True
Cut-Off Frequency   ...     1.00 cm^-1

Throughout the following assumptions are being made:
  (1) The electronic state is orbitally nondegenerate
  (2) There are no thermally accessible electronically excited states
  (3) Hindered rotations indicated by low frequency modes are not
      treated as such but are treated as vibrations and this may
      cause some error
  (4) All equations used are the standard statistical mechanics
      equations for an ideal gas
  (5) All vibrations are strictly harmonic

freq.     115.78  E(vib)   ...       0.44 
freq.     144.92  E(vib)   ...       0.41 
freq.     236.66  E(vib)   ...       0.32 
freq.     306.99  E(vib)   ...       0.26 
freq.     326.22  E(vib)   ...       0.24 
freq.     431.53  E(vib)   ...       0.18 
freq.     445.98  E(vib)   ...       0.17 
freq.     453.81  E(vib)   ...       0.16 
freq.     515.16  E(vib)   ...       0.13 
freq.     547.71  E(vib)   ...       0.12 
freq.     604.88  E(vib)   ...       0.10 
freq.     709.59  E(vib)   ...       0.07 
freq.     710.28  E(vib)   ...       0.07 
freq.     753.94  E(vib)   ...       0.06 
freq.     785.95  E(vib)   ...       0.05 
freq.     812.07  E(vib)   ...       0.05 
freq.     818.11  E(vib)   ...       0.05 
freq.    1056.87  E(vib)   ...       0.02 
freq.    1071.82  E(vib)   ...       0.02 
freq.    1139.33  E(vib)   ...       0.01 
freq.    1816.95  E(vib)   ...       0.00 
freq.    1894.61  E(vib)   ...       0.00 
freq.    1914.75  E(vib)   ...       0.00 
freq.    2015.11  E(vib)   ...       0.00 
freq.    2019.65  E(vib)   ...       0.00 
freq.    2020.23  E(vib)   ...       0.00 
freq.    2029.60  E(vib)   ...       0.00 
freq.    2029.66  E(vib)   ...       0.00 
freq.    2036.08  E(vib)   ...       0.00 

------------
INNER ENERGY
------------

The inner energy is: U= E(el) + E(ZPE) + E(vib) + E(rot) + E(trans)
    E(el)   - is the total energy from the electronic structure calculation
              = E(kin-el) + E(nuc-el) + E(el-el) + E(nuc-nuc)
    E(ZPE)  - the the zero temperature vibrational energy from the frequency calculation
    E(vib)  - the the finite temperature correction to E(ZPE) due to population
              of excited vibrational states
    E(rot)  - is the rotational thermal energy
    E(trans)- is the translational thermal energy

Summary of contributions to the inner energy U:
Electronic energy                ...   -731.68775211 Eh
Zero point energy                ...      0.06780791 Eh      42.55 kcal/mol
Thermal vibrational correction   ...      0.00465808 Eh       2.92 kcal/mol
Thermal rotational correction    ...      0.00141627 Eh       0.89 kcal/mol
Thermal translational correction ...      0.00141627 Eh       0.89 kcal/mol
-----------------------------------------------------------------------
Total thermal energy                   -731.61245358 Eh


Summary of corrections to the electronic energy:
(perhaps to be used in another calculation)
Total thermal correction                  0.00749062 Eh       4.70 kcal/mol
Non-thermal (ZPE) correction              0.06780791 Eh      42.55 kcal/mol
-----------------------------------------------------------------------
Total correction                          0.07529853 Eh      47.25 kcal/mol


--------
ENTHALPY
--------

The enthalpy is H = U + kB*T
                kB is Boltzmann's constant
Total thermal energy              ...   -731.61245358 Eh 
Thermal Enthalpy correction       ...      0.00094421 Eh       0.59 kcal/mol
-----------------------------------------------------------------------
Total Enthalpy                    ...   -731.61150937 Eh


Note: Only C1 symmetry has been detected, increase convergence thresholds 
      if your molecule has a higher symmetry. Symmetry factor of 1.0 is   
      used for the rotational entropy correction. 
 

Note: Rotational entropy computed according to Herzberg 
Infrared and Raman Spectra, Chapter V,1, Van Nostrand Reinhold, 1945 
Point Group:  C1, Symmetry Number:   1  
Rotational constants in cm-1:     0.104567     0.103542     0.055918 

Vibrational entropy computed according to the QRRHO of S. Grimme
Chem.Eur.J. 2012 18 9955 using a reference frequency of 100.0 cm-1


-------
ENTROPY
-------

The entropy contributions are T*S = T*(S(el)+S(vib)+S(rot)+S(trans))
     S(el)   - electronic entropy
     S(vib)  - vibrational entropy
     S(rot)  - rotational entropy
     S(trans)- translational entropy
The entropies will be listed as multiplied by the temperature to get
units of energy

Electronic entropy                ...      0.00000000 Eh      0.00 kcal/mol
Vibrational entropy               ...      0.00756343 Eh      4.75 kcal/mol
Rotational entropy                ...      0.01300880 Eh      8.16 kcal/mol
Translational entropy             ...      0.01872231 Eh     11.75 kcal/mol
-----------------------------------------------------------------------
Final entropy term                ...      0.03929453 Eh     24.66 kcal/mol

In case the symmetry of your molecule has not been determined correctly
or in case you have a reason to use a different symmetry number we print 
out the resulting rotational entropy values for sn=1,12:

 non-linear molecules -----------------------------------
|  sn= 1 | S(rot)=       0.01300880 Eh      8.16 kcal/mol|
|  sn= 2 | S(rot)=       0.01235434 Eh      7.75 kcal/mol|
|  sn= 3 | S(rot)=       0.01197151 Eh      7.51 kcal/mol|
|  sn= 4 | S(rot)=       0.01169988 Eh      7.34 kcal/mol|
|  sn= 5 | S(rot)=       0.01148920 Eh      7.21 kcal/mol|
|  sn= 6 | S(rot)=       0.01131705 Eh      7.10 kcal/mol|
|  sn= 7 | S(rot)=       0.01117151 Eh      7.01 kcal/mol|
|  sn= 8 | S(rot)=       0.01104543 Eh      6.93 kcal/mol|
|  sn= 9 | S(rot)=       0.01093422 Eh      6.86 kcal/mol|
|  sn=10 | S(rot)=       0.01083474 Eh      6.80 kcal/mol|
|  sn=11 | S(rot)=       0.01074475 Eh      6.74 kcal/mol|
|  sn=12 | S(rot)=       0.01066260 Eh      6.69 kcal/mol|
 linear molecules ---------------------------------------
|  Dinfh | S(rot)=       0.00804869 Eh      5.05 kcal/mol|
|  Cinfv | S(rot)=       0.00870315 Eh      5.46 kcal/mol|
 --------------------------------------------------------


-------------------
GIBBS FREE ENERGY
-------------------

The Gibbs free energy is G = H - T*S

Total enthalpy                    ...   -731.61150937 Eh 
Total entropy correction          ...     -0.03929453 Eh    -24.66 kcal/mol
-----------------------------------------------------------------------
Final Gibbs free energy         ...   -731.65080390 Eh

For completeness - the Gibbs free energy minus the electronic energy
G-E(el)                           ...      0.03694821 Eh     23.19 kcal/mol


Maximum memory used throughout the entire PROP-calculation: 26.7 MB

--------------------------------
SUGGESTED CITATIONS FOR THIS RUN
--------------------------------

Below you find a list of papers that are relevant to this ORCA run
We neither can nor want to force you to cite these papers, but we appreciate if you do
You receive ORCA, which is the product of decades of hard work by many enthusiastic individuals, for free
The only thing we kindly ask in return is that you cite our papers,
We deeply appreciate it, if you show your appreciation for ORCA by not just citing the generic ORCA reference.

Please note that relegating all ORCA citations to the supporting information does *not* help us.
SI sections are not indexed - citations you put there will not count into any citation statistics
But we need these citations in order to attract the funding resources that allow us to do what we are doing

Therefore, if you are a happy ORCA user, please consider citing a few of the papers listed below in the main body of your paper

In addition to the list printed below, the program has created the file run.bibtex that contains the list in bibtex format
You can import this file easily into all common literature databanks and citation aid programs


List of essential papers. We consider these as the minimum necessary citations

  1. Neese, F.
     Software update: the ORCA program system, version 6.0
     WIRES Comput. Molec. Sci. 2025 15(1), e70019
     doi.org/10.1002/wcms.7019

List of papers to cite with high priority. The work reported in these papers was absolutely
necessary for this run to complete.
Our perspective: the developers of density functionals and basis sets usually get cited in chemistry papers
Good! But without the algorithms to do something with them, the functionals or basis sets would not do anything.
Hence, in our opinion, the algorithm design and method developments papers are equally worthy of getting cited

  1. Neese, F.
     An improvement of the resolution of the identity approximation for the formation of the Coulomb matrix
     J. Comp. Chem. 2003 24(14), 1740-1747
     doi.org/10.1002/jcc.10318
  2. Neese, F.; Wennmohs, F.; Hansen, A.; Becker, U.
     Efficient, approximate and parallel Hartree-Fock and hybrid DFT calculations. A 'chain-of-spheres' algorithm for the Hartree-Fock exchange
     Chem. Phys. 2009 356(1-3), 98-109
     doi.org/10.1016/j.chemphys.2008.10.036
  3. Grimme, S.; Antony, J.; Ehrlich, S.; Krieg, H.
     A consistent and accurate ab initio parametrization of density functional dispersion correction (DFT-D) for the 94 elements H-Pu
     J. Chem. Phys. 2010 132 , 154104
     doi.org/10.1063/1.3382344
  4. Grimme, S.; Ehrlich, S.; Goerigk, L.
     Effect of the damping function in dispersion corrected density functional theory
     J. Comput. Chem. 2011 32(7), 1456-1465
     doi.org/10.1002/jcc.21759
  5. Bykov, D.; Petrenko, T.; Izsak, R.; Kossmann, S.; Becker, U.; Valeev, E.; Neese, F.
     Efficient implementation of the analytic second derivatives of Hartree-Fock and hybrid DFT energies: a detailed analysis of different approximations
     Molec. Phys. 2015 113 , 1961-1977
     doi.org/10.1080/00268976.2015.1025114
  6. Helmich-Paris, B.; de Souza, B.; Neese, F.; Izsák, R.
     An improved chain of spheres for exchange algorithm
     J. Chem. Phys. 2021 155(10), 104109
     doi.org/10.1063/5.0058766
  7. Neese, F.
     The SHARK Integral Generation and Digestion System
     J. Comp. Chem. 2022 44(3), 381
     doi.org/10.1002/jcc.26942
  8. Petra, P.; Frank, N.
     Efficient calculation of analytic Raman intensities
     to be submitted 2025  , 

List of suggested additional citations. These are papers that are important in the 'surrounding' of 
of this run, or papers that preceded the highly important papers. If you like your results we are grateful for a citation.

  1. Izsak, R.; Neese, F.
     An overlap fitted chain of spheres exchange method
     J. Chem. Phys. 2011 135 , 144105
     doi.org/10.1063/1.3646921
  2. Izsak, R.; Hansen, A.; Neese, F.
     The resolution of identity and chain of spheres approximations for the LPNO-CCSD singles Fock term
     Molec. Phys. 2012 110 , 2413-2417
     doi.org/10.1080/00268976.2012.687466
  3. Neese, F.
     The ORCA program system
     WIRES Comput. Molec. Sci. 2012 2(1), 73-78
     doi.org/10.1002/wcms.81
  4. Izsak, R.; Neese, F.; Klopper, W.
     Robust fitting techniques in the chain of spheres approximation to the Fock exchange: The role of the complementary space
     J. Chem. Phys. 2013 139 , 
     doi.org/10.1063/1.4819264
  5. Neese, F.
     Software update: the ORCA program system, version 4.0
     WIRES Comput. Molec. Sci. 2018 8(1), 1-6
     doi.org/10.1002/wcms.1327
  6. Neese, F.; Wennmohs, F.; Becker, U.; Riplinger, C.
     The ORCA quantum chemistry program package
     J. Chem. Phys. 2020 152(22), 224108
     doi.org/10.1063/5.0004608
  7. Neese, F.
     Software update: The ORCA program system—Version 5.0
     WIRES Comput. Molec. Sci. 2022 12(1), e1606
     doi.org/10.1002/wcms.1606

List of optional additional citations

  1. Neese, F.
     Approximate second-order SCF convergence for spin unrestricted wavefunctions
     Chem. Phys. Lett. 2000 325(1-3), 93-98
     doi.org/10.1016/s0009-2614(00)00662-x

Timings for individual modules:

Sum of individual times          ...      456.036 sec (=   7.601 min)
Startup calculation              ...      121.392 sec (=   2.023 min)  26.6 %
SCF iterations                   ...      156.354 sec (=   2.606 min)  34.3 %
Property integrals               ...       28.363 sec (=   0.473 min)   6.2 %
SCF Response                     ...        7.075 sec (=   0.118 min)   1.6 %
Property calculations            ...       47.752 sec (=   0.796 min)  10.5 %
SCF Gradient evaluation          ...       94.876 sec (=   1.581 min)  20.8 %
Geometry relaxation              ...        0.223 sec (=   0.004 min)   0.0 %
                             ****ORCA TERMINATED NORMALLY****
TOTAL RUN TIME: 0 days 0 hours 7 minutes 56 seconds 826 msec
