
                                 *****************
                                 * O   R   C   A *
                                 *****************

                                            #,                                       
                                            ###                                      
                                            ####                                     
                                            #####                                    
                                            ######                                   
                                           ########,                                 
                                     ,,################,,,,,                         
                               ,,#################################,,                 
                          ,,##########################################,,             
                       ,#########################################, ''#####,          
                    ,#############################################,,   '####,        
                  ,##################################################,,,,####,       
                ,###########''''           ''''###############################       
              ,#####''   ,,,,##########,,,,          '''####'''          '####       
            ,##' ,,,,###########################,,,                        '##       
           ' ,,###''''                  '''############,,,                           
         ,,##''                                '''############,,,,        ,,,,,,###''
      ,#''                                            '''#######################'''  
     '                                                          ''''####''''         
             ,#######,   #######,   ,#######,      ##                                
            ,#'     '#,  ##    ##  ,#'     '#,    #''#        ,####,    ,#,          
            ##       ##  ##   ,#'  ##            #'  '#       #'       ,# #          
            ##       ##  #######   ##           ,######,      #####,      #          
            '#,     ,#'  ##    ##  '#,     ,#' ,#      #,     #,   #      #          
             '#######'   ##     ##  '#######'  #'      '#     '####' #    #          



                #########################################################
                #                        -***-                          #
                #          Department of theory and spectroscopy        #
                #                                                       #
                #                      Frank Neese                      #
                #                                                       #
                #     Directorship, Architecture, Infrastructure        #
                #                    SHARK, DRIVERS                     #
                #        Core code/Algorithms in most modules           #
                #                                                       #
                #        Max Planck Institute fuer Kohlenforschung      #
                #                Kaiser Wilhelm Platz 1                 #
                #                 D-45470 Muelheim/Ruhr                 #
                #                      Germany                          #
                #                                                       #
                #                  All rights reserved                  #
                #                        -***-                          #
                #########################################################


                         Program Version 6.1.0  -  RELEASE   -
                                (GIT: $679e74b$)
                          ($2025-06-10 18:02:51 +0200$)


 With contributions from (in alphabetic order):
[Max-Planck-Institut fuer Kohlenforschung]                               
  Daniel Aravena         : Magnetic Suceptibility                        
  Michael Atanasov       : Ab Initio Ligand Field Theory (pilot matlab implementation)
  Alexander A. Auer      : GIAO ZORA, VPT2 properties, NMR spectrum      
  Ute Becker             : All parallelization in ORCA, NUMFREQ, NUMCALC 
  Giovanni Bistoni       : ED, misc. LED, open-shell LED, HFLD           
  Dmytro Bykov           : pre 5.0 version of the SCF Hessian            
  Marcos Casanova-Páez   : Triplet and SCS-CIS(D). UHF-(DLPNO)-IP/EA/STEOM-CCSD. UHF-CVS-IP/STEOM-CCSD   
  Vijay G. Chilkuri      : MRCI spin determinant printing, contributions to CSF-ICE 
  Pauline Colinet        : FMM embedding                                 
  Dipayan Datta          : RHF DLPNO-CCSD density                        
  Achintya Kumar Dutta   : EOM-CC, STEOM-CC                              
  Nicolas Foglia         : Exact transition moments, OPA infrastructure, MCD improvements    
  Dmitry Ganyushin       : Spin-Orbit,Spin-Spin,Magnetic field MRCI      
  Miquel Garcia-Rates    : C-PCM and meta-GGA Hessian, CCSD/C-PCM, Gaussian charge scheme 
  Tiago L. C. Gouveia    : GS-ROHF, GS-ROCIS                             
  Yang Guo               : DLPNO-NEVPT2, F12-NEVPT2, CIM, IAO-localization        
  Andreas Hansen         : Spin unrestricted coupled pair/coupled cluster methods 
  Ingolf Harden          : AUTO-CI MPn and infrastructure                
  Benjamin Helmich-Paris : MC-RPA, TRAH-(SCF,CASSCF), AVAS, COSX integrals, SCF dyn. polar., MC-PDFT, srDFT 
  Lee Huntington         : MR-EOM, pCC                                   
  Robert Izsak           : Overlap fitted RIJCOSX, COSX-SCS-MP3, EOM     
  Riya Kayal             : Wick's Theorem for AUTO-CI, AUTO-CI UHF-CCSDT 
  Emily Kempfer          : AUTO-CI RHF CISDT and CCSDT, approximate NEVPT4
  Christian Kollmar      : KDIIS, OOCD, Brueckner-CCSD(T), CCSD density, CASPT2, CASPT2-K, improved NEVPT2 
  Axel Koslowski         : Symmetry handling                             
  Simone Kossmann        : meta-GGA functionals, TD-DFT gradient, OOMP2, (MP2 Hessian; deprecated post 5.0) 
  Lucas Lang             : DCDCAS, Hyperfine gauge corrections, ICE-SOC+SSC
  Marvin Lechner         : AUTO-CI (C++ implementation), FIC-MRCC        
  Spencer Leger          : CASSCF response                               
  Dagmar Lenk            : GEPOL surface, SMD, ORCA-2-JSON               
  Dimitrios Liakos       : Extrapolation schemes; Compound Job, Property file
  Dimitrios Manganas     : Further ROCIS development; embedding schemes. LFT, Crystal Embedding 
  Dimitrios Pantazis     : SARC Basis sets                               
  Anastasios Papadopoulos: AUTO-CI, single reference methods and gradients 
  Taras Petrenko         : pre 6.0 DFT Hessian and TD-DFT gradient,  ECA, NRVS 
  Petra Pikulova         : Analytic Raman intensities                    
  Peter Pinski           : DLPNO-MP2, DLPNO-MP2 Gradient                 
  Shashank Vittal Rao    : ES-AILFT, MagRelax                            
  Christoph Reimann      : Effective Core Potentials                     
  Marius Retegan         : Local ZFS, SOC                                
  Christoph Riplinger    : Optimizer, TS searches, QM/MM, DLPNO-CCSD(T), (RO)-DLPNO pert. Triples 
  Michael Roemelt        : Original ROCIS implementation, recursive CI coupling coefficients
  Masaaki Saitow         : Open-shell DLPNO-CCSD energy and density      
  Barbara Sandhoefer     : DKH picture change effects                    
  Yorick L. A. Schmerwitz: GMF and freeze-and-release deltaSCF, NEB S-IDPP initial path                    
  Kantharuban Sivalingam : CASSCF convergence/infrastructure, NEVPT2, NEVPT3, NEVPT4(SD), FIC-MRCI and CEPA variants
  Bernardo de Souza      : ESD, SOC TD-DFT                               
  Georgi L. Stoychev     : AutoAux, RI-MP2 NMR, DLPNO-MP2 response, X2C  
  Van Anh Tran           : RI-MP2 g-tensors                              
  Willem Van den Heuvel  : Paramagnetic NMR                              
  Zikuan Wang            : NOTCH, Electric field optimization            
  Frank Wennmohs         : Technical directorship and infrastructure     
  Hang Xu                : AUTO-CI-Response properties                   
                                                                         
[FACCTs GmbH]                                                            
  Markus Bursch, Nicolas Foglia, Miquel Garcia-Rates, Ingolf Harden, Hagen Neugebauer, Anastasios Papadopoulos, 
  Christoph Riplinger, Bernardo de Souza, Georgi L. Stoychev                                                    
                                                                 
  APM, various basis sets, CI-OPT, improved COSX, DLPNO-Multilevel,           
  DOCKER, DRACO, updates on ESD, Fragmentator, GOAT, IRC, LR-CPCM, L-BFGS, MBIS, meta-GGA TD-DFT gradient, ML-optimized integration grids, 
  MM, NACMEs, nearIR, NEB, NEB-TS, NL-DFT gradient (VV10), 2- and 3-layer-ONIOM, interface openCOSMO-RS, QMMM,   
  Crystal-QMMM, RESP, rigid body optimization, SF, symmetry and pop. for TD-DFT, various functionals, SOLVATOR                                   
                                                                         
[Other institutions]                                                     
  V. Asgeirsson          : NEB                                           
  Christoph Bannwarth    : sTDA-DFT, sTD-DFT, PBEh-3c, B97-3c, D3        
  Giovanni Bistoni       : ETS/NOCV, ADLD/ADEX, COVALED                  
  Martin Brehm           : Molecular dynamics                            
  Ronald Cardenas        : ETS/NOCV                                      
  Martina Colucci        : COVALED                                       
  Sebastian Ehlert       : rSCAN, r2SCAN, r2SCAN-3c, D4, dhf basis sets  
  Marvin Friede          : D4 for Fr, Ra, Ac-Lr                          
  Lars Goerigk           : TD-DFT with DH, B97 family of functionals     
  Stefan Grimme          : VdW corrections, initial TS optimization, DFT functionals, gCP, sTDA/sTD-DF 
  Waldemar Hujo          : DFT-NL                                        
  H. Jonsson             : NEB                                           
  Holger Kruse           : gCP                                           
  Marcel Mueller         : wB97X-3c, vDZP basis set                      
  Hagen Neugebauer       : wr2SCAN, Native XTB                           
  Gianluca Regni         : ADLD/ADEX                                     
  Tobias Risthaus        : pre 6.0 range-separated hybrid DFT and stability analysis
  Lukas Wittmann         : regularized MP2, r2SCAN double-hybrids, wr2SCAN        
                                                                         
We gratefully acknowledge several colleagues who have allowed us to      
interface, adapt or use parts of their codes:                            
  Ed Valeev, F. Pavosevic, A. Kumar             : LibInt (2-el integral package), F12 methods 
  Garnet Chan, S. Sharma, J. Yang, R. Olivares  : DMRG                   
  Ulf Ekstrom                                   : XCFun DFT Library      
  Mihaly Kallay                                 : mrcc  (arbitrary order and MRCC methods)
  Frank Weinhold                                : gennbo (NPA and NBO analysis)           
  Simon Mueller                                 : openCOSMO-RS                            
  Christopher J. Cramer and Donald G. Truhlar   : smd solvation model                     
  S Lehtola, MJT Oliveira, MAL Marques          : LibXC Library                           
  Liviu Ungur et al                             : ANISO software                          


 Your calculation uses the libint2 library for the computation of 2-el integrals
 For citations please refer to: http://libint.valeyev.net

 Your ORCA version has been built with support for libXC version: 7.0.0
 For citations please refer to: https://libxc.gitlab.io

 This ORCA versions uses:
   CBLAS   interface :  Fast vector & matrix operations
   LAPACKE interface :  Fast linear algebra routines
   SCALAPACK package :  Parallel linear algebra routines
   Shared memory     :  Shared parallel matrices
   BLAS/LAPACK       :  OpenBLAS 0.3.29  USE64BITINT DYNAMIC_ARCH NO_AFFINITY Prescott SINGLE_THREADED
        Core in use  :  Prescott
   Copyright (c) 2011-2014, The OpenBLAS Project


  ***********************************
  * Starting time: Fri Aug  8 19:04:52 2025
  * Host name:     cuda6
  * Process ID:    121807
  * Working dir.:  /local/scratch/mehlhorn/61816
  ***********************************



***************************************
The coordinates will be read from file: start.xyz
***************************************


Your calculation utilizes the geometrical counterpoise correction gCP
Please cite in your paper:
H.Kruse, S. Grimme J.Chem.Phys., 136, (2012), 154101 
   

Your calculation utilizes the atom-pairwise dispersion correction
with the Becke-Johnson damping scheme (D3BJ)


Warning: RI is on but no J-basis has been assigned. Assigning Def2/J (nothing to worry about!)
================================================================================

cite the ECPs for Zr [Def2-ECP] as follows:
Ce-Yb(ecp-28): M. Dolg, H. Stoll, H.Preuss, J. Chem. Phys., 1989, 90, 1730-1734.
Y-Cd(ecp-28), Hf-Hg(ecp-46): D. Andrae,U. Haeussermann, M. Dolg, H. Stoll, H. Preuss, Theor. Chim. Acta, 1990, 77, 123-141.
In-Sb(ecp-28), Tl-Bi(ecp-46): B. Metz, H. Stoll, M. Dolg, J. Chem. Phys., 2000, 113, 2563-2569.
Te-Xe(ecp-28), Po-Rn(ecp-46): K. A. Peterson, D. Figgen, E. Goll, H. Stoll, M. Dolg, J. Chem. Phys., 2003, 119, 11113-11123.
Rb(ecp-28), Cs(ecp-46): T. Leininger, A. Nicklass, W. Kuechle, H. Stoll, M. Dolg, A. Bergner, Chem. Phys. Lett., 1996, 255, 274-280.
Sr(ecp-28), Ba(ecp-46): M. Kaupp, P. V. Schleyer, H. Stoll and H. Preuss, J. Chem. Phys., 1991, 94, 1360-1366.
La(ecp-46): M. Dolg, H. Stoll, A. Savin, H. Preuss, Theor. Chim. Acta, 1989, 75, 173-194.
Lu(ecp-28): X. Cao, M. Dolg, J. Chem. Phys., 2001, 115, 7348-7355.

ECP parameters for Zr [Def2-ECP] have been obtained from:
TURBOMOLE (7.0.2)

----- Orbital basis set information -----
Your calculation utilizes the basis: def2-SV(P)
   F. Weigend and R. Ahlrichs, Phys. Chem. Chem. Phys. 7, 3297 (2005).

----- AuxJ basis set information -----
Your calculation utilizes the auxiliary basis: def2/J
   H-Rn: F. Weigend, Phys. Chem. Chem. Phys. 8, 1057 (2006).
   Fr-Lr: K. Eichkorn, F. Weigend, O. Treutler, R. Ahlrichs; Theor. Chem. Acc. 97, 119 (1997).

================================================================================
                                        WARNINGS
                       Please study these warnings very carefully!
================================================================================


WARNING: Gradients are needed
  ===> : At least TightSCF should be used for SCF convergence

WARNING: Geometry Optimization
  ===> : Switching off AutoStart
         For restart on a previous wavefunction, please use MOREAD

================================================================================
                                       INPUT FILE
================================================================================
NAME = run.inp
|  1> # Geometry optimization for (AlH3)n cluster
|  2> 
|  3> %pal nprocs 24  end
|  4> 
|  5> %geom MaxIter 500 end
|  6> 
|  7> 
|  8> ! PBE def2-SV(P)
|  9> ! RKS	# closed shell for AlH3
| 10> ! D3    #  dispersion correction
| 11> ! gCP(DFT/SV(P))
| 12> ! Freq 	# Frequency analysis to check the stabiltity of the structures
| 13> 
| 14> ! NoPop # population analysis not necessary	
| 15> 
| 16> ! DEFGRID2
| 17> ! NormalSCF
| 18> ! SloppyOpt
| 19> 
| 20> ! SmallPrint
| 21> 
| 22> 
| 23> * xyzFile 0 1 start.xyz # only maingroup elements H and Al so there should be no net spin
| 24> 
| 25>                          ****END OF INPUT****
================================================================================

                       *****************************
                       * Geometry Optimization Run *
                       *****************************

Geometry optimization settings:
Update method            Update   .... BFGS
Choice of coordinates    CoordSys .... (2022) Redundant Internals
Initial Hessian          InHess   .... Almloef's Model
Max. no of cycles        MaxIter  .... 500

Convergence Tolerances:
Energy Change            TolE     ....  8.0000e-05 Eh
Max. Gradient            TolMAXG  ....  5.0000e-03 Eh/bohr
RMS Gradient             TolRMSG  ....  1.0000e-03 Eh/bohr
Max. Displacement        TolMAXD  ....  3.0000e-02 bohr
RMS Displacement         TolRMSD  ....  2.0000e-02 bohr
Strict Convergence                .... False

------------------------------------------------------------------------------
                        ORCA OPTIMIZATION COORDINATE SETUP
------------------------------------------------------------------------------

The optimization will be done in redundant internal coordinates (2022)
Making redundant internal coordinates   ...  (2022 redundants) done
Evaluating the initial hessian          ...  (Almloef) done
Evaluating the coordinates              ...  done
Calculating the B-matrix                .... done
Calculating the G-matrix                .... done
The number of degrees of freedom        ....  691

    -----------------------------------------------------------------
                    Redundant Internal Coordinates


    -----------------------------------------------------------------
         Definition                    Initial Value    Approx d2E/dq
    -----------------------------------------------------------------
      1. B(Zr  2,Zr  1)                  3.4258         0.036146   
      2. B(Zr  3,Zr  0)                  3.4189         0.037069   
      3. B(Zr  4,Zr  3)                  3.4196         0.036968   
      4. B(Zr  4,Zr  1)                  3.4213         0.036744   
      5. B(Zr  5,Zr  0)                  3.4097         0.038341   
      6. B(Zr  5,Zr  2)                  3.4229         0.036533   
      7. B(O   6,Zr  3)                  2.1404         0.359597   
      8. B(O   6,Zr  0)                  2.0910         0.431086   
      9. B(O   6,Zr  5)                  2.1270         0.377735   
     10. B(O   7,Zr  4)                  2.1334         0.368925   
     11. B(O   7,Zr  1)                  2.0954         0.424233   
     12. B(O   7,Zr  2)                  2.1410         0.358814   
     13. B(O   8,Zr  1)                  2.1345         0.367383   
     14. B(O   8,Zr  2)                  2.1031         0.412441   
     15. B(O   8,Zr  5)                  2.1495         0.347741   
     16. B(O   9,Zr  4)                  2.1436         0.355413   
     17. B(O   9,Zr  3)                  2.1003         0.416653   
     18. B(O   9,Zr  0)                  2.1279         0.376536   
     19. B(O  10,Zr  3)                  2.1251         0.380429   
     20. B(O  10,Zr  4)                  2.0990         0.418660   
     21. B(O  10,Zr  1)                  2.1424         0.356951   
     22. B(O  11,Zr  0)                  2.1398         0.360364   
     23. B(O  11,Zr  5)                  2.0967         0.422216   
     24. B(O  11,Zr  2)                  2.1226         0.383840   
     25. B(O  12,Zr  0)                  1.9680         0.677488   
     26. B(O  13,Zr  0)                  1.9772         0.654817   
     27. B(O  14,Zr  0)                  2.0699         0.465802   
     28. B(O  15,Zr  0)                  2.0349         0.529696   
     29. B(O  16,Zr  1)                  2.0364         0.526929   
     30. B(O  17,Zr  1)                  2.0745         0.458131   
     31. B(O  18,Zr  1)                  1.9783         0.652335   
     32. B(O  19,Zr  1)                  1.9683         0.676585   
     33. B(O  20,Zr  2)                  1.9788         0.650950   
     34. B(O  21,Zr  2)                  2.0384         0.522969   
     35. B(O  22,Zr  2)                  1.9683         0.676666   
     36. B(O  23,Zr  2)                  2.0746         0.457952   
     37. B(O  24,Zr  3)                  2.0730         0.460586   
     38. B(O  25,Zr  3)                  1.9688         0.675485   
     39. B(O  26,Zr  3)                  2.0360         0.527596   
     40. B(O  27,Zr  3)                  1.9780         0.653047   
     41. B(O  28,Zr  4)                  1.9714         0.669047   
     42. B(O  29,Zr  4)                  2.0684         0.468482   
     43. B(O  30,Zr  4)                  1.9741         0.662317   
     44. B(O  31,Zr  4)                  2.0420         0.516161   
     45. B(O  32,Zr  5)                  2.0439         0.512494   
     46. B(O  33,Zr  5)                  1.9771         0.655052   
     47. B(O  34,Zr  5)                  2.0642         0.475775   
     48. B(O  35,Zr  5)                  1.9698         0.672832   
     49. B(C  36,O  33)                  1.2983         0.783762   
     50. B(C  36,O  12)                  1.2979         0.784846   
     51. B(C  37,O  25)                  1.2977         0.785438   
     52. B(C  37,O  13)                  1.2980         0.784492   
     53. B(C  38,O  21)                  1.2968         0.788180   
     54. B(C  38,O  14)                  1.2986         0.782744   
     55. B(C  39,O  29)                  1.2991         0.781582   
     56. B(C  39,O  15)                  1.2969         0.787735   
     57. B(C  40,O  34)                  1.2988         0.782204   
     58. B(C  40,O  16)                  1.2967         0.788339   
     59. B(C  41,O  17)                  1.2986         0.782770   
     60. B(C  41,O  26)                  1.2967         0.788461   
     61. B(C  42,O  22)                  1.2980         0.784532   
     62. B(C  42,O  18)                  1.2983         0.783746   
     63. B(C  43,O  19)                  1.2980         0.784520   
     64. B(C  43,O  30)                  1.2981         0.784328   
     65. B(C  44,O  35)                  1.2981         0.784328   
     66. B(C  44,O  20)                  1.2983         0.783738   
     67. B(C  45,O  31)                  1.2974         0.786348   
     68. B(C  45,O  23)                  1.2996         0.780127   
     69. B(C  46,O  32)                  1.2975         0.786177   
     70. B(C  46,O  24)                  1.2997         0.779838   
     71. B(C  47,O  28)                  1.2981         0.784310   
     72. B(C  47,O  27)                  1.2983         0.783747   
     73. B(H  48,C  41)                  1.0864         0.364909   
     74. B(H  49,C  42)                  1.0899         0.360248   
     75. B(H  50,C  38)                  1.0865         0.364740   
     76. B(H  51,C  37)                  1.0899         0.360179   
     77. B(H  52,C  43)                  1.0899         0.360237   
     78. B(H  53,C  47)                  1.0899         0.360281   
     79. B(H  54,C  39)                  1.0869         0.364202   
     80. B(H  55,C  45)                  1.0869         0.364247   
     81. B(H  56,C  40)                  1.0867         0.364495   
     82. B(H  57,C  46)                  1.0869         0.364242   
     83. B(H  58,C  36)                  1.0899         0.360255   
     84. B(H  59,C  44)                  1.0899         0.360298   
     85. B(Al 60,O  13)                  3.2652         0.010000   
     86. B(Al 61,O  15)                  3.2705         0.010000   
     87. B(Al 61,Al 60)                  2.7380         0.216914   
     88. B(H  62,C  39)                  3.2584         0.010000   
     89. B(H  62,H  54)                  2.8795         0.010000   
     90. B(H  62,O  15)                  2.7309         0.010000   
     91. B(H  62,Al 61)                  1.6762         0.292968   
     92. B(H  63,H  51)                  3.1709         0.010000   
     93. B(H  63,C  37)                  3.1044         0.010000   
     94. B(H  63,O  13)                  2.8563         0.010000   
     95. B(H  63,O  15)                  2.6824         0.010000   
     96. B(H  63,Al 61)                  1.6101         0.373489   
     97. B(H  64,C  37)                  3.2013         0.010000   
     98. B(H  64,H  51)                  2.8349         0.010000   
     99. B(H  64,O  13)                  2.7388         0.010000   
    100. B(H  64,Al 61)                  1.6753         0.293920   
    101. B(H  64,Al 60)                  1.6729         0.296481   
    102. B(H  65,C  36)                  3.1756         0.010000   
    103. B(H  65,H  58)                  3.0864         0.010000   
    104. B(H  65,O  13)                  2.7999         0.010000   
    105. B(H  65,O  12)                  2.6453         0.010000   
    106. B(H  65,Al 60)                  1.6102         0.373287   
    107. B(H  66,O  12)                  2.8122         0.010000   
    108. B(H  66,Al 60)                  1.6766         0.292543   
    109. B(H  67,Al 61)                  1.6100         0.373620   
    110. B(Al 68,O  15)                  3.2847         0.010000   
    111. B(Al 68,H  66)                  1.6758         0.293343   
    112. B(Al 68,H  62)                  1.6734         0.296001   
    113. B(Al 68,Al 61)                  2.7364         0.218196   
    114. B(Al 68,Al 60)                  2.7265         0.226293   
    115. B(H  69,Al 68)                  1.6111         0.372065   
    116. B(H  70,H  54)                  3.2216         0.010000   
    117. B(H  70,C  38)                  3.1838         0.010000   
    118. B(H  70,H  50)                  2.9315         0.010000   
    119. B(H  70,O  15)                  2.8984         0.010000   
    120. B(H  70,O  14)                  2.5413         0.010000   
    121. B(H  70,Al 68)                  1.6086         0.375545   
    122. B(H  71,Al 60)                  1.6112         0.371879   
    123. A(Zr  5,Zr  0,O  11)           35.9769         0.328911   
    124. A(Zr  5,Zr  0,O  13)          109.4114         0.363635   
    125. A(O  11,Zr  0,O  15)          131.2378         0.477260   
    126. A(Zr  5,Zr  0,O   9)           91.8714         0.331306   
    127. A(O   6,Zr  0,O  11)           67.2517         0.459573   
    128. A(Zr  5,Zr  0,O  14)          104.2115         0.343259   
    129. A(Zr  3,Zr  0,Zr  5)           70.5544         0.249517   
    130. A(O  13,Zr  0,O  15)           82.5893         0.533457   
    131. A(O  12,Zr  0,O  15)          124.0730         0.536894   
    132. A(O   6,Zr  0,O  15)          135.5406         0.493330   
    133. A(O   6,Zr  0,O   9)           67.4744         0.463273   
    134. A(O   9,Zr  0,O  12)          162.2874         0.503598   
    135. A(O   6,Zr  0,O  12)           95.2107         0.516490   
    136. A(O   9,Zr  0,O  13)           90.9820         0.500417   
    137. A(O  12,Zr  0,O  13)           82.7980         0.558915   
    138. A(O  11,Zr  0,O  14)           70.9322         0.466127   
    139. A(O  11,Zr  0,O  13)          145.2051         0.496349   
    140. A(O   6,Zr  0,O  13)           82.7458         0.513210   
    141. A(Zr  3,Zr  0,O   6)           36.5910         0.336940   
    142. A(Zr  3,Zr  0,O   9)           35.7693         0.329462   
    143. A(Zr  3,Zr  0,O  14)          146.0586         0.341325   
    144. A(O  12,Zr  0,O  14)           80.8333         0.524051   
    145. A(O  13,Zr  0,O  14)          136.9295         0.520712   
    146. A(O   9,Zr  0,O  14)          114.2879         0.469892   
    147. A(Zr  5,Zr  0,O   6)           36.4203         0.338841   
    148. A(Zr  3,Zr  0,O  13)           72.4974         0.361546   
    149. A(O  11,Zr  0,O  12)           82.8161         0.499499   
    150. A(O   9,Zr  0,O  11)           93.2439         0.448397   
    151. A(Zr  3,Zr  0,O  15)           98.9560         0.348774   
    152. A(Zr  3,Zr  0,O  11)           91.4766         0.327085   
    153. A(O  14,Zr  0,O  15)           74.4177         0.500481   
    154. A(O   9,Zr  0,O  15)           71.0729         0.481137   
    155. A(Zr  5,Zr  0,O  15)          159.6777         0.350765   
    156. A(Zr  3,Zr  0,O  12)          126.7761         0.363653   
    157. A(O   6,Zr  0,O  14)          138.1585         0.481736   
    158. A(Zr  5,Zr  0,O  12)           74.7843         0.365759   
    159. A(O   7,Zr  1,O  19)           94.0061         0.514814   
    160. A(O  16,Zr  1,O  17)           74.5772         0.498452   
    161. A(O   7,Zr  1,O  18)           83.3630         0.511311   
    162. A(O   8,Zr  1,O  18)           90.4964         0.497780   
    163. A(O   8,Zr  1,O  16)           71.2579         0.478496   
    164. A(Zr  4,Zr  1,O   7)           36.3730         0.335550   
    165. A(Zr  4,Zr  1,O  10)           35.8028         0.326100   
    166. A(O   7,Zr  1,O  10)           67.0010         0.457437   
    167. A(O   8,Zr  1,O  10)           92.4635         0.445632   
    168. A(Zr  2,Zr  1,O   8)           35.7495         0.326766   
    169. A(Zr  4,Zr  1,O  18)          110.5561         0.360769   
    170. A(O  10,Zr  1,O  16)          130.1503         0.475965   
    171. A(O   7,Zr  1,O  17)          137.6252         0.478846   
    172. A(Zr  2,Zr  1,O  16)           99.4277         0.346990   
    173. A(O  10,Zr  1,O  18)          146.2657         0.495123   
    174. A(O   7,Zr  1,O  16)          135.8942         0.491389   
    175. A(Zr  2,Zr  1,Zr  4)           70.2856         0.247074   
    176. A(Zr  2,Zr  1,O  10)           90.8600         0.325221   
    177. A(O  16,Zr  1,O  18)           82.3821         0.532549   
    178. A(O  16,Zr  1,O  19)          125.1205         0.536228   
    179. A(O  10,Zr  1,O  17)           70.6248         0.463903   
    180. A(Zr  4,Zr  1,O  17)          103.4311         0.339877   
    181. A(O   8,Zr  1,O  19)          160.9220         0.501171   
    182. A(Zr  2,Zr  1,O  19)          125.4294         0.362008   
    183. A(Zr  4,Zr  1,O  19)           74.3204         0.363023   
    184. A(Zr  2,Zr  1,O  18)           72.5648         0.359762   
    185. A(O  17,Zr  1,O  19)           81.2480         0.522288   
    186. A(Zr  2,Zr  1,O   7)           36.4861         0.334637   
    187. A(Zr  2,Zr  1,O  17)          146.4241         0.338948   
    188. A(O   7,Zr  1,O   8)           67.3617         0.459847   
    189. A(Zr  4,Zr  1,O   8)           91.4354         0.327650   
    190. A(Zr  4,Zr  1,O  16)          158.8735         0.347949   
    191. A(O   8,Zr  1,O  17)          114.9957         0.466356   
    192. A(O  18,Zr  1,O  19)           82.9769         0.558370   
    193. A(O  10,Zr  1,O  19)           83.3903         0.498492   
    194. A(O  17,Zr  1,O  18)          136.7519         0.518723   
    195. A(O   7,Zr  2,O   8)           67.1086         0.455525   
    196. A(Zr  1,Zr  2,O  22)           74.9645         0.362016   
    197. A(O  11,Zr  2,O  20)           91.9718         0.501656   
    198. A(Zr  1,Zr  2,O  21)          159.7159         0.346550   
    199. A(Zr  5,Zr  2,O   8)           36.8639         0.333662   
    200. A(O  21,Zr  2,O  23)           74.7226         0.497717   
    201. A(O  20,Zr  2,O  23)          138.1053         0.518478   
    202. A(O  22,Zr  2,O  23)           81.1754         0.522261   
    203. A(Zr  1,Zr  2,O   8)           36.3695         0.333074   
    204. A(Zr  1,Zr  2,Zr  5)           70.3950         0.246868   
    205. A(O   8,Zr  2,O  21)          135.3449         0.488148   
    206. A(Zr  5,Zr  2,O   7)           90.9763         0.326070   
    207. A(O  11,Zr  2,O  23)          112.6859         0.470083   
    208. A(O   8,Zr  2,O  23)          137.8649         0.476333   
    209. A(O   7,Zr  2,O  20)          144.3020         0.495406   
    210. A(Zr  5,Zr  2,O  11)           35.5297         0.329715   
    211. A(O   7,Zr  2,O  21)          132.0898         0.475761   
    212. A(Zr  5,Zr  2,O  23)          144.3712         0.339528   
    213. A(Zr  5,Zr  2,O  22)          127.7339         0.362673   
    214. A(O  20,Zr  2,O  21)           82.5883         0.531579   
    215. A(O   8,Zr  2,O  22)           95.3071         0.512117   
    216. A(Zr  1,Zr  2,O  23)          104.0693         0.338926   
    217. A(O  11,Zr  2,O  22)          162.7285         0.505290   
    218. A(Zr  1,Zr  2,O   7)           35.5890         0.325500   
    219. A(O   7,Zr  2,O  11)           92.3880         0.449611   
    220. A(O   8,Zr  2,O  11)           67.5560         0.461161   
    221. A(O  11,Zr  2,O  21)           71.3741         0.481708   
    222. A(Zr  1,Zr  2,O  11)           91.1370         0.329136   
    223. A(O   7,Zr  2,O  22)           82.2985         0.498986   
    224. A(Zr  5,Zr  2,O  20)           72.8502         0.360284   
    225. A(Zr  5,Zr  2,O  21)           98.4847         0.347170   
    226. A(O  20,Zr  2,O  22)           83.1534         0.558156   
    227. A(Zr  1,Zr  2,O  20)          108.9184         0.359632   
    228. A(O  21,Zr  2,O  22)          123.9934         0.535477   
    229. A(O   7,Zr  2,O  23)           70.8217         0.464312   
    230. A(O   8,Zr  2,O  20)           82.0521         0.508423   
    231. A(O   6,Zr  3,O  10)           91.7496         0.449061   
    232. A(O   9,Zr  3,O  10)           67.4558         0.461265   
    233. A(Zr  4,Zr  3,O  10)           35.6907         0.329873   
    234. A(Zr  4,Zr  3,O  25)          128.1399         0.363299   
    235. A(O   6,Zr  3,O  24)           70.9607         0.464985   
    236. A(O  24,Zr  3,O  27)          138.2993         0.519349   
    237. A(Zr  4,Zr  3,O  24)          144.1067         0.340526   
    238. A(O  24,Zr  3,O  25)           81.0117         0.522652   
    239. A(O   6,Zr  3,O  27)          143.9030         0.495903   
    240. A(Zr  4,Zr  3,O  27)           72.9672         0.361210   
    241. A(O   6,Zr  3,O  25)           82.3419         0.499026   
    242. A(Zr  0,Zr  3,O  27)          108.5018         0.361379   
    243. A(Zr  4,Zr  3,O   6)           90.7474         0.326823   
    244. A(O  24,Zr  3,O  26)           74.9160         0.499065   
    245. A(Zr  4,Zr  3,O  26)           98.1751         0.348379   
    246. A(O   6,Zr  3,O   9)           67.0802         0.456550   
    247. A(O  26,Zr  3,O  27)           82.7531         0.532785   
    248. A(O   9,Zr  3,O  25)           95.6994         0.512924   
    249. A(Zr  4,Zr  3,O   9)           36.7453         0.334883   
    250. A(Zr  0,Zr  3,O  25)           75.2535         0.363469   
    251. A(Zr  0,Zr  3,Zr  4)           70.1806         0.248197   
    252. A(Zr  0,Zr  3,O   9)           36.3128         0.335036   
    253. A(O   9,Zr  3,O  27)           81.7711         0.509695   
    254. A(O  25,Zr  3,O  26)          124.0005         0.536191   
    255. A(Zr  0,Zr  3,O  26)          159.5370         0.348540   
    256. A(Zr  0,Zr  3,O  24)          104.2817         0.340682   
    257. A(O  25,Zr  3,O  27)           83.1151         0.558312   
    258. A(O   6,Zr  3,O  26)          132.2614         0.476724   
    259. A(O  10,Zr  3,O  27)           92.7250         0.501123   
    260. A(O  10,Zr  3,O  24)          112.0980         0.469808   
    261. A(Zr  0,Zr  3,O  10)           90.7130         0.330023   
    262. A(O   9,Zr  3,O  26)          134.9132         0.489865   
    263. A(O  10,Zr  3,O  26)           71.3128         0.481697   
    264. A(Zr  0,Zr  3,O   6)           35.6162         0.326970   
    265. A(O  10,Zr  3,O  25)          163.1016         0.504286   
    266. A(O   9,Zr  3,O  24)          137.9629         0.477729   
    267. A(Zr  1,Zr  4,Zr  3)           70.4147         0.247880   
    268. A(O   9,Zr  4,O  10)           67.1392         0.455977   
    269. A(O   7,Zr  4,O  10)           67.1025         0.459089   
    270. A(Zr  3,Zr  4,O  10)           36.2034         0.335151   
    271. A(O  10,Zr  4,O  28)           96.5779         0.512466   
    272. A(O   9,Zr  4,O  29)           71.4243         0.465436   
    273. A(O  28,Zr  4,O  30)           83.0831         0.558793   
    274. A(O  30,Zr  4,O  31)           82.8947         0.532001   
    275. A(O  29,Zr  4,O  31)           74.5303         0.498609   
    276. A(O   7,Zr  4,O  31)           70.7770         0.477049   
    277. A(O  28,Zr  4,O  31)          124.2840         0.533016   
    278. A(O  10,Zr  4,O  31)          134.0267         0.488316   
    279. A(O   9,Zr  4,O  31)          133.2426         0.473785   
    280. A(Zr  3,Zr  4,O  31)          159.8771         0.347096   
    281. A(Zr  1,Zr  4,O  31)           97.3663         0.346742   
    282. A(O  29,Zr  4,O  30)          137.8915         0.522389   
    283. A(O  10,Zr  4,O  30)           82.1417         0.511499   
    284. A(O   9,Zr  4,O  30)          143.0885         0.496123   
    285. A(O   7,Zr  4,O  30)           93.5516         0.499576   
    286. A(Zr  3,Zr  4,O  30)          107.6439         0.362080   
    287. A(Zr  1,Zr  4,O  30)           73.4685         0.361705   
    288. A(O  28,Zr  4,O  29)           81.1304         0.523381   
    289. A(O  10,Zr  4,O  29)          138.2871         0.479652   
    290. A(O   7,Zr  4,O  29)          111.1968         0.468629   
    291. A(Zr  3,Zr  4,O  29)          105.4227         0.341496   
    292. A(Zr  1,Zr  4,O  29)          143.5215         0.341149   
    293. A(O   9,Zr  4,O  28)           80.7459         0.497056   
    294. A(O   7,Zr  4,O  28)          163.6665         0.500517   
    295. A(Zr  3,Zr  4,O  28)           74.8438         0.362705   
    296. A(O   7,Zr  4,O   9)           92.8275         0.445621   
    297. A(Zr  1,Zr  4,O   9)           91.5987         0.325868   
    298. A(Zr  3,Zr  4,O   7)           91.1162         0.328205   
    299. A(Zr  1,Zr  4,O   7)           35.6244         0.327877   
    300. A(Zr  3,Zr  4,O   9)           35.8865         0.326193   
    301. A(Zr  1,Zr  4,O  28)          128.9651         0.362329   
    302. A(Zr  1,Zr  4,O  10)           36.6622         0.334813   
    303. A(O  11,Zr  5,O  35)           95.8895         0.513820   
    304. A(O  34,Zr  5,O  35)           81.5211         0.525460   
    305. A(O  33,Zr  5,O  35)           83.1414         0.558220   
    306. A(O  32,Zr  5,O  35)          124.5336         0.532866   
    307. A(O   8,Zr  5,O  35)           81.1867         0.495564   
    308. A(O   6,Zr  5,O  35)          163.2555         0.503249   
    309. A(Zr  2,Zr  5,O  35)           74.8678         0.362322   
    310. A(O  33,Zr  5,O  34)          137.7824         0.522822   
    311. A(O  32,Zr  5,O  34)           74.5789         0.499381   
    312. A(O  11,Zr  5,O  34)          138.2770         0.481771   
    313. A(Zr  0,Zr  5,O  35)          128.4354         0.365327   
    314. A(O  32,Zr  5,O  33)           82.4758         0.530184   
    315. A(O   6,Zr  5,O  34)          111.2341         0.471998   
    316. A(Zr  2,Zr  5,O  34)          105.3064         0.341702   
    317. A(Zr  0,Zr  5,O  34)          143.6160         0.344481   
    318. A(O  11,Zr  5,O  33)           82.2636         0.511252   
    319. A(O   8,Zr  5,O  33)          143.7484         0.493107   
    320. A(O   6,Zr  5,O  33)           93.3159         0.500746   
    321. A(Zr  0,Zr  5,O  33)           73.3845         0.363658   
    322. A(O  11,Zr  5,O  32)          134.2913         0.488436   
    323. A(O   8,Zr  5,O  32)          132.9062         0.471272   
    324. A(O   6,Zr  5,O  32)           70.8194         0.478498   
    325. A(Zr  2,Zr  5,O  32)          159.6199         0.345991   
    326. A(Zr  0,Zr  5,O  32)           97.4584         0.348817   
    327. A(Zr  2,Zr  5,O   6)           90.8659         0.328843   
    328. A(Zr  0,Zr  5,O   6)           35.7088         0.331481   
    329. A(Zr  0,Zr  5,Zr  2)           70.2445         0.248989   
    330. A(O   8,Zr  5,O  34)           71.3063         0.464893   
    331. A(O   8,Zr  5,O  11)           67.1747         0.454868   
    332. A(O   6,Zr  5,O  11)           67.3879         0.461784   
    333. A(Zr  2,Zr  5,O  11)           36.0375         0.334963   
    334. A(Zr  0,Zr  5,O  11)           36.8370         0.337668   
    335. A(O   6,Zr  5,O   8)           92.4546         0.445765   
    336. A(Zr  2,Zr  5,O  33)          108.1851         0.360670   
    337. A(Zr  2,Zr  5,O   8)           35.9411         0.324393   
    338. A(Zr  0,Zr  5,O   8)           91.4319         0.326982   
    339. A(Zr  3,O   6,Zr  5)          135.0853         0.448482   
    340. A(Zr  0,O   6,Zr  5)          107.8709         0.463543   
    341. A(Zr  0,O   6,Zr  3)          107.7927         0.459394   
    342. A(Zr  2,O   7,Zr  4)          134.4609         0.446391   
    343. A(Zr  1,O   7,Zr  4)          108.0026         0.460199   
    344. A(Zr  1,O   7,Zr  2)          107.9249         0.457871   
    345. A(Zr  1,O   8,Zr  2)          107.8810         0.457488   
    346. A(Zr  2,O   8,Zr  5)          107.1950         0.452934   
    347. A(Zr  1,O   8,Zr  5)          134.2764         0.443528   
    348. A(Zr  3,O   9,Zr  4)          107.3681         0.455578   
    349. A(Zr  0,O   9,Zr  4)          133.9578         0.447274   
    350. A(Zr  0,O   9,Zr  3)          107.9179         0.460399   
    351. A(Zr  3,O  10,Zr  4)          108.1059         0.461670   
    352. A(Zr  1,O  10,Zr  4)          107.5350         0.456336   
    353. A(Zr  1,O  10,Zr  3)          135.1017         0.448460   
    354. A(Zr  2,O  11,Zr  5)          108.4328         0.463139   
    355. A(Zr  0,O  11,Zr  5)          107.1862         0.457833   
    356. A(Zr  0,O  11,Zr  2)          134.5094         0.449963   
    357. A(Zr  0,O  12,C  36)          131.3697         0.511883   
    358. A(Zr  0,O  13,C  37)          134.0517         0.508595   
    359. A(C  37,O  13,Al 60)          122.2099         0.218684   
    360. A(Zr  0,O  13,Al 60)          103.4874         0.233122   
    361. A(Zr  0,O  14,C  38)          140.5609         0.477268   
    362. A(Zr  0,O  15,C  39)          129.1831         0.489306   
    363. A(C  39,O  15,Al 68)          115.8914         0.216723   
    364. A(Zr  0,O  15,Al 61)          110.7072         0.225771   
    365. A(C  39,O  15,Al 61)          119.6635         0.218241   
    366. A(Al 61,O  15,Al 68)           49.3456         0.132639   
    367. A(Zr  0,O  15,Al 68)          101.1385         0.224165   
    368. A(Zr  1,O  16,C  40)          129.6111         0.488901   
    369. A(Zr  1,O  17,C  41)          140.7980         0.475814   
    370. A(Zr  1,O  18,C  42)          133.7882         0.508144   
    371. A(Zr  1,O  19,C  43)          131.8634         0.511716   
    372. A(Zr  2,O  20,C  44)          133.5031         0.507942   
    373. A(Zr  2,O  21,C  38)          129.5203         0.488200   
    374. A(Zr  2,O  22,C  42)          130.6765         0.511729   
    375. A(Zr  2,O  23,C  45)          139.8235         0.475484   
    376. A(Zr  3,O  24,C  46)          139.3726         0.475954   
    377. A(Zr  3,O  25,C  37)          130.3706         0.511672   
    378. A(Zr  3,O  26,C  41)          129.9059         0.489029   
    379. A(Zr  3,O  27,C  47)          133.3904         0.508248   
    380. A(Zr  4,O  28,C  47)          130.9131         0.510620   
    381. A(Zr  4,O  29,C  39)          139.2037         0.477642   
    382. A(Zr  4,O  30,C  43)          132.8146         0.509658   
    383. A(Zr  4,O  31,C  45)          128.2591         0.486809   
    384. A(Zr  5,O  32,C  46)          128.3670         0.486148   
    385. A(Zr  5,O  33,C  36)          132.9891         0.508541   
    386. A(Zr  5,O  34,C  40)          140.1079         0.479073   
    387. A(Zr  5,O  35,C  44)          130.8978         0.511161   
    388. A(O  12,C  36,O  33)          127.4466         0.466520   
    389. A(O  33,C  36,H  58)          116.2897         0.365024   
    390. A(O  12,C  36,H  58)          116.2631         0.365111   
    391. A(O  13,C  37,O  25)          127.4222         0.466664   
    392. A(O  25,C  37,H  51)          116.3216         0.365145   
    393. A(O  13,C  37,H  51)          116.2562         0.365069   
    394. A(O  14,C  38,O  21)          129.2593         0.466771   
    395. A(O  21,C  38,H  50)          115.3771         0.366151   
    396. A(O  14,C  38,H  50)          115.3636         0.365717   
    397. A(O  15,C  39,O  29)          129.1411         0.466596   
    398. A(O  29,C  39,H  54)          115.4991         0.365532   
    399. A(O  15,C  39,H  54)          115.3591         0.366023   
    400. A(O  16,C  40,O  34)          129.2197         0.466730   
    401. A(O  34,C  40,H  56)          115.4201         0.365632   
    402. A(O  16,C  40,H  56)          115.3600         0.366121   
    403. A(O  17,C  41,O  26)          129.3702         0.466805   
    404. A(O  26,C  41,H  48)          115.3106         0.366202   
    405. A(O  17,C  41,H  48)          115.3189         0.365748   
    406. A(O  18,C  42,O  22)          127.4494         0.466484   
    407. A(O  22,C  42,H  49)          116.2956         0.365085   
    408. A(O  18,C  42,H  49)          116.2549         0.365022   
    409. A(O  30,C  43,H  52)          116.2519         0.365066   
    410. A(O  19,C  43,H  52)          116.2766         0.365082   
    411. A(O  19,C  43,O  30)          127.4714         0.466546   
    412. A(O  35,C  44,H  59)          116.2596         0.365077   
    413. A(O  20,C  44,H  59)          116.2264         0.365030   
    414. A(O  20,C  44,O  35)          127.5138         0.466461   
    415. A(O  31,C  45,H  55)          115.3229         0.365920   
    416. A(O  23,C  45,H  55)          115.3545         0.365423   
    417. A(O  23,C  45,O  31)          129.3225         0.466286   
    418. A(O  32,C  46,H  57)          115.3021         0.365906   
    419. A(O  24,C  46,H  57)          115.3643         0.365399   
    420. A(O  24,C  46,O  32)          129.3330         0.466236   
    421. A(O  28,C  47,H  53)          116.2643         0.365073   
    422. A(O  27,C  47,H  53)          116.2288         0.365028   
    423. A(O  27,C  47,O  28)          127.5068         0.466460   
    424. A(O  13,Al 60,H  71)          162.0914         0.201808   
    425. A(O  13,Al 60,Al 68)           89.7720         0.211971   
    426. A(O  13,Al 60,H  66)           84.4231         0.195844   
    427. A(O  13,Al 60,H  65)           59.0071         0.201904   
    428. A(O  13,Al 60,H  64)           56.9440         0.196168   
    429. A(O  13,Al 60,Al 61)           67.9820         0.210799   
    430. A(Al 68,Al 60,H  71)           97.3356         0.400424   
    431. A(H  66,Al 60,H  71)          110.7793         0.359583   
    432. A(H  65,Al 60,H  71)          123.8933         0.374930   
    433. A(H  64,Al 60,H  71)          105.9192         0.360403   
    434. A(Al 61,Al 60,H  71)          101.4237         0.397455   
    435. A(H  66,Al 60,Al 68)           35.5721         0.383962   
    436. A(H  65,Al 60,Al 68)          131.8793         0.400691   
    437. A(H  64,Al 60,Al 68)           94.4832         0.384856   
    438. A(Al 61,Al 60,Al 68)           60.1003         0.425245   
    439. A(H  65,Al 60,H  66)          100.7835         0.359815   
    440. A(H  64,Al 60,H  66)          119.4234         0.346056   
    441. A(Al 61,Al 60,H  66)           90.5033         0.381149   
    442. A(H  64,Al 60,H  65)           96.4219         0.360636   
    443. A(Al 61,Al 60,H  65)          123.9593         0.397719   
    444. A(Al 61,Al 60,H  64)           35.1685         0.382035   
    445. A(O  15,Al 61,Al 68)           65.5975         0.210431   
    446. A(O  15,Al 61,H  67)          157.6335         0.201436   
    447. A(O  15,Al 61,H  64)           97.2889         0.195493   
    448. A(O  15,Al 61,H  63)           54.6509         0.201427   
    449. A(O  15,Al 61,H  62)           56.5222         0.195415   
    450. A(O  15,Al 61,Al 60)           88.8698         0.210269   
    451. A(H  67,Al 61,Al 68)          105.6358         0.398193   
    452. A(H  64,Al 61,Al 68)           94.0715         0.381850   
    453. A(H  63,Al 61,Al 68)          119.9370         0.398169   
    454. A(H  62,Al 61,Al 68)           35.1860         0.381635   
    455. A(Al 60,Al 61,Al 68)           59.7410         0.422484   
    456. A(H  64,Al 61,H  67)          104.0114         0.360158   
    457. A(H  63,Al 61,H  67)          127.0284         0.375267   
    458. A(H  62,Al 61,H  67)          103.9317         0.359959   
    459. A(Al 60,Al 61,H  67)          104.6420         0.397781   
    460. A(H  63,Al 61,H  64)           98.4958         0.360136   
    461. A(H  62,Al 61,H  64)          127.2282         0.345637   
    462. A(Al 60,Al 61,H  64)           35.1116         0.381460   
    463. A(H  62,Al 61,H  63)           99.0440         0.359937   
    464. A(Al 60,Al 61,H  63)          120.4411         0.397757   
    465. A(Al 60,Al 61,H  62)           94.4749         0.381245   
    466. A(Al 61,H  62,Al 68)          109.5603         0.346047   
    467. A(Al 60,H  64,Al 61)          109.7199         0.346330   
    468. A(Al 60,H  66,Al 68)          108.8376         0.345438   
    469. A(O  15,Al 68,H  70)           61.9107         0.200245   
    470. A(O  15,Al 68,H  69)          161.2063         0.200011   
    471. A(O  15,Al 68,H  66)           85.2364         0.194195   
    472. A(O  15,Al 68,H  62)           56.0986         0.194410   
    473. A(O  15,Al 68,Al 61)           65.0569         0.209005   
    474. A(O  15,Al 68,Al 60)           88.7735         0.209998   
    475. A(H  69,Al 68,H  70)          121.5903         0.375353   
    476. A(H  66,Al 68,H  70)          101.2047         0.360352   
    477. A(H  62,Al 68,H  70)           97.4084         0.360907   
    478. A(Al 61,Al 68,H  70)          124.1326         0.398553   
    479. A(Al 60,Al 68,H  70)          132.3825         0.401117   
    480. A(H  66,Al 68,H  69)          110.6591         0.359781   
    481. A(H  62,Al 68,H  69)          105.7526         0.360335   
    482. A(Al 61,Al 68,H  69)          103.5934         0.397901   
    483. A(Al 60,Al 68,H  69)           98.4570         0.400460   
    484. A(H  62,Al 68,H  66)          120.6706         0.346121   
    485. A(Al 61,Al 68,H  66)           90.5743         0.381720   
    486. A(Al 60,Al 68,H  66)           35.5903         0.384144   
    487. A(Al 61,Al 68,H  62)           35.2537         0.382318   
    488. A(Al 60,Al 68,H  62)           94.9572         0.384747   
    489. A(Al 60,Al 68,Al 61)           60.1587         0.425694   
    490. D(O   7,Zr  2,Zr  1,Zr  4)    -17.4687         0.010000   
    491. D(Zr  5,Zr  2,Zr  1,O   7)    121.9239         0.010000   
    492. D(Zr  5,Zr  2,Zr  1,Zr  4)    104.4552         0.010000   
    493. D(O   6,Zr  3,Zr  0,Zr  5)     17.0526         0.010000   
    494. D(Zr  4,Zr  3,Zr  0,Zr  5)   -104.7448         0.010000   
    495. D(Zr  4,Zr  3,Zr  0,O   6)   -121.7974         0.010000   
    496. D(Zr  3,Zr  4,Zr  1,Zr  2)   -104.6251         0.010000   
    497. D(Zr  1,Zr  4,Zr  3,Zr  0)    104.4581         0.010000   
    498. D(Zr  3,Zr  4,Zr  1,O   7)   -122.1421         0.010000   
    499. D(O   7,Zr  4,Zr  1,Zr  2)     17.5170         0.010000   
    500. D(O   7,Zr  4,Zr  3,Zr  0)     74.9011         0.010000   
    501. D(Zr  1,Zr  4,Zr  3,O   6)     74.7888         0.010000   
    502. D(O   6,Zr  5,Zr  0,Zr  3)    -17.1235         0.010000   
    503. D(Zr  2,Zr  5,Zr  0,O   6)    121.8132         0.010000   
    504. D(Zr  2,Zr  5,Zr  0,Zr  3)    104.6897         0.010000   
    505. D(Zr  0,Zr  5,Zr  2,Zr  1)   -104.4926         0.010000   
    506. D(O   6,Zr  5,Zr  2,Zr  1)    -74.7543         0.010000   
    507. D(Zr  0,Zr  5,Zr  2,O   7)    -74.8877         0.010000   
    508. D(Zr  3,O   6,Zr  5,Zr  0)    141.0893         0.010000   
    509. D(Zr  0,O   6,Zr  5,Zr  2)    -53.1156         0.010000   
    510. D(Zr  3,O   6,Zr  0,Zr  5)   -152.2408         0.010000   
    511. D(Zr  5,O   6,Zr  3,Zr  0)   -141.1096         0.010000   
    512. D(Zr  5,O   6,Zr  0,Zr  3)    152.2408         0.010000   
    513. D(Zr  0,O   6,Zr  5,O   8)    -89.0383         0.010000   
    514. D(Zr  0,O   6,Zr  3,Zr  4)     53.0958         0.010000   
    515. D(Zr  3,O   6,Zr  0,O   9)    -23.8030         0.010000   
    516. D(Zr  0,O   6,Zr  3,O   9)     24.2091         0.010000   
    517. D(Zr  1,O   7,Zr  2,Zr  5)    -53.0980         0.010000   
    518. D(Zr  2,O   7,Zr  1,O   8)     23.8086         0.010000   
    519. D(Zr  4,O   7,Zr  1,Zr  2)   -151.5423         0.010000   
    520. D(Zr  2,O   7,Zr  1,Zr  4)    151.5423         0.010000   
    521. D(Zr  1,O   7,Zr  4,O   9)     88.7985         0.010000   
    522. D(Zr  1,O   7,Zr  4,Zr  3)     52.9294         0.010000   
    523. D(Zr  4,O   7,Zr  2,Zr  1)    140.5838         0.010000   
    524. D(Zr  2,O   7,Zr  4,Zr  1)   -140.5631         0.010000   
    525. D(Zr  1,O   7,Zr  2,O   8)    -24.2355         0.010000   
    526. D(Zr  2,O   8,Zr  5,Zr  0)     52.3723         0.010000   
    527. D(Zr  1,O   8,Zr  5,Zr  2)   -138.6458         0.010000   
    528. D(Zr  1,O   8,Zr  2,O   7)     23.7569         0.010000   
    529. D(Zr  1,O   8,Zr  2,Zr  5)    150.1939         0.010000   
    530. D(Zr  1,O   8,Zr  5,Zr  0)    -86.2735         0.010000   
    531. D(Zr  5,O   8,Zr  1,Zr  2)    138.4544         0.010000   
    532. D(Zr  2,O   8,Zr  1,O   7)    -24.2588         0.010000   
    533. D(Zr  2,O   8,Zr  1,Zr  4)    -52.2387         0.010000   
    534. D(Zr  5,O   8,Zr  2,Zr  1)   -150.1939         0.010000   
    535. D(Zr  3,O   9,Zr  4,Zr  1)    -52.3635         0.010000   
    536. D(Zr  0,O   9,Zr  4,Zr  3)    138.5380         0.010000   
    537. D(Zr  0,O   9,Zr  4,Zr  1)     86.1745         0.010000   
    538. D(Zr  4,O   9,Zr  0,Zr  3)   -138.3831         0.010000   
    539. D(Zr  0,O   9,Zr  3,O   6)    -23.7818         0.010000   
    540. D(Zr  0,O   9,Zr  3,Zr  4)   -149.9387         0.010000   
    541. D(Zr  3,O   9,Zr  0,O   6)     24.3045         0.010000   
    542. D(Zr  4,O   9,Zr  3,Zr  0)    149.9387         0.010000   
    543. D(Zr  3,O   9,Zr  0,Zr  5)     52.0333         0.010000   
    544. D(Zr  1,O  10,Zr  4,O   7)    -24.4446         0.010000   
    545. D(Zr  1,O  10,Zr  4,Zr  3)   -152.2383         0.010000   
    546. D(Zr  4,O  10,Zr  3,Zr  0)    -53.2351         0.010000   
    547. D(Zr  1,O  10,Zr  3,Zr  4)    141.0057         0.010000   
    548. D(Zr  1,O  10,Zr  3,Zr  0)     87.7706         0.010000   
    549. D(Zr  4,O  10,Zr  1,Zr  2)     53.3080         0.010000   
    550. D(Zr  3,O  10,Zr  1,Zr  4)   -141.1539         0.010000   
    551. D(Zr  3,O  10,Zr  4,Zr  1)    152.2383         0.010000   
    552. D(Zr  3,O  10,Zr  1,Zr  2)    -87.8458         0.010000   
    553. D(Zr  2,O  11,Zr  5,Zr  0)   -151.2297         0.010000   
    554. D(Zr  0,O  11,Zr  5,Zr  2)    151.2297         0.010000   
    555. D(Zr  5,O  11,Zr  2,Zr  1)     52.7499         0.010000   
    556. D(Zr  0,O  11,Zr  2,Zr  5)   -139.8514         0.010000   
    557. D(Zr  0,O  11,Zr  2,Zr  1)    -87.1015         0.010000   
    558. D(Zr  5,O  11,Zr  0,Zr  3)    -52.9582         0.010000   
    559. D(Zr  0,O  11,Zr  5,O   6)     24.3376         0.010000   
    560. D(Zr  2,O  11,Zr  0,Zr  5)    140.1873         0.010000   
    561. D(Zr  2,O  11,Zr  0,Zr  3)     87.2291         0.010000   
    562. D(C  36,O  12,Zr  0,Zr  5)     -1.5347         0.010000   
    563. D(C  36,O  12,Zr  0,Zr  3)     49.1175         0.010000   
    564. D(Al 60,O  13,Zr  0,Zr  3)    179.1410         0.010000   
    565. D(C  37,O  13,Zr  0,Zr  5)    -56.1935         0.010000   
    566. D(C  37,O  13,Zr  0,Zr  3)      5.0405         0.010000   
    567. D(C  38,O  14,Zr  0,Zr  5)      9.8092         0.010000   
    568. D(C  38,O  14,Zr  0,Zr  3)    -66.3763         0.010000   
    569. D(Al 61,O  15,Zr  0,Zr  3)    101.0625         0.010000   
    570. D(C  39,O  15,Zr  0,Zr  5)    -14.1281         0.010000   
    571. D(C  39,O  15,Zr  0,Zr  3)    -71.1124         0.010000   
    572. D(C  40,O  16,Zr  1,Zr  4)     11.1771         0.010000   
    573. D(C  40,O  16,Zr  1,Zr  2)     69.9115         0.010000   
    574. D(C  41,O  17,Zr  1,Zr  4)    -11.6725         0.010000   
    575. D(C  41,O  17,Zr  1,Zr  2)     62.8210         0.010000   
    576. D(C  42,O  18,Zr  1,Zr  4)     54.4376         0.010000   
    577. D(C  42,O  18,Zr  1,Zr  2)     -5.8668         0.010000   
    578. D(C  43,O  19,Zr  1,Zr  4)     -1.1667         0.010000   
    579. D(C  43,O  19,Zr  1,Zr  2)    -52.1393         0.010000   
    580. D(C  44,O  20,Zr  2,Zr  5)      4.3412         0.010000   
    581. D(C  44,O  20,Zr  2,Zr  1)    -57.1716         0.010000   
    582. D(C  38,O  21,Zr  2,Zr  5)    -70.2430         0.010000   
    583. D(C  38,O  21,Zr  2,Zr  1)    -15.3388         0.010000   
    584. D(C  42,O  22,Zr  2,Zr  5)     42.9739         0.010000   
    585. D(C  42,O  22,Zr  2,Zr  1)     -6.6979         0.010000   
    586. D(C  45,O  23,Zr  2,Zr  5)    -71.9060         0.010000   
    587. D(C  45,O  23,Zr  2,Zr  1)      3.9641         0.010000   
    588. D(C  46,O  24,Zr  3,Zr  4)     73.8125         0.010000   
    589. D(C  46,O  24,Zr  3,Zr  0)     -2.0045         0.010000   
    590. D(C  37,O  25,Zr  3,Zr  4)    -43.5918         0.010000   
    591. D(C  37,O  25,Zr  3,Zr  0)      5.6811         0.010000   
    592. D(C  41,O  26,Zr  3,Zr  4)     70.2068         0.010000   
    593. D(C  41,O  26,Zr  3,Zr  0)     16.7051         0.010000   
    594. D(C  47,O  27,Zr  3,Zr  4)     -4.8518         0.010000   
    595. D(C  47,O  27,Zr  3,Zr  0)     56.6941         0.010000   
    596. D(C  47,O  28,Zr  4,Zr  3)     -5.5199         0.010000   
    597. D(C  47,O  28,Zr  4,Zr  1)     42.7414         0.010000   
    598. D(C  39,O  29,Zr  4,Zr  3)      2.2657         0.010000   
    599. D(C  39,O  29,Zr  4,Zr  1)    -75.5075         0.010000   
    600. D(C  43,O  30,Zr  4,Zr  3)    -65.0974         0.010000   
    601. D(C  43,O  30,Zr  4,Zr  1)     -2.5703         0.010000   
    602. D(C  45,O  31,Zr  4,Zr  3)    -22.7542         0.010000   
    603. D(C  45,O  31,Zr  4,Zr  1)    -73.7320         0.010000   
    604. D(C  46,O  32,Zr  5,Zr  2)     22.0605         0.010000   
    605. D(C  46,O  32,Zr  5,Zr  0)     73.2689         0.010000   
    606. D(C  36,O  33,Zr  5,Zr  2)     62.0792         0.010000   
    607. D(C  36,O  33,Zr  5,Zr  0)      0.0685         0.010000   
    608. D(C  40,O  34,Zr  5,Zr  2)     -4.4573         0.010000   
    609. D(C  40,O  34,Zr  5,Zr  0)     72.8733         0.010000   
    610. D(C  44,O  35,Zr  5,Zr  2)      5.7042         0.010000   
    611. D(C  44,O  35,Zr  5,Zr  0)    -42.8724         0.010000   
    612. D(H  58,C  36,O  33,Zr  5)    179.1007         0.052112   
    613. D(O  12,C  36,O  33,Zr  5)     -1.2144         0.052112   
    614. D(H  58,C  36,O  12,Zr  0)   -178.0315         0.061321   
    615. D(O  33,C  36,O  12,Zr  0)      2.2835         0.061321   
    616. D(O  25,C  37,O  13,Zr  0)     -3.1270         0.073153   
    617. D(H  51,C  37,O  25,Zr  3)    175.1792         0.057033   
    618. D(O  13,C  37,O  25,Zr  3)     -4.8053         0.057033   
    619. D(H  51,C  37,O  13,Zr  0)    176.8885         0.073153   
    620. D(O  25,C  37,O  13,Al 60)   -176.3429         0.073153   
    621. D(H  50,C  38,O  21,Zr  2)   -161.3898         0.052772   
    622. D(O  14,C  38,O  21,Zr  2)     18.5947         0.052772   
    623. D(H  50,C  38,O  14,Zr  0)   -157.9295         0.056595   
    624. D(O  21,C  38,O  14,Zr  0)     22.0860         0.056595   
    625. D(H  54,C  39,O  29,Zr  4)   -151.1278         0.051789   
    626. D(O  15,C  39,O  29,Zr  4)     29.2083         0.051789   
    627. D(H  54,C  39,O  15,Zr  0)   -162.7958         0.073838   
    628. D(O  29,C  39,O  15,Al 61)   -154.7039         0.073838   
    629. D(O  29,C  39,O  15,Zr  0)     16.8684         0.073838   
    630. D(H  56,C  40,O  34,Zr  5)    153.7754         0.046908   
    631. D(O  16,C  40,O  34,Zr  5)    -26.4007         0.046908   
    632. D(H  56,C  40,O  16,Zr  1)    162.2650         0.047733   
    633. D(O  34,C  40,O  16,Zr  1)    -17.5589         0.047733   
    634. D(H  48,C  41,O  26,Zr  3)    161.2340         0.047749   
    635. D(O  17,C  41,O  26,Zr  3)    -19.0012         0.047749   
    636. D(H  48,C  41,O  17,Zr  1)    159.3863         0.046984   
    637. D(O  26,C  41,O  17,Zr  1)    -20.3785         0.046984   
    638. D(H  49,C  42,O  22,Zr  2)   -174.4161         0.047220   
    639. D(O  18,C  42,O  22,Zr  2)      5.6976         0.047220   
    640. D(H  49,C  42,O  18,Zr  1)   -176.2706         0.047114   
    641. D(O  22,C  42,O  18,Zr  1)      3.6157         0.047114   
    642. D(H  52,C  43,O  30,Zr  4)   -177.2633         0.047192   
    643. D(O  19,C  43,O  30,Zr  4)      2.9038         0.047192   
    644. D(H  52,C  43,O  19,Zr  1)   -179.9540         0.047218   
    645. D(O  30,C  43,O  19,Zr  1)     -0.1212         0.047218   
    646. D(H  59,C  44,O  35,Zr  5)    174.8917         0.047192   
    647. D(O  20,C  44,O  35,Zr  5)     -5.2883         0.047192   
    648. D(H  59,C  44,O  20,Zr  2)    177.6786         0.047113   
    649. D(O  35,C  44,O  20,Zr  2)     -2.1415         0.047113   
    650. D(H  55,C  45,O  31,Zr  4)   -159.9370         0.047464   
    651. D(O  23,C  45,O  31,Zr  4)     19.9738         0.047464   
    652. D(H  55,C  45,O  23,Zr  2)   -153.2578         0.046630   
    653. D(O  31,C  45,O  23,Zr  2)     26.8314         0.046630   
    654. D(H  57,C  46,O  32,Zr  5)    161.0226         0.047441   
    655. D(O  24,C  46,O  32,Zr  5)    -18.7039         0.047441   
    656. D(H  57,C  46,O  24,Zr  3)    151.1610         0.046592   
    657. D(O  32,C  46,O  24,Zr  3)    -29.1126         0.046592   
    658. D(H  53,C  47,O  28,Zr  4)   -175.4304         0.047190   
    659. D(O  27,C  47,O  28,Zr  4)      4.6563         0.047190   
    660. D(H  53,C  47,O  27,Zr  3)   -176.8946         0.047114   
    661. D(O  28,C  47,O  27,Zr  3)      3.0187         0.047114   
    662. D(H  64,Al 60,O  13,Zr  0)    140.4285         0.010000   
    663. D(Al 61,Al 60,O  13,C  37)    -82.4989         0.010000   
    664. D(Al 61,Al 60,O  13,Zr  0)    102.5099         0.010000   
    665. D(H  63,Al 61,Al 60,H  64)    -57.4613         0.010000   
    666. D(H  62,Al 61,Al 60,H  65)   -116.8877         0.010000   
    667. D(H  62,Al 61,Al 60,H  64)   -160.6921         0.010000   
    668. D(H  62,Al 61,O  15,Zr  0)    126.1066         0.010000   
    669. D(Al 60,Al 61,O  15,C  39)   -156.9888         0.010000   
    670. D(Al 60,Al 61,O  15,Zr  0)     29.9870         0.010000   
    671. D(Al 68,H  62,Al 61,H  63)   -130.6318         0.010000   
    672. D(Al 68,H  62,Al 61,Al 60)     -8.8251         0.010000   
    673. D(Al 60,H  64,Al 61,H  63)    132.7028         0.010000   
    674. D(Al 60,H  64,Al 61,H  62)     24.4560         0.010000   
    675. D(Al 61,H  64,Al 60,H  66)    -38.4680         0.010000   
    676. D(Al 61,H  64,Al 60,H  65)   -144.7069         0.010000   
    677. D(Al 68,H  66,Al 60,H  64)     50.6289         0.010000   
    678. D(Al 68,H  66,Al 60,Al 61)     29.6318         0.010000   
    679. D(H  62,Al 68,H  66,Al 60)    -49.0005         0.010000   
    680. D(Al 61,Al 68,H  66,Al 60)    -29.6513         0.010000   
    681. D(H  66,Al 68,H  62,Al 61)     35.0291         0.010000   
    682. D(Al 60,Al 68,H  62,Al 61)      8.8689         0.010000   
    683. D(H  62,Al 68,Al 61,Al 60)    169.8005         0.010000   
    684. D(Al 60,Al 68,Al 61,H  63)   -109.9326         0.010000   
    685. D(Al 60,Al 68,Al 61,H  62)   -169.8005         0.010000   
    686. D(H  62,Al 68,Al 60,Al 61)     -5.8885         0.010000   
    687. D(Al 61,Al 68,Al 60,H  65)    110.4803         0.010000   
    688. D(Al 61,Al 68,Al 60,H  64)      7.7135         0.010000   
    689. D(Al 61,Al 68,O  15,Zr  0)   -107.8152         0.010000   
    690. D(Al 60,Al 68,O  15,C  39)    165.3447         0.010000   
    691. D(Al 60,Al 68,O  15,Zr  0)    -50.4276         0.010000   
    -----------------------------------------------------------------

Number of atoms                         .... 72
Number of degrees of freedom            .... 691


         *************************************************************
         *                GEOMETRY OPTIMIZATION CYCLE   1            *
         *************************************************************
---------------------------------
CARTESIAN COORDINATES (ANGSTROEM)
---------------------------------
  Zr    -0.170424    2.197122    1.371106
  Zr     0.294401   -2.175814   -1.424162
  Zr     1.709295   -1.250353    1.555337
  Zr    -1.588127    1.285333   -1.603388
  Zr     1.803258    0.876183   -1.761692
  Zr    -1.684727   -0.838059    1.718514
  O     -1.564137    0.902796    0.502394
  O      1.689944   -0.878099   -0.552937
  O     -0.099768   -1.812386    0.641958
  O      0.218963    1.844888   -0.690946
  O     -0.033608   -0.123222   -1.942924
  O      0.154341    0.151095    1.906875
  O     -1.055095    2.259351    3.127907
  O     -1.528186    3.560743    0.916752
  O      1.500639    2.073383    2.586376
  O      1.109253    3.624218    0.687852
  O     -1.012162   -3.584619   -0.749643
  O     -1.358696   -2.036444   -2.669645
  O      1.624794   -3.559182   -0.944728
  O      1.221546   -2.229786   -3.159612
  O      1.043712   -2.449734    2.981620
  O      2.230636   -0.084326    3.143975
  O      2.702276   -2.854800    0.995063
  O      3.493450   -0.345011    1.006730
  O     -3.366848    0.368403   -1.062335
  O     -2.595393    2.878838   -1.035764
  O     -2.094278    0.127358   -3.199734
  O     -0.923085    2.501330   -3.014558
  O      1.398836    2.324883   -3.036063
  O      2.598965    2.464366   -0.702112
  O      2.207703   -0.135521   -3.407915
  O      3.690545    0.293979   -1.243112
  O     -3.571524   -0.255090    1.191433
  O     -2.103195    0.192907    3.352842
  O     -2.477965   -2.429180    0.669747
  O     -1.277862   -2.268857    3.009846
  C     -1.791371    1.389357    3.748877
  C     -2.407614    3.678053   -0.030749
  C      2.178984    1.204922    3.273482
  C      2.193890    3.486093   -0.009631
  C     -2.092861   -3.441212   -0.047514
  C     -2.039438   -1.160070   -3.344201
  C      2.503332   -3.669997    0.004733
  C      1.928370   -1.343608   -3.792048
  C     -0.142486   -2.749557    3.415938
  C      4.144589   -0.001934   -0.064332
  C     -4.022173    0.043514    0.011964
  C      0.264541    2.812698   -3.436674
  H     -2.648565   -1.563593   -4.148175
  H      3.148757   -4.547296   -0.035607
  H      2.790931    1.617720    4.070748
  H     -3.062752    4.547377    0.024389
  H      2.331703   -1.647788   -4.757798
  H      0.314747    3.572355   -4.216547
  H      2.859567    4.345314   -0.010201
  H      5.225135    0.045221    0.042961
  H     -2.774286   -4.287559   -0.063902
  H     -5.103524    0.013646   -0.093433
  H     -2.189516    1.696909    4.715696
  H     -0.190442   -3.492766    4.211623
  Al    -1.391260    5.639162    3.431323
  Al    -0.101909    6.614857    1.221771
  H      1.418721    6.128445    1.732268
  H     -0.165474    5.820177   -0.177067
  H     -1.581424    6.136758    1.845483
  H     -2.492337    4.465170    3.384977
  H     -0.024196    4.770175    3.863575
  H     -0.088520    8.211217    1.430211
  Al     1.332104    5.585987    3.312890
  H      1.634498    6.872683    4.234097
  H      2.388164    4.380315    3.176564
  H     -1.532128    6.968109    4.331404

----------------------------
CARTESIAN COORDINATES (A.U.)
----------------------------
  NO LB      ZA    FRAG     MASS         X           Y           Z
   0 Zr   12.0000*   0    91.220   -0.322055    4.151958    2.591014
   1 Zr   12.0000*   0    91.220    0.556338   -4.111692   -2.691276
   2 Zr   12.0000*   0    91.220    3.230100   -2.362825    2.939162
   3 Zr   12.0000*   0    91.220   -3.001125    2.428927   -3.029964
   4 Zr   12.0000*   0    91.220    3.407664    1.655746   -3.329115
   5 Zr   12.0000*   0    91.220   -3.183672   -1.583702    3.247522
   6 O     8.0000    0    15.999   -2.955791    1.706037    0.949387
   7 O     8.0000    0    15.999    3.193531   -1.659367   -1.044899
   8 O     8.0000    0    15.999   -0.188535   -3.424914    1.213125
   9 O     8.0000    0    15.999    0.413780    3.486333   -1.305699
  10 O     8.0000    0    15.999   -0.063510   -0.232856   -3.671594
  11 O     8.0000    0    15.999    0.291662    0.285529    3.603472
  12 O     8.0000    0    15.999   -1.993841    4.269554    5.910888
  13 O     8.0000    0    15.999   -2.887853    6.728830    1.732410
  14 O     8.0000    0    15.999    2.835796    3.918127    4.887543
  15 O     8.0000    0    15.999    2.096185    6.848779    1.299852
  16 O     8.0000    0    15.999   -1.912710   -6.773949   -1.416619
  17 O     8.0000    0    15.999   -2.567563   -3.848321   -5.044897
  18 O     8.0000    0    15.999    3.070416   -6.725878   -1.785277
  19 O     8.0000    0    15.999    2.308388   -4.213685   -5.970801
  20 O     8.0000    0    15.999    1.972330   -4.629326    5.634446
  21 O     8.0000    0    15.999    4.215291   -0.159352    5.941252
  22 O     8.0000    0    15.999    5.106561   -5.394790    1.880396
  23 O     8.0000    0    15.999    6.601664   -0.651977    1.902445
  24 O     8.0000    0    15.999   -6.362421    0.696181   -2.007522
  25 O     8.0000    0    15.999   -4.904582    5.440215   -1.957310
  26 O     8.0000    0    15.999   -3.957612    0.240671   -6.046622
  27 O     8.0000    0    15.999   -1.744377    4.726829   -5.696690
  28 O     8.0000    0    15.999    2.643416    4.393393   -5.737329
  29 O     8.0000    0    15.999    4.911331    4.656976   -1.326799
  30 O     8.0000    0    15.999    4.171954   -0.256097   -6.440025
  31 O     8.0000    0    15.999    6.974120    0.555540   -2.349142
  32 O     8.0000    0    15.999   -6.749202   -0.482050    2.251483
  33 O     8.0000    0    15.999   -3.974462    0.364542    6.335954
  34 O     8.0000    0    15.999   -4.682676   -4.590485    1.265638
  35 O     8.0000    0    15.999   -2.414809   -4.287518    5.687785
  36 C     6.0000    0    12.011   -3.385201    2.625505    7.084351
  37 C     6.0000    0    12.011   -4.549731    6.950514   -0.058107
  38 C     6.0000    0    12.011    4.117682    2.276973    6.185984
  39 C     6.0000    0    12.011    4.145851    6.587760   -0.018201
  40 C     6.0000    0    12.011   -3.954934   -6.502949   -0.089789
  41 C     6.0000    0    12.011   -3.853980   -2.192215   -6.319623
  42 C     6.0000    0    12.011    4.730612   -6.935289    0.008944
  43 C     6.0000    0    12.011    3.644092   -2.539052   -7.165933
  44 C     6.0000    0    12.011   -0.269260   -5.195909    6.455188
  45 C     6.0000    0    12.011    7.832138   -0.003654   -0.121570
  46 C     6.0000    0    12.011   -7.600805    0.082230    0.022608
  47 C     6.0000    0    12.011    0.499909    5.315229   -6.494372
  48 H     1.0000    0     1.008   -5.005063   -2.954762   -7.838914
  49 H     1.0000    0     1.008    5.950289   -8.593144   -0.067288
  50 H     1.0000    0     1.008    5.274095    3.057048    7.692598
  51 H     1.0000    0     1.008   -5.787762    8.593297    0.046089
  52 H     1.0000    0     1.008    4.406280   -3.113867   -8.990935
  53 H     1.0000    0     1.008    0.594785    6.750772   -7.968119
  54 H     1.0000    0     1.008    5.403799    8.211454   -0.019278
  55 H     1.0000    0     1.008    9.874074    0.085456    0.081185
  56 H     1.0000    0     1.008   -5.242641   -8.102312   -0.120757
  57 H     1.0000    0     1.008   -9.644263    0.025787   -0.176563
  58 H     1.0000    0     1.008   -4.137585    3.206693    8.911374
  59 H     1.0000    0     1.008   -0.359882   -6.600371    7.958815
  60 Al   13.0000    0    26.982   -2.629100   10.656471    6.484261
  61 Al   13.0000    0    26.982   -0.192581   12.500267    2.308812
  62 H     1.0000    0     1.008    2.680993   11.581082    3.273512
  63 H     1.0000    0     1.008   -0.312700   10.998541   -0.334608
  64 H     1.0000    0     1.008   -2.988457   11.596792    3.487458
  65 H     1.0000    0     1.008   -4.709834    8.437948    6.396680
  66 H     1.0000    0     1.008   -0.045724    9.014324    7.301099
  67 H     1.0000    0     1.008   -0.167279   15.516951    2.702707
  68 Al   13.0000    0    26.982    2.517312   10.555986    6.260455
  69 H     1.0000    0     1.008    3.088754   12.987489    8.001284
  70 H     1.0000    0     1.008    4.512976    8.277596    6.002836
  71 H     1.0000    0     1.008   -2.895303   13.167817    8.185168
* core charge reduced due to ECP

--------------------------------
INTERNAL COORDINATES (ANGSTROEM)
--------------------------------
 Zr     0   0   0     0.000000000000     0.00000000     0.00000000
 Zr     1   0   0     5.210772379236     0.00000000     0.00000000
 Zr     2   1   0     3.425758168455    48.97196049     0.00000000
 Zr     1   2   3     3.418896475992    49.19163802   179.98265185
 Zr     4   1   2     3.419642747240    70.18061173   307.68436122
 Zr     1   2   3     3.409710410249    49.25029068   279.38591034
 O      1   2   3     2.091022440302    46.93161683   229.81914864
 O      2   1   3     2.095384514541    46.89229172   310.18992714
 O      3   2   1     2.103058210855    36.36953694    70.67479339
 O      4   1   2     2.100292247922    36.31277680   289.10892419
 O      5   4   1     2.098983733275    36.20343833   121.62787040
 O      6   1   2     2.096681863831    36.83696017    69.83568873
 O      1   2   3     1.967960043921   123.06011495   292.42580348
 O      1   2   3     1.977225065456   121.11517599   189.82484790
 O      1   2   3     2.069938635692   101.11416435    18.65034685
 O      1   2   3     2.034948147806   110.62938357    96.02599372
 O      2   1   3     2.036373959520   110.22210531    84.88614085
 O      2   1   3     2.074459100573   101.22170035   162.42076725
 O      2   1   3     1.978258775981   121.11995429   351.59761764
 O      2   1   3     1.968323107476   122.54783839   249.13025438
 O      3   2   1     1.978837492311   108.91838682   115.28622687
 O      3   2   1     2.038427339134   159.71590211   353.01174145
 O      3   2   1     1.968290872269    74.96445283   192.42736783
 O      3   2   1     2.074565284146   104.06934589   269.06671965
 O      4   1   2     2.073004204550   104.28170858    90.51337643
 O      4   1   2     1.968766260958    75.25349830   166.99783510
 O      4   1   2     2.036029703081   159.53696585     5.44278304
 O      4   1   2     1.977961872432   108.50175589   244.35971071
 O      5   4   1     1.971373243985    74.84377564   246.44710815
 O      5   4   1     2.068376967803   105.42268606   322.53483215
 O      5   4   1     1.974124931068   107.64391038   168.98484134
 O      5   4   1     2.041993916882   159.87712941    49.59241815
 O      6   1   2     2.043934987979    97.45842059   249.08891244
 O      6   1   2     1.977127721755    73.38446294   169.27712101
 O      6   1   2     2.064172260478   143.61597004   323.16119152
 O      6   1   2     1.969837553978   128.43535832   102.60012376
 C     13   1   2     1.297919197223   131.36970652   348.26214945
 C     26   4   1     1.297714059784   130.37063008     5.68110970
 C     22   3   2     1.296765296695   129.52034812   344.66120393
 C     16   1   2     1.296919003655   129.18311430   338.52698129
 C     17   2   1     1.296710586940   129.61108340    20.29951988
 C     27   4   1     1.296668353097   129.90588114    16.70509480
 C     23   3   2     1.298028177611   130.67647576   353.30212502
 C     20   2   1     1.298032316672   131.86338064     7.75275588
 C     36   6   1     1.298098995311   130.89784409   317.12761457
 C     32   5   4     1.297398759398   128.25909831   337.24575237
 C     33   6   1     1.297458059541   128.36697809    73.26890325
 C     29   5   4     1.298105275089   130.91313316   354.48011700
 H     42  27   4     1.086388651403   115.31060110   161.23397504
 H     43  23   3     1.089887967074   116.29561815   185.58394733
 H     39  22   3     1.086514673628   115.37710099   198.61021128
 H     38  26   4     1.089940207473   116.32156623   175.17923255
 H     44  20   2     1.089896373792   116.27657058   180.04597950
 H     48  29   5     1.089863118195   116.26432644   184.56959989
 H     40  16   1     1.086916856092   115.35905958   197.20418139
 H     46  32   5     1.086883062835   115.32292041   200.06300420
 H     41  17   2     1.086697689859   115.35997688   162.26502865
 H     47  33   6     1.086886477734   115.30214776   161.02260350
 H     37  13   1     1.089883220570   116.26305722   181.96849618
 H     45  36   6     1.089850574935   116.25964766   174.89165323
 Al    14   1   2     3.265216518286   103.48739728   171.34414518
 Al    61  14   1     2.737978343361    67.98195830   102.50985837
 H     62  61  14     1.676161967950    94.47486240   262.71971677
 H     62  61  14     1.610062709017   120.44108144     5.95051022
 H     61  14   1     1.672917100717    56.94401677   140.42852128
 H     61  14   1     1.610210058848    59.00705416   263.56288906
 H     61  14   1     1.676556858300    84.42312491     9.70081434
 H     62  61  14     1.609966883480   104.64201878   157.05221404
 Al    63  62  61     1.673358486765   109.56028115   351.17487882
 H     69  63  62     1.611102374756   105.75263094   268.62454817
 H     69  63  62     1.608568260461    97.40842439   142.78319425
 H     61  14   1     1.611238677558   162.09143328   158.68868342

---------------------------
INTERNAL COORDINATES (A.U.)
---------------------------
 Zr     0   0   0     0.000000000000     0.00000000     0.00000000
 Zr     1   0   0     9.846932742956     0.00000000     0.00000000
 Zr     2   1   0     6.473744739423    48.97196049     0.00000000
 Zr     1   2   3     6.460778019854    49.19163802   179.98265185
 Zr     4   1   2     6.462188268133    70.18061173   307.68436122
 Zr     1   2   3     6.443418871350    49.25029068   279.38591034
 O      1   2   3     3.951459752055    46.93161683   229.81914864
 O      2   1   3     3.959702877742    46.89229172   310.18992714
 O      3   2   1     3.974204062210    36.36953694    70.67479339
 O      4   1   2     3.968977149771    36.31277680   289.10892419
 O      5   4   1     3.966504415446    36.20343833   121.62787040
 O      6   1   2     3.962154512601    36.83696017    69.83568873
 O      1   2   3     3.718905525511   123.06011495   292.42580348
 O      1   2   3     3.736413878836   121.11517599   189.82484790
 O      1   2   3     3.911617135480   101.11416435    18.65034685
 O      1   2   3     3.845494696084   110.62938357    96.02599372
 O      2   1   3     3.848189089742   110.22210531    84.88614085
 O      2   1   3     3.920159576103   101.22170035   162.42076725
 O      2   1   3     3.738367308630   121.11995429   351.59761764
 O      2   1   3     3.719591616198   122.54783839   249.13025438
 O      3   2   1     3.739460924004   108.91838682   115.28622687
 O      3   2   1     3.852069414862   159.71590211   353.01174145
 O      3   2   1     3.719530700485    74.96445283   192.42736783
 O      3   2   1     3.920360233977   104.06934589   269.06671965
[...]
** The dipole moment derivative (T) already includes vibrational overlap.

The first frequency considered to be a vibration is 7
The total number of vibrations considered is 209


--------------------------
THERMOCHEMISTRY AT 298.15K
--------------------------

Temperature         ...   298.15 K
Pressure            ...     1.00 atm
Total Mass          ...  1273.54 AMU
Quasi RRHO          ...     True
Cut-Off Frequency   ...     1.00 cm^-1

Throughout the following assumptions are being made:
  (1) The electronic state is orbitally nondegenerate
  (2) There are no thermally accessible electronically excited states
  (3) Hindered rotations indicated by low frequency modes are not
      treated as such but are treated as vibrations and this may
      cause some error
  (4) All equations used are the standard statistical mechanics
      equations for an ideal gas
  (5) All vibrations are strictly harmonic

freq.      15.43  E(vib)   ...       0.57 
freq.      27.88  E(vib)   ...       0.55 
freq.      44.58  E(vib)   ...       0.53 
freq.      45.24  E(vib)   ...       0.53 
freq.      48.23  E(vib)   ...       0.53 
freq.      60.52  E(vib)   ...       0.51 
freq.      61.58  E(vib)   ...       0.51 
freq.      64.32  E(vib)   ...       0.51 
freq.      67.67  E(vib)   ...       0.50 
freq.      74.25  E(vib)   ...       0.49 
freq.      78.69  E(vib)   ...       0.49 
freq.      82.02  E(vib)   ...       0.48 
freq.      85.37  E(vib)   ...       0.48 
freq.      96.05  E(vib)   ...       0.47 
freq.      97.94  E(vib)   ...       0.46 
freq.      98.61  E(vib)   ...       0.46 
freq.      99.30  E(vib)   ...       0.46 
freq.     101.06  E(vib)   ...       0.46 
freq.     105.98  E(vib)   ...       0.45 
freq.     106.20  E(vib)   ...       0.45 
freq.     108.43  E(vib)   ...       0.45 
freq.     110.57  E(vib)   ...       0.45 
freq.     117.67  E(vib)   ...       0.44 
freq.     126.68  E(vib)   ...       0.43 
freq.     129.26  E(vib)   ...       0.43 
freq.     135.70  E(vib)   ...       0.42 
freq.     150.02  E(vib)   ...       0.40 
freq.     151.51  E(vib)   ...       0.40 
freq.     151.87  E(vib)   ...       0.40 
freq.     153.36  E(vib)   ...       0.40 
freq.     156.66  E(vib)   ...       0.40 
freq.     157.42  E(vib)   ...       0.40 
freq.     158.69  E(vib)   ...       0.39 
freq.     160.47  E(vib)   ...       0.39 
freq.     162.07  E(vib)   ...       0.39 
freq.     164.12  E(vib)   ...       0.39 
freq.     167.27  E(vib)   ...       0.39 
freq.     171.01  E(vib)   ...       0.38 
freq.     174.00  E(vib)   ...       0.38 
freq.     174.51  E(vib)   ...       0.38 
freq.     186.86  E(vib)   ...       0.36 
freq.     188.02  E(vib)   ...       0.36 
freq.     189.37  E(vib)   ...       0.36 
freq.     191.12  E(vib)   ...       0.36 
freq.     193.25  E(vib)   ...       0.36 
freq.     193.85  E(vib)   ...       0.36 
freq.     197.50  E(vib)   ...       0.35 
freq.     205.75  E(vib)   ...       0.35 
freq.     208.06  E(vib)   ...       0.34 
freq.     211.32  E(vib)   ...       0.34 
freq.     212.89  E(vib)   ...       0.34 
freq.     223.33  E(vib)   ...       0.33 
freq.     225.17  E(vib)   ...       0.33 
freq.     232.12  E(vib)   ...       0.32 
freq.     233.79  E(vib)   ...       0.32 
freq.     246.35  E(vib)   ...       0.31 
freq.     259.06  E(vib)   ...       0.30 
freq.     261.14  E(vib)   ...       0.30 
freq.     261.58  E(vib)   ...       0.30 
freq.     263.94  E(vib)   ...       0.29 
freq.     264.61  E(vib)   ...       0.29 
freq.     266.82  E(vib)   ...       0.29 
freq.     269.78  E(vib)   ...       0.29 
freq.     271.25  E(vib)   ...       0.29 
freq.     271.57  E(vib)   ...       0.29 
freq.     272.46  E(vib)   ...       0.29 
freq.     273.66  E(vib)   ...       0.28 
freq.     273.90  E(vib)   ...       0.28 
freq.     275.74  E(vib)   ...       0.28 
freq.     278.38  E(vib)   ...       0.28 
freq.     285.15  E(vib)   ...       0.28 
freq.     286.23  E(vib)   ...       0.27 
freq.     288.78  E(vib)   ...       0.27 
freq.     290.36  E(vib)   ...       0.27 
freq.     293.69  E(vib)   ...       0.27 
freq.     298.21  E(vib)   ...       0.27 
freq.     305.18  E(vib)   ...       0.26 
freq.     305.60  E(vib)   ...       0.26 
freq.     310.31  E(vib)   ...       0.26 
freq.     310.73  E(vib)   ...       0.26 
freq.     312.14  E(vib)   ...       0.25 
freq.     313.48  E(vib)   ...       0.25 
freq.     315.47  E(vib)   ...       0.25 
freq.     317.16  E(vib)   ...       0.25 
freq.     322.29  E(vib)   ...       0.25 
freq.     324.92  E(vib)   ...       0.24 
freq.     327.26  E(vib)   ...       0.24 
freq.     341.11  E(vib)   ...       0.23 
freq.     342.14  E(vib)   ...       0.23 
freq.     352.45  E(vib)   ...       0.23 
freq.     354.39  E(vib)   ...       0.22 
freq.     366.61  E(vib)   ...       0.22 
freq.     369.60  E(vib)   ...       0.21 
freq.     378.97  E(vib)   ...       0.21 
freq.     385.75  E(vib)   ...       0.20 
freq.     394.33  E(vib)   ...       0.20 
freq.     400.41  E(vib)   ...       0.19 
freq.     402.47  E(vib)   ...       0.19 
freq.     406.06  E(vib)   ...       0.19 
freq.     412.59  E(vib)   ...       0.19 
freq.     417.49  E(vib)   ...       0.18 
freq.     419.82  E(vib)   ...       0.18 
freq.     422.64  E(vib)   ...       0.18 
freq.     424.41  E(vib)   ...       0.18 
freq.     425.28  E(vib)   ...       0.18 
freq.     431.82  E(vib)   ...       0.18 
freq.     468.32  E(vib)   ...       0.16 
freq.     478.97  E(vib)   ...       0.15 
freq.     481.12  E(vib)   ...       0.15 
freq.     490.28  E(vib)   ...       0.15 
freq.     493.80  E(vib)   ...       0.14 
freq.     532.89  E(vib)   ...       0.13 
freq.     542.89  E(vib)   ...       0.12 
freq.     550.78  E(vib)   ...       0.12 
freq.     620.85  E(vib)   ...       0.09 
freq.     671.16  E(vib)   ...       0.08 
freq.     671.85  E(vib)   ...       0.08 
freq.     674.90  E(vib)   ...       0.08 
freq.     682.47  E(vib)   ...       0.08 
freq.     683.31  E(vib)   ...       0.08 
freq.     685.37  E(vib)   ...       0.07 
freq.     715.62  E(vib)   ...       0.07 
freq.     736.56  E(vib)   ...       0.06 
freq.     736.57  E(vib)   ...       0.06 
freq.     736.77  E(vib)   ...       0.06 
freq.     737.06  E(vib)   ...       0.06 
freq.     738.74  E(vib)   ...       0.06 
freq.     739.43  E(vib)   ...       0.06 
freq.     739.86  E(vib)   ...       0.06 
freq.     739.90  E(vib)   ...       0.06 
freq.     740.30  E(vib)   ...       0.06 
freq.     741.39  E(vib)   ...       0.06 
freq.     742.07  E(vib)   ...       0.06 
freq.     742.64  E(vib)   ...       0.06 
freq.     744.21  E(vib)   ...       0.06 
freq.     746.23  E(vib)   ...       0.06 
freq.     788.68  E(vib)   ...       0.05 
freq.     948.64  E(vib)   ...       0.03 
freq.     998.97  E(vib)   ...       0.02 
freq.     999.75  E(vib)   ...       0.02 
freq.    1000.69  E(vib)   ...       0.02 
freq.    1000.86  E(vib)   ...       0.02 
freq.    1001.03  E(vib)   ...       0.02 
freq.    1001.08  E(vib)   ...       0.02 
freq.    1002.37  E(vib)   ...       0.02 
freq.    1002.49  E(vib)   ...       0.02 
freq.    1004.23  E(vib)   ...       0.02 
freq.    1004.40  E(vib)   ...       0.02 
freq.    1004.77  E(vib)   ...       0.02 
freq.    1005.17  E(vib)   ...       0.02 
freq.    1005.51  E(vib)   ...       0.02 
freq.    1083.01  E(vib)   ...       0.02 
freq.    1347.16  E(vib)   ...       0.01 
freq.    1348.15  E(vib)   ...       0.01 
freq.    1348.82  E(vib)   ...       0.01 
freq.    1349.86  E(vib)   ...       0.01 
freq.    1350.30  E(vib)   ...       0.01 
freq.    1350.69  E(vib)   ...       0.01 
freq.    1351.37  E(vib)   ...       0.01 
freq.    1352.78  E(vib)   ...       0.01 
freq.    1353.31  E(vib)   ...       0.01 
freq.    1353.78  E(vib)   ...       0.01 
freq.    1354.05  E(vib)   ...       0.01 
freq.    1354.93  E(vib)   ...       0.01 
freq.    1359.06  E(vib)   ...       0.01 
freq.    1360.87  E(vib)   ...       0.01 
freq.    1361.80  E(vib)   ...       0.01 
freq.    1362.09  E(vib)   ...       0.01 
freq.    1364.08  E(vib)   ...       0.01 
freq.    1365.40  E(vib)   ...       0.01 
freq.    1368.39  E(vib)   ...       0.01 
freq.    1369.99  E(vib)   ...       0.01 
freq.    1370.32  E(vib)   ...       0.01 
freq.    1373.84  E(vib)   ...       0.01 
freq.    1374.68  E(vib)   ...       0.01 
freq.    1382.17  E(vib)   ...       0.01 
freq.    1543.99  E(vib)   ...       0.00 
freq.    1553.89  E(vib)   ...       0.00 
freq.    1562.60  E(vib)   ...       0.00 
freq.    1563.85  E(vib)   ...       0.00 
freq.    1570.23  E(vib)   ...       0.00 
freq.    1574.86  E(vib)   ...       0.00 
freq.    1576.27  E(vib)   ...       0.00 
freq.    1624.80  E(vib)   ...       0.00 
freq.    1627.27  E(vib)   ...       0.00 
freq.    1630.71  E(vib)   ...       0.00 
freq.    1634.58  E(vib)   ...       0.00 
freq.    1636.12  E(vib)   ...       0.00 
freq.    1636.64  E(vib)   ...       0.00 
freq.    1727.99  E(vib)   ...       0.00 
freq.    1754.48  E(vib)   ...       0.00 
freq.    1876.50  E(vib)   ...       0.00 
freq.    1881.52  E(vib)   ...       0.00 
freq.    1885.77  E(vib)   ...       0.00 
freq.    1889.43  E(vib)   ...       0.00 
freq.    1896.74  E(vib)   ...       0.00 
freq.    1905.25  E(vib)   ...       0.00 
freq.    2884.99  E(vib)   ...       0.00 
freq.    2890.10  E(vib)   ...       0.00 
freq.    2890.24  E(vib)   ...       0.00 
freq.    2890.46  E(vib)   ...       0.00 
freq.    2891.88  E(vib)   ...       0.00 
freq.    2895.24  E(vib)   ...       0.00 
freq.    2907.81  E(vib)   ...       0.00 
freq.    2908.29  E(vib)   ...       0.00 
freq.    2908.44  E(vib)   ...       0.00 
freq.    2909.58  E(vib)   ...       0.00 
freq.    2911.25  E(vib)   ...       0.00 
freq.    2912.36  E(vib)   ...       0.00 

------------
INNER ENERGY
------------

The inner energy is: U= E(el) + E(ZPE) + E(vib) + E(rot) + E(trans)
    E(el)   - is the total energy from the electronic structure calculation
              = E(kin-el) + E(nuc-el) + E(el-el) + E(nuc-nuc)
    E(ZPE)  - the the zero temperature vibrational energy from the frequency calculation
    E(vib)  - the the finite temperature correction to E(ZPE) due to population
              of excited vibrational states
    E(rot)  - is the rotational thermal energy
    E(trans)- is the translational thermal energy

Summary of contributions to the inner energy U:
Electronic energy                ...  -3732.51583798 Eh
Zero point energy                ...      0.37097710 Eh     232.79 kcal/mol
Thermal vibrational correction   ...      0.06198206 Eh      38.89 kcal/mol
Thermal rotational correction    ...      0.00141627 Eh       0.89 kcal/mol
Thermal translational correction ...      0.00141627 Eh       0.89 kcal/mol
-----------------------------------------------------------------------
Total thermal energy                  -3732.08004627 Eh


Summary of corrections to the electronic energy:
(perhaps to be used in another calculation)
Total thermal correction                  0.06481461 Eh      40.67 kcal/mol
Non-thermal (ZPE) correction              0.37097710 Eh     232.79 kcal/mol
-----------------------------------------------------------------------
Total correction                          0.43579171 Eh     273.46 kcal/mol


--------
ENTHALPY
--------

The enthalpy is H = U + kB*T
                kB is Boltzmann's constant
Total thermal energy              ...  -3732.08004627 Eh 
Thermal Enthalpy correction       ...      0.00094421 Eh       0.59 kcal/mol
-----------------------------------------------------------------------
Total Enthalpy                    ...  -3732.07910206 Eh


Note: Only C1 symmetry has been detected, increase convergence thresholds 
      if your molecule has a higher symmetry. Symmetry factor of 1.0 is   
      used for the rotational entropy correction. 
 

Note: Rotational entropy computed according to Herzberg 
Infrared and Raman Spectra, Chapter V,1, Van Nostrand Reinhold, 1945 
Point Group:  C1, Symmetry Number:   1  
Rotational constants in cm-1:     0.001794     0.001278     0.001245 

Vibrational entropy computed according to the QRRHO of S. Grimme
Chem.Eur.J. 2012 18 9955 using a reference frequency of 100.0 cm-1


-------
ENTROPY
-------

The entropy contributions are T*S = T*(S(el)+S(vib)+S(rot)+S(trans))
     S(el)   - electronic entropy
     S(vib)  - vibrational entropy
     S(rot)  - rotational entropy
     S(trans)- translational entropy
The entropies will be listed as multiplied by the temperature to get
units of energy

Electronic entropy                ...      0.00000000 Eh      0.00 kcal/mol
Vibrational entropy               ...      0.11116902 Eh     69.76 kcal/mol
Rotational entropy                ...      0.01879887 Eh     11.80 kcal/mol
Translational entropy             ...      0.02247478 Eh     14.10 kcal/mol
-----------------------------------------------------------------------
Final entropy term                ...      0.15244267 Eh     95.66 kcal/mol

In case the symmetry of your molecule has not been determined correctly
or in case you have a reason to use a different symmetry number we print 
out the resulting rotational entropy values for sn=1,12:

 non-linear molecules -----------------------------------
|  sn= 1 | S(rot)=       0.01879887 Eh     11.80 kcal/mol|
|  sn= 2 | S(rot)=       0.01814442 Eh     11.39 kcal/mol|
|  sn= 3 | S(rot)=       0.01776158 Eh     11.15 kcal/mol|
|  sn= 4 | S(rot)=       0.01748996 Eh     10.98 kcal/mol|
|  sn= 5 | S(rot)=       0.01727927 Eh     10.84 kcal/mol|
|  sn= 6 | S(rot)=       0.01710713 Eh     10.73 kcal/mol|
|  sn= 7 | S(rot)=       0.01696158 Eh     10.64 kcal/mol|
|  sn= 8 | S(rot)=       0.01683550 Eh     10.56 kcal/mol|
|  sn= 9 | S(rot)=       0.01672430 Eh     10.49 kcal/mol|
|  sn=10 | S(rot)=       0.01662482 Eh     10.43 kcal/mol|
|  sn=11 | S(rot)=       0.01653483 Eh     10.38 kcal/mol|
|  sn=12 | S(rot)=       0.01645267 Eh     10.32 kcal/mol|
 linear molecules ---------------------------------------
|  Dinfh | S(rot)=       0.01164083 Eh      7.30 kcal/mol|
|  Cinfv | S(rot)=       0.01229529 Eh      7.72 kcal/mol|
 --------------------------------------------------------


-------------------
GIBBS FREE ENERGY
-------------------

The Gibbs free energy is G = H - T*S

Total enthalpy                    ...  -3732.07910206 Eh 
Total entropy correction          ...     -0.15244267 Eh    -95.66 kcal/mol
-----------------------------------------------------------------------
Final Gibbs free energy         ...  -3732.23154473 Eh

For completeness - the Gibbs free energy minus the electronic energy
G-E(el)                           ...      0.28429325 Eh    178.40 kcal/mol


Maximum memory used throughout the entire PROP-calculation: 145.3 MB

--------------------------------
SUGGESTED CITATIONS FOR THIS RUN
--------------------------------

Below you find a list of papers that are relevant to this ORCA run
We neither can nor want to force you to cite these papers, but we appreciate if you do
You receive ORCA, which is the product of decades of hard work by many enthusiastic individuals, for free
The only thing we kindly ask in return is that you cite our papers,
We deeply appreciate it, if you show your appreciation for ORCA by not just citing the generic ORCA reference.

Please note that relegating all ORCA citations to the supporting information does *not* help us.
SI sections are not indexed - citations you put there will not count into any citation statistics
But we need these citations in order to attract the funding resources that allow us to do what we are doing

Therefore, if you are a happy ORCA user, please consider citing a few of the papers listed below in the main body of your paper

In addition to the list printed below, the program has created the file run.bibtex that contains the list in bibtex format
You can import this file easily into all common literature databanks and citation aid programs


List of essential papers. We consider these as the minimum necessary citations

  1. Neese, F.
     Software update: the ORCA program system, version 6.0
     WIRES Comput. Molec. Sci. 2025 15(1), e70019
     doi.org/10.1002/wcms.7019

List of papers to cite with high priority. The work reported in these papers was absolutely
necessary for this run to complete.
Our perspective: the developers of density functionals and basis sets usually get cited in chemistry papers
Good! But without the algorithms to do something with them, the functionals or basis sets would not do anything.
Hence, in our opinion, the algorithm design and method developments papers are equally worthy of getting cited

  1. Neese, F.
     An improvement of the resolution of the identity approximation for the formation of the Coulomb matrix
     J. Comp. Chem. 2003 24(14), 1740-1747
     doi.org/10.1002/jcc.10318
  2. Grimme, S.; Antony, J.; Ehrlich, S.; Krieg, H.
     A consistent and accurate ab initio parametrization of density functional dispersion correction (DFT-D) for the 94 elements H-Pu
     J. Chem. Phys. 2010 132 , 154104
     doi.org/10.1063/1.3382344
  3. Grimme, S.; Ehrlich, S.; Goerigk, L.
     Effect of the damping function in dispersion corrected density functional theory
     J. Comput. Chem. 2011 32(7), 1456-1465
     doi.org/10.1002/jcc.21759
  4. Bykov, D.; Petrenko, T.; Izsak, R.; Kossmann, S.; Becker, U.; Valeev, E.; Neese, F.
     Efficient implementation of the analytic second derivatives of Hartree-Fock and hybrid DFT energies: a detailed analysis of different approximations
     Molec. Phys. 2015 113 , 1961-1977
     doi.org/10.1080/00268976.2015.1025114
  5. Helmich-Paris, B.
     A trust-region augmented Hessian implementation for restricted and unrestricted Hartree–Fock and Kohn–Sham methods
     J. Chem. Phys. 2021 154 , 164104
     doi.org/10.1063/5.0040798
  6. Neese, F.
     The SHARK Integral Generation and Digestion System
     J. Comp. Chem. 2022 44(3), 381
     doi.org/10.1002/jcc.26942

List of suggested additional citations. These are papers that are important in the 'surrounding' of 
of this run, or papers that preceded the highly important papers. If you like your results we are grateful for a citation.

  1. Neese, F.
     The ORCA program system
     WIRES Comput. Molec. Sci. 2012 2(1), 73-78
     doi.org/10.1002/wcms.81
  2. Neese, F.
     Software update: the ORCA program system, version 4.0
     WIRES Comput. Molec. Sci. 2018 8(1), 1-6
     doi.org/10.1002/wcms.1327
  3. Neese, F.; Wennmohs, F.; Becker, U.; Riplinger, C.
     The ORCA quantum chemistry program package
     J. Chem. Phys. 2020 152(22), 224108
     doi.org/10.1063/5.0004608
  4. Neese, F.
     Software update: The ORCA program system—Version 5.0
     WIRES Comput. Molec. Sci. 2022 12(1), e1606
     doi.org/10.1002/wcms.1606

List of optional additional citations

  1. Neese, F.
     Approximate second-order SCF convergence for spin unrestricted wavefunctions
     Chem. Phys. Lett. 2000 325(1-3), 93-98
     doi.org/10.1016/s0009-2614(00)00662-x

Timings for individual modules:

Sum of individual times          ...     6849.694 sec (= 114.162 min)
Startup calculation              ...      209.522 sec (=   3.492 min)   3.1 %
SCF iterations                   ...     1779.759 sec (=  29.663 min)  26.0 %
Property integrals               ...     1567.846 sec (=  26.131 min)  22.9 %
SCF Response                     ...     1385.200 sec (=  23.087 min)  20.2 %
Property calculations            ...     1336.137 sec (=  22.269 min)  19.5 %
SCF Gradient evaluation          ...      558.680 sec (=   9.311 min)   8.2 %
Geometry relaxation              ...       12.549 sec (=   0.209 min)   0.2 %
                             ****ORCA TERMINATED NORMALLY****
TOTAL RUN TIME: 0 days 1 hours 54 minutes 24 seconds 605 msec
