
                                 *****************
                                 * O   R   C   A *
                                 *****************

                                            #,                                       
                                            ###                                      
                                            ####                                     
                                            #####                                    
                                            ######                                   
                                           ########,                                 
                                     ,,################,,,,,                         
                               ,,#################################,,                 
                          ,,##########################################,,             
                       ,#########################################, ''#####,          
                    ,#############################################,,   '####,        
                  ,##################################################,,,,####,       
                ,###########''''           ''''###############################       
              ,#####''   ,,,,##########,,,,          '''####'''          '####       
            ,##' ,,,,###########################,,,                        '##       
           ' ,,###''''                  '''############,,,                           
         ,,##''                                '''############,,,,        ,,,,,,###''
      ,#''                                            '''#######################'''  
     '                                                          ''''####''''         
             ,#######,   #######,   ,#######,      ##                                
            ,#'     '#,  ##    ##  ,#'     '#,    #''#        ######   ,####,        
            ##       ##  ##   ,#'  ##            #'  '#       #        #'  '#        
            ##       ##  #######   ##           ,######,      #####,   #    #        
            '#,     ,#'  ##    ##  '#,     ,#' ,#      #,         ##   #,  ,#        
             '#######'   ##     ##  '#######'  #'      '#     #####' # '####'        



                  #######################################################
                  #                        -***-                        #
                  #          Department of theory and spectroscopy      #
                  #    Directorship and core code : Frank Neese         #
                  #        Max Planck Institute fuer Kohlenforschung    #
                  #                Kaiser Wilhelm Platz 1               #
                  #                 D-45470 Muelheim/Ruhr               #
                  #                      Germany                        #
                  #                                                     #
                  #                  All rights reserved                #
                  #                        -***-                        #
                  #######################################################


                         Program Version 5.0.4 -  RELEASE  -


 With contributions from (in alphabetic order):
   Daniel Aravena         : Magnetic Suceptibility
   Michael Atanasov       : Ab Initio Ligand Field Theory (pilot matlab implementation)
   Alexander A. Auer      : GIAO ZORA, VPT2 properties, NMR spectrum
   Ute Becker             : Parallelization
   Giovanni Bistoni       : ED, misc. LED, open-shell LED, HFLD
   Martin Brehm           : Molecular dynamics
   Dmytro Bykov           : SCF Hessian
   Vijay G. Chilkuri      : MRCI spin determinant printing, contributions to CSF-ICE
   Dipayan Datta          : RHF DLPNO-CCSD density
   Achintya Kumar Dutta   : EOM-CC, STEOM-CC
   Dmitry Ganyushin       : Spin-Orbit,Spin-Spin,Magnetic field MRCI
   Miquel Garcia          : C-PCM and meta-GGA Hessian, CC/C-PCM, Gaussian charge scheme
   Yang Guo               : DLPNO-NEVPT2, F12-NEVPT2, CIM, IAO-localization
   Andreas Hansen         : Spin unrestricted coupled pair/coupled cluster methods
   Benjamin Helmich-Paris : MC-RPA, TRAH-SCF, COSX integrals
   Lee Huntington         : MR-EOM, pCC
   Robert Izsak           : Overlap fitted RIJCOSX, COSX-SCS-MP3, EOM
   Marcus Kettner         : VPT2
   Christian Kollmar      : KDIIS, OOCD, Brueckner-CCSD(T), CCSD density, CASPT2, CASPT2-K
   Simone Kossmann        : Meta GGA functionals, TD-DFT gradient, OOMP2, MP2 Hessian
   Martin Krupicka        : Initial AUTO-CI
   Lucas Lang             : DCDCAS
   Marvin Lechner         : AUTO-CI (C++ implementation), FIC-MRCC
   Dagmar Lenk            : GEPOL surface, SMD
   Dimitrios Liakos       : Extrapolation schemes; Compound Job, initial MDCI parallelization
   Dimitrios Manganas     : Further ROCIS development; embedding schemes
   Dimitrios Pantazis     : SARC Basis sets
   Anastasios Papadopoulos: AUTO-CI, single reference methods and gradients
   Taras Petrenko         : DFT Hessian,TD-DFT gradient, ASA, ECA, R-Raman, ABS, FL, XAS/XES, NRVS
   Peter Pinski           : DLPNO-MP2, DLPNO-MP2 Gradient
   Christoph Reimann      : Effective Core Potentials
   Marius Retegan         : Local ZFS, SOC
   Christoph Riplinger    : Optimizer, TS searches, QM/MM, DLPNO-CCSD(T), (RO)-DLPNO pert. Triples
   Tobias Risthaus        : Range-separated hybrids, TD-DFT gradient, RPA, STAB
   Michael Roemelt        : Original ROCIS implementation
   Masaaki Saitow         : Open-shell DLPNO-CCSD energy and density
   Barbara Sandhoefer     : DKH picture change effects
   Avijit Sen             : IP-ROCIS
   Kantharuban Sivalingam : CASSCF convergence, NEVPT2, FIC-MRCI
   Bernardo de Souza      : ESD, SOC TD-DFT
   Georgi Stoychev        : AutoAux, RI-MP2 NMR, DLPNO-MP2 response
   Willem Van den Heuvel  : Paramagnetic NMR
   Boris Wezisla          : Elementary symmetry handling
   Frank Wennmohs         : Technical directorship


 We gratefully acknowledge several colleagues who have allowed us to
 interface, adapt or use parts of their codes:
   Stefan Grimme, W. Hujo, H. Kruse, P. Pracht,  : VdW corrections, initial TS optimization,
                  C. Bannwarth, S. Ehlert          DFT functionals, gCP, sTDA/sTD-DF
   Ed Valeev, F. Pavosevic, A. Kumar             : LibInt (2-el integral package), F12 methods
   Garnet Chan, S. Sharma, J. Yang, R. Olivares  : DMRG
   Ulf Ekstrom                                   : XCFun DFT Library
   Mihaly Kallay                                 : mrcc  (arbitrary order and MRCC methods)
   Jiri Pittner, Ondrej Demel                    : Mk-CCSD
   Frank Weinhold                                : gennbo (NPA and NBO analysis)
   Christopher J. Cramer and Donald G. Truhlar   : smd solvation model
   Lars Goerigk                                  : TD-DFT with DH, B97 family of functionals
   V. Asgeirsson, H. Jonsson                     : NEB implementation
   FAccTs GmbH                                   : IRC, NEB, NEB-TS, DLPNO-Multilevel, CI-OPT
                                                   MM, QMMM, 2- and 3-layer-ONIOM, Crystal-QMMM,
                                                   LR-CPCM, SF, NACMEs, symmetry and pop. for TD-DFT,
                                                   nearIR, NL-DFT gradient (VV10), updates on ESD,
                                                   ML-optimized integration grids
   S Lehtola, MJT Oliveira, MAL Marques          : LibXC Library
   Liviu Ungur et al                             : ANISO software


 Your calculation uses the libint2 library for the computation of 2-el integrals
 For citations please refer to: http://libint.valeyev.net

 Your ORCA version has been built with support for libXC version: 5.1.0
 For citations please refer to: https://tddft.org/programs/libxc/

 This ORCA versions uses:
   CBLAS   interface :  Fast vector & matrix operations
   LAPACKE interface :  Fast linear algebra routines
   SCALAPACK package :  Parallel linear algebra routines
   Shared memory     :  Shared parallel matrices
   BLAS/LAPACK       :  OpenBLAS 0.3.15  USE64BITINT DYNAMIC_ARCH NO_AFFINITY Barcelona SINGLE_THREADED
        Core in use  :  Barcelona
   Copyright (c) 2011-2014, The OpenBLAS Project




***************************************
The coordinates will be read from file: start.xyz
***************************************


Your calculation utilizes the atom-pairwise dispersion correction
with the Becke-Johnson damping scheme (D3BJ)
Cite in your paper:
S.Grimme, S.Ehrlich, L.Goerigk, J Comput Chem, (2011), 32, 1456–1465 
S.Grimme, J.Antony, S.Ehrlich and H.Krieg, J.Chem.Phys., 132, (2010), 154104 
   

================================================================================

----- Orbital basis set information -----
Your calculation utilizes the basis: pc-3
   H, C-F              : F. Jensen, J. Chem. Phys. 115, 9113 (2001).
                         F. Jensen, J. Chem. Phys. 116, 7372 (2002).
                         F. Jensen, J. Chem. Phys. 117, 9234 (2002).
   Si-Cl               : F. Jensen, T. Helgaker, J. Chem. Phys. 121, 3463 (2004).
   He-B, Ne-Mg, Al, Ar : F. Jensen, J. Phys. Chem. A 111, 11198 (2007).
   K, Ca, Ga-Kr        : F. Jensen, J. Chem. Phys. 136, 094110 (2012).
   Sc-Zn               : F. Jensen, J. Chem. Phys. 138, 014107 (2013).

----- AuxJ basis set information -----
Your calculation utilizes the AutoAux generation procedure.
  G. L. Stoychev, A. A. Auer, F. Neese, J. Chem. Theory Comput. 13, 554 (2017)

----- AuxC basis set information -----
Your calculation utilizes the AutoAux generation procedure.
  G. L. Stoychev, A. A. Auer, F. Neese, J. Chem. Theory Comput. 13, 554 (2017)

----- AuxJK basis set information -----
Your calculation utilizes the AutoAux generation procedure.
  G. L. Stoychev, A. A. Auer, F. Neese, J. Chem. Theory Comput. 13, 554 (2017)

================================================================================
                                        WARNINGS
                       Please study these warnings very carefully!
================================================================================


WARNING: Geometry Optimization
  ===> : Switching off AutoStart
         For restart on a previous wavefunction, please use MOREAD

INFO   : the flag for use of the SHARK integral package has been found!

================================================================================
                                       INPUT FILE
================================================================================
NAME = run.inp
|  1> # Geometry optimization for (AlH3)n cluster
|  2> 
|  3> ! PBE 	# functional used for the MOF calculations later (non-expensive)
|  4> ! RKS	# closed shell for AlH3
|  5> ! D3BJ  # better geometries at low cost
|  6> ! pc-3 	# proven basiset from earlier work
|  7> ! Freq 	# Frequency analysis to check the stabiltity of the structures
|  8> 
|  9> ! NoPop # population analysis not necessary	
| 10> 
| 11> ! RI 		# speed up calculation 
| 12> ! AutoAux # no auxiliary basis set for pc implemented
| 13> ! DEFGRID3 # dense integration grid in space
| 14> ! TightSCF # 
| 15> ! TightOpt # thight convergence criteria for geometry optimizations
| 16> 
| 17> ! SmallPrint
| 18> 
| 19> 
| 20> * xyzFile 0 1 start.xyz # only maingroup elements H and Al so there should be no net spin
| 21> 
| 22>                          ****END OF INPUT****
================================================================================

                       *****************************
                       * Geometry Optimization Run *
                       *****************************

Geometry optimization settings:
Update method            Update   .... BFGS
Choice of coordinates    CoordSys .... Z-matrix Internals
Initial Hessian          InHess   .... Almoef's Model

Convergence Tolerances:
Energy Change            TolE     ....  1.0000e-06 Eh
Max. Gradient            TolMAXG  ....  1.0000e-04 Eh/bohr
RMS Gradient             TolRMSG  ....  3.0000e-05 Eh/bohr
Max. Displacement        TolMAXD  ....  1.0000e-03 bohr
RMS Displacement         TolRMSD  ....  6.0000e-04 bohr
Strict Convergence                ....  False
------------------------------------------------------------------------------
                        ORCA OPTIMIZATION COORDINATE SETUP
------------------------------------------------------------------------------

The optimization will be done in new redundant internal coordinates
Making redundant internal coordinates   ...  (new redundants) done
Evaluating the initial hessian          ...  (Almloef) done
Evaluating the coordinates              ...  done
Calculating the B-matrix                .... done
Calculating the G-matrix                .... done
Diagonalizing the G-matrix              .... done
The first mode is                       ....  126
The number of degrees of freedom        ....   30

    -----------------------------------------------------------------
                    Redundant Internal Coordinates


    -----------------------------------------------------------------
         Definition                    Initial Value    Approx d2E/dq
    -----------------------------------------------------------------
      1. B(H   1,Al  0)                  1.7029         0.265557   
      2. B(H   2,Al  0)                  1.5965         0.392515   
      3. B(H   3,Al  0)                  1.5962         0.393042   
      4. B(Al  4,Al  0)                  3.0827         0.061138   
      5. B(H   5,Al  4)                  1.7026         0.265883   
      6. B(H   6,Al  4)                  1.5960         0.393241   
      7. B(H   7,Al  0)                  1.7027         0.265730   
      8. B(H   7,Al  4)                  1.7027         0.265767   
      9. B(Al  8,H   5)                  1.7025         0.265985   
     10. B(Al  8,Al  4)                  3.0696         0.064151   
     11. B(Al  8,H   1)                  1.7029         0.265555   
     12. B(Al  8,Al  0)                  3.0696         0.064161   
     13. B(H   9,Al  8)                  1.5963         0.392903   
     14. B(H  10,Al  4)                  1.5966         0.392473   
     15. B(H  11,Al  8)                  1.5965         0.392529   
     16. A(H   3,Al  0,H   7)          109.1570         0.357097   
     17. A(H   1,Al  0,Al  8)           25.6743         0.305948   
     18. A(H   3,Al  0,Al  4)          120.3693         0.323505   
     19. A(H   2,Al  0,H   3)          109.6947         0.381845   
     20. A(H   2,Al  0,Al  4)          119.4378         0.323434   
     21. A(H   7,Al  0,Al  8)           84.9460         0.305980   
     22. A(H   1,Al  0,Al  4)           85.0076         0.303591   
     23. A(H   1,Al  0,H   3)          109.2846         0.357058   
     24. A(Al  4,Al  0,H   7)           25.1448         0.303622   
     25. A(H   1,Al  0,H   7)          110.1464         0.334330   
     26. A(H   2,Al  0,Al  8)          115.3036         0.326009   
     27. A(Al  4,Al  0,Al  8)           59.8593         0.278793   
     28. A(H   2,Al  0,H   7)          109.2556         0.357016   
     29. A(H   3,Al  0,Al  8)          124.6405         0.326081   
     30. A(H   1,Al  0,H   2)          109.2898         0.356976   
     31. A(Al  0,H   1,Al  8)          128.6515         0.334294   
     32. A(H   5,Al  4,H   7)          110.2899         0.334406   
     33. A(H   7,Al  4,Al  8)           84.9451         0.305979   
     34. A(Al  0,Al  4,H   5)           85.1449         0.303650   
     35. A(H   6,Al  4,Al  8)          116.3392         0.326099   
     36. A(H   5,Al  4,Al  8)           25.6445         0.306000   
     37. A(Al  0,Al  4,Al  8)           59.8578         0.278785   
     38. A(H   7,Al  4,H  10)          109.1977         0.357018   
     39. A(H   6,Al  4,H  10)          109.7182         0.381871   
     40. A(H   5,Al  4,H  10)          109.1182         0.357044   
     41. A(Al  0,Al  4,H  10)          119.9643         0.323428   
     42. A(H   5,Al  4,H   6)          109.3138         0.357163   
     43. A(Al  0,Al  4,H   7)           25.1454         0.303629   
     44. A(Al  0,Al  4,H   6)          119.8196         0.323532   
     45. A(H   6,Al  4,H   7)          109.1906         0.357136   
     46. A(Al  8,Al  4,H  10)          123.5970         0.325994   
     47. A(Al  4,H   5,Al  8)          128.7093         0.334452   
     48. A(Al  0,H   7,Al  4)          129.7099         0.334374   
     49. A(H   1,Al  8,Al  4)           85.4293         0.305939   
     50. A(Al  0,Al  8,Al  4)           60.2829         0.280870   
     51. A(H   9,Al  8,H  11)          109.7244         0.381824   
     52. A(Al  0,Al  8,H   1)           25.6743         0.305948   
     53. A(Al  4,Al  8,H  11)          126.5619         0.326002   
     54. A(H   1,Al  8,H  11)          109.2701         0.356978   
     55. A(Al  0,Al  8,H  11)          127.0599         0.326011   
     56. A(H   5,Al  8,H   9)          109.1794         0.357134   
     57. A(Al  4,Al  8,H   9)          112.8728         0.326053   
     58. A(H   1,Al  8,H   9)          109.3415         0.357036   
     59. A(Al  0,Al  8,H   9)          112.3874         0.326062   
     60. A(Al  4,Al  8,H   5)           25.6462         0.306019   
     61. A(H   5,Al  8,H  11)          109.2522         0.357076   
     62. A(H   1,Al  8,H   5)          110.0608         0.334383   
     63. A(Al  0,Al  8,H   5)           85.5703         0.306027   
     64. D(Al  8,H   1,Al  0,H   3)   -131.4618         0.004612   
     65. D(Al  8,H   1,Al  0,Al  4)    -10.9909         0.004612   
     66. D(Al  8,H   1,Al  0,H   7)    -11.5485         0.004612   
     67. D(Al  8,H   1,Al  0,H   2)    108.4892         0.004612   
     68. D(H  10,Al  4,Al  0,H   2)    142.3054         0.001506   
     69. D(H   6,Al  4,Al  0,H   2)      1.1068         0.001506   
     70. D(H   5,Al  4,Al  0,H   3)    110.4131         0.001506   
     71. D(Al  8,Al  4,Al  0,H   7)   -175.7513         0.001506   
     72. D(H   7,Al  4,Al  0,H   2)     71.8744         0.001506   
     73. D(H   6,Al  4,Al  0,Al  8)    104.9837         0.001506   
     74. D(H  10,Al  4,Al  0,H   7)     70.4310         0.001506   
     75. D(H   6,Al  4,Al  0,H   3)   -140.0810         0.001506   
     76. D(H   7,Al  4,Al  0,H   1)   -178.7677         0.001506   
     77. D(H  10,Al  4,Al  0,H   1)   -108.3367         0.001506   
     78. D(H   7,Al  4,Al  0,Al  8)    175.7513         0.001506   
     79. D(H  10,Al  4,Al  0,Al  8)   -113.8177         0.001506   
     80. D(Al  8,Al  4,Al  0,H   3)    114.9353         0.001506   
     81. D(Al  8,Al  4,Al  0,H   1)      5.4810         0.001506   
     82. D(H   5,Al  4,Al  0,H   1)      0.9588         0.001506   
     83. D(H   7,Al  4,Al  0,H   3)    -69.3134         0.001506   
     84. D(H   5,Al  4,Al  0,H   7)    179.7265         0.001506   
     85. D(H   6,Al  4,Al  0,H   1)    110.4647         0.001506   
     86. D(H   5,Al  4,Al  0,H   2)   -108.3991         0.001506   
     87. D(H   6,Al  4,Al  0,H   7)    -70.7676         0.001506   
     88. D(H   5,Al  4,Al  0,Al  8)     -4.5222         0.001506   
     89. D(H  10,Al  4,Al  0,H   3)      1.1176         0.001506   
     90. D(Al  8,Al  4,Al  0,H   2)   -103.8769         0.001506   
     91. D(Al  8,H   5,Al  4,Al  0)      9.0645         0.004620   
     92. D(Al  8,H   5,Al  4,H   7)      9.1885         0.004620   
     93. D(Al  8,H   5,Al  4,H   6)   -110.8729         0.004620   
     94. D(Al  8,H   5,Al  4,H  10)    129.1358         0.004620   
     95. D(Al  0,H   7,Al  4,H   6)    119.8451         0.004617   
     96. D(Al  0,H   7,Al  4,H  10)   -120.1899         0.004617   
     97. D(Al  0,H   7,Al  4,H   5)     -0.2906         0.004617   
     98. D(Al  4,H   7,Al  0,Al  8)     -3.6878         0.004616   
     99. D(Al  4,H   7,Al  0,H   3)    121.2981         0.004616   
    100. D(Al  0,H   7,Al  4,Al  8)      3.6877         0.004617   
    101. D(Al  4,H   7,Al  0,H   2)   -118.7509         0.004616   
    102. D(Al  4,H   7,Al  0,H   1)      1.3076         0.004616   
    103. D(H  11,Al  8,Al  0,H   7)    117.1808         0.001507   
    104. D(H  11,Al  8,Al  0,Al  4)    115.3699         0.001507   
    105. D(H  11,Al  8,Al  0,H   3)      7.3456         0.001507   
    106. D(H  11,Al  8,Al  0,H   1)    -51.9432         0.001507   
    107. D(H   9,Al  8,Al  0,H   7)   -102.6022         0.001507   
    108. D(H   9,Al  8,Al  0,Al  4)   -104.4132         0.001507   
    109. D(H   9,Al  8,Al  0,H   2)      6.3266         0.001507   
    110. D(H   9,Al  8,Al  0,H   1)     88.2737         0.001507   
    111. D(H   5,Al  8,Al  0,H   7)      6.3307         0.001507   
    112. D(H   5,Al  8,Al  0,Al  4)      4.5198         0.001507   
    113. D(H   5,Al  8,Al  0,H   3)   -103.5045         0.001507   
    114. D(H   5,Al  8,Al  0,H   2)    115.2596         0.001507   
    115. D(H   5,Al  8,Al  0,H   1)   -162.7933         0.001507   
    116. D(Al  4,Al  8,Al  0,H   7)      1.8110         0.001507   
    117. D(H   9,Al  8,Al  0,H   3)    147.5626         0.001507   
    118. D(H   9,Al  8,H   5,Al  4)    103.0816         0.004622   
    119. D(Al  4,Al  8,Al  0,H   3)   -108.0242         0.001507   
    120. D(Al  4,Al  8,Al  0,H   2)    110.7398         0.001507   
    121. D(H  11,Al  8,Al  0,H   2)   -133.8903         0.001507   
    122. D(H  11,Al  8,Al  4,H  10)     -8.2254         0.001507   
    123. D(H  11,Al  8,Al  4,H   7)   -117.9534         0.001507   
    124. D(Al  4,Al  8,Al  0,H   1)   -167.3131         0.001507   
    125. D(Al  4,Al  8,H   1,Al  0)     11.0314         0.004611   
    126. D(H   1,Al  8,Al  0,H   7)    169.1241         0.001507   
    127. D(H   9,Al  8,Al  4,H  10)   -148.4809         0.001507   
    128. D(H   1,Al  8,Al  0,Al  4)    167.3131         0.001507   
    129. D(H   1,Al  8,Al  0,H   3)     59.2889         0.001507   
    130. D(H   9,Al  8,Al  4,H   5)    -86.8566         0.001507   
    131. D(H   9,Al  8,Al  4,Al  0)    103.6022         0.001507   
    132. D(H   1,Al  8,Al  0,H   2)    -81.9471         0.001507   
    133. D(H   5,Al  8,Al  4,H   7)   -171.3523         0.001507   
    134. D(H   5,Al  8,Al  4,H   6)     79.7167         0.001507   
    135. D(H   5,Al  8,Al  4,Al  0)   -169.5413         0.001507   
    136. D(H   1,Al  8,Al  4,H  10)    102.4394         0.001507   
    137. D(H   1,Al  8,Al  4,H   7)     -7.2886         0.001507   
    138. D(H   1,Al  8,Al  4,H   6)   -116.2197         0.001507   
    139. D(H   1,Al  8,Al  4,H   5)    164.0637         0.001507   
    140. D(H   1,Al  8,Al  4,Al  0)     -5.4776         0.001507   
    141. D(H   5,Al  8,Al  4,H  10)    -61.6243         0.001507   
    142. D(Al  0,Al  8,Al  4,H  10)    107.9170         0.001507   
    143. D(Al  0,Al  8,Al  4,H   7)     -1.8110         0.001507   
    144. D(H   9,Al  8,Al  4,H   6)     -7.1399         0.001507   
    145. D(H   9,Al  8,Al  4,H   7)    101.7911         0.001507   
    146. D(Al  0,Al  8,Al  4,H   6)   -110.7421         0.001507   
    147. D(H  11,Al  8,Al  4,Al  0)   -116.1423         0.001507   
    148. D(H  11,Al  8,Al  4,H   5)     53.3989         0.001507   
    149. D(H  11,Al  8,Al  4,H   6)    133.1156         0.001507   
    150. D(Al  0,Al  8,Al  4,H   5)    169.5413         0.001507   
    151. D(H  11,Al  8,H   1,Al  0)    138.2682         0.004611   
    152. D(Al  0,Al  8,H   5,Al  4)     -9.0981         0.004622   
    153. D(H   1,Al  8,H   5,Al  4)    -16.9402         0.004622   
    154. D(H   9,Al  8,H   1,Al  0)   -101.6240         0.004611   
    155. D(H  11,Al  8,H   5,Al  4)   -136.9197         0.004622   
    156. D(H   5,Al  8,H   1,Al  0)     18.2996         0.004611   
    -----------------------------------------------------------------

Number of atoms                         .... 12
Number of degrees of freedom            .... 156

Time needed for optimization step       :     1.94 sec

         *************************************************************
         *                GEOMETRY OPTIMIZATION CYCLE   1            *
         *************************************************************
---------------------------------
CARTESIAN COORDINATES (ANGSTROEM)
---------------------------------
  Al    -0.000000   -0.000000    3.393130
  H     -0.867230   -1.092910    2.416740
  H     -1.024390    0.831510    4.292100
  H      1.002490   -0.813020    4.332160
  Al     0.982390    1.187590    0.723380
  H      0.000000    0.000000   -0.000000
  H      0.484810    2.633840    0.267200
  H      0.893240    1.074400    2.419960
  Al    -1.130870   -1.038720    0.735240
  H     -2.604660   -0.496760    0.448370
  H      2.494720    0.967690    0.261290
  H     -0.969110   -2.506770    0.128970

----------------------------
CARTESIAN COORDINATES (A.U.)
----------------------------
  NO LB      ZA    FRAG     MASS         X           Y           Z
   0 Al   13.0000    0    26.982   -0.000000   -0.000000    6.412086
   1 H     1.0000    0     1.008   -1.638827   -2.065301    4.566977
   2 H     1.0000    0     1.008   -1.935817    1.571326    8.110894
   3 H     1.0000    0     1.008    1.894432   -1.536385    8.186596
   4 Al   13.0000    0    26.982    1.856448    2.244220    1.366990
   5 H     1.0000    0     1.008    0.000000    0.000000   -0.000000
   6 H     1.0000    0     1.008    0.916158    4.977236    0.504935
   7 H     1.0000    0     1.008    1.687979    2.030322    4.573062
   8 Al   13.0000    0    26.982   -2.137035   -1.962896    1.389402
   9 H     1.0000    0     1.008   -4.922094   -0.938740    0.847297
  10 H     1.0000    0     1.008    4.714338    1.828669    0.493767
  11 H     1.0000    0     1.008   -1.831352   -4.737109    0.243718

--------------------------------
INTERNAL COORDINATES (ANGSTROEM)
--------------------------------
 Al     0   0   0     0.000000000000     0.00000000     0.00000000
 H      1   0   0     1.702902690438     0.00000000     0.00000000
 H      1   2   0     1.596537131764   109.28981897     0.00000000
 H      1   2   3     1.596172002448   109.28462544   120.04899635
 Al     1   2   3     3.082697711859    85.00763550   240.51990942
 H      5   1   2     1.702568278983    85.14486199     0.95875965
 H      5   1   2     1.596034182372   119.81964725   110.46467278
 H      5   1   2     1.702687110129    25.14537376   181.23227057
 Al     6   5   1     1.702464112074   128.70928919     9.06454542
 H      9   6   5     1.596268148714   109.17940521   103.08155221
 H      5   1   2     1.596566693565   119.96432189   251.66326688
 H      9   6   5     1.596527611099   109.25223348   223.08029647

---------------------------
INTERNAL COORDINATES (A.U.)
---------------------------
 Al     0   0   0     0.000000000000     0.00000000     0.00000000
 H      1   0   0     3.218019717645     0.00000000     0.00000000
 H      1   2   0     3.017017941669   109.28981897     0.00000000
 H      1   2   3     3.016327947260   109.28462544   120.04899635
 Al     1   2   3     5.825454429079    85.00763550   240.51990942
 H      5   1   2     3.217387771580    85.14486199     0.95875965
 H      5   1   2     3.016067505060   119.81964725   110.46467278
 H      5   1   2     3.217612329902    25.14537376   181.23227057
 Al     6   5   1     3.217190924649   128.70928919     9.06454542
 H      9   6   5     3.016509637372   109.17940521   103.08155221
 H      5   1   2     3.017073805377   119.96432189   251.66326688
 H      9   6   5     3.016999950220   109.25223348   223.08029647

---------------------
BASIS SET INFORMATION
---------------------
There are 2 groups of distinct atoms

 Group   1 Type Al  : 35s21p4d2f1g contracted to 6s5p4d2f1g pattern {121010111/99111/1111/11/1}
 Group   2 Type H   : 9s4p2d1f contracted to 5s4p2d1f pattern {51111/1111/11/1}

Atom   0Al   basis set group =>   1
Atom   1H    basis set group =>   2
Atom   2H    basis set group =>   2
Atom   3H    basis set group =>   2
Atom   4Al   basis set group =>   1
Atom   5H    basis set group =>   2
Atom   6H    basis set group =>   2
Atom   7H    basis set group =>   2
Atom   8Al   basis set group =>   1
Atom   9H    basis set group =>   2
Atom  10H    basis set group =>   2
Atom  11H    basis set group =>   2
---------------------------------
AUXILIARY/J BASIS SET INFORMATION
---------------------------------
There are 2 groups of distinct atoms

 Group   1 Type Al  : 19s16p15d8f8g5h contracted to 19s16p15d8f8g5h pattern {1111111111111111111/1111111111111111/111111111111111/11111111/11111111/11111}
 Group   2 Type H   : 15s7p6d4f4g contracted to 15s7p6d4f4g pattern {111111111111111/1111111/111111/1111/1111}

Atom   0Al   basis set group =>   1
Atom   1H    basis set group =>   2
Atom   2H    basis set group =>   2
Atom   3H    basis set group =>   2
Atom   4Al   basis set group =>   1
Atom   5H    basis set group =>   2
Atom   6H    basis set group =>   2
Atom   7H    basis set group =>   2
Atom   8Al   basis set group =>   1
Atom   9H    basis set group =>   2
Atom  10H    basis set group =>   2
Atom  11H    basis set group =>   2
---------------------------------
AUXILIARY/C BASIS SET INFORMATION
---------------------------------
There are 2 groups of distinct atoms

 Group   1 Type Al  : 19s16p15d8f8g5h contracted to 19s16p15d8f8g5h pattern {1111111111111111111/1111111111111111/111111111111111/11111111/11111111/11111}
 Group   2 Type H   : 15s7p6d4f4g contracted to 15s7p6d4f4g pattern {111111111111111/1111111/111111/1111/1111}

Atom   0Al   basis set group =>   1
Atom   1H    basis set group =>   2
Atom   2H    basis set group =>   2
Atom   3H    basis set group =>   2
Atom   4Al   basis set group =>   1
Atom   5H    basis set group =>   2
Atom   6H    basis set group =>   2
Atom   7H    basis set group =>   2
Atom   8Al   basis set group =>   1
Atom   9H    basis set group =>   2
Atom  10H    basis set group =>   2
Atom  11H    basis set group =>   2
----------------------------------
AUXILIARY/JK BASIS SET INFORMATION
----------------------------------
There are 2 groups of distinct atoms

 Group   1 Type Al  : 19s16p15d8f8g5h contracted to 19s16p15d8f8g5h pattern {1111111111111111111/1111111111111111/111111111111111/11111111/11111111/11111}
 Group   2 Type H   : 15s7p6d4f4g contracted to 15s7p6d4f4g pattern {111111111111111/1111111/111111/1111/1111}

Atom   0Al   basis set group =>   1
Atom   1H    basis set group =>   2
Atom   2H    basis set group =>   2
Atom   3H    basis set group =>   2
Atom   4Al   basis set group =>   1
Atom   5H    basis set group =>   2
Atom   6H    basis set group =>   2
Atom   7H    basis set group =>   2
Atom   8Al   basis set group =>   1
Atom   9H    basis set group =>   2
Atom  10H    basis set group =>   2
Atom  11H    basis set group =>   2
------------------------------------------------------------------------------
                           ORCA GTO INTEGRAL CALCULATION
                           -- RI-GTO INTEGRALS CHOSEN --
------------------------------------------------------------------------------
------------------------------------------------------------------------------
                   ___                                                        
                  /   \      - P O W E R E D   B Y -                         
                 /     \                                                     
                 |  |  |   _    _      __       _____    __    __             
                 |  |  |  | |  | |    /  \     |  _  \  |  |  /  |          
                  \  \/   | |  | |   /    \    | | | |  |  | /  /          
                 / \  \   | |__| |  /  /\  \   | |_| |  |  |/  /          
                |  |  |   |  __  | /  /__\  \  |    /   |      \           
                |  |  |   | |  | | |   __   |  |    \   |  |\   \          
                \     /   | |  | | |  |  |  |  | |\  \  |  | \   \       
                 \___/    |_|  |_| |__|  |__|  |_| \__\ |__|  \__/        
                                                                              
                      - O R C A' S   B I G   F R I E N D -                    
                                      &                                       
                       - I N T E G R A L  F E E D E R -                       
                                                                              
 v1 FN, 2020, v2 2021                                                         
------------------------------------------------------------------------------


Reading SHARK input file run.SHARKINP.tmp ... ok
----------------------
SHARK INTEGRAL PACKAGE
----------------------

Number of atoms                             ...     12
Number of basis functions                   ...    498
Number of shells                            ...    162
Maximum angular momentum                    ...      4
Integral batch strategy                     ... SHARK/LIBINT Hybrid
RI-J (if used) integral strategy            ... SPLIT-RIJ (Revised 2003 algorithm where possible)
Printlevel                                  ...      1
Contraction scheme used                     ... SEGMENTED contraction
Coulomb Range Separation                    ... NOT USED
Exchange Range Separation                   ... NOT USED
Finite Nucleus Model                        ... NOT USED
Auxiliary Coulomb fitting basis             ... AVAILABLE
   # of basis functions in Aux-J            ...   2145
   # of shells in Aux-J                     ...    537
   Maximum angular momentum in Aux-J        ...      5
Auxiliary J/K fitting basis                 ... AVAILABLE
   # of basis functions in Aux-JK           ...   2145
   # of shells in Aux-JK                    ...    537
   Maximum angular momentum in Aux-JK       ...      5
Auxiliary Correlation fitting basis         ... AVAILABLE
   # of basis functions in Aux-C            ...   2145
   # of shells in Aux-C                     ...    537
   Maximum angular momentum in Aux-C        ...      5
Auxiliary 'external' fitting basis          ... NOT available
Integral threshold                          ...     2.500000e-11
Primitive cut-off                           ...     2.500000e-12
Primitive pair pre-selection threshold      ...     2.500000e-12

Calculating pre-screening integrals         ... done (  1.2 sec) Dimension = 162
Organizing shell pair data                  ... done (  0.6 sec)
Shell pair information
Total number of shell pairs                 ...     13203
Shell pairs after pre-screening             ...     11265
Total number of primitive shell pairs       ...     56385
Primitive shell pairs kept                  ...     33330
          la=0 lb=0:   1814 shell pairs
          la=1 lb=0:   2811 shell pairs
          la=1 lb=1:   1114 shell pairs
          la=2 lb=0:   1614 shell pairs
          la=2 lb=1:   1247 shell pairs
          la=2 lb=2:    362 shell pairs
          la=3 lb=0:    801 shell pairs
          la=3 lb=1:    592 shell pairs
          la=3 lb=2:    338 shell pairs
          la=3 lb=3:     90 shell pairs
          la=4 lb=0:    189 shell pairs
          la=4 lb=1:    152 shell pairs
          la=4 lb=2:     90 shell pairs
          la=4 lb=3:     45 shell pairs
          la=4 lb=4:      6 shell pairs

Calculating one electron integrals          ... done (  0.2 sec)
Calculating RI/J V-Matrix + Cholesky decomp.... done (  1.2 sec)
Calculating RI/JK V-Matrix + Cholesky decomp... done (  0.8 sec)
Calculating RI/C V-Matrix + Cholesky decomp.... done (  0.8 sec)
Calculating Nuclear repulsion               ... done (  0.0 sec) ENN=    169.107029396717 Eh

SHARK setup successfully completed in   9.3 seconds

Maximum memory used throughout the entire GTOINT-calculation: 320.7 MB
-------------------------------------------------------------------------------
                                 ORCA SCF
-------------------------------------------------------------------------------

------------
SCF SETTINGS
------------
Hamiltonian:
 Density Functional     Method          .... DFT(GTOs)
 Exchange Functional    Exchange        .... PBE
   PBE kappa parameter   XKappa         ....  0.804000
   PBE mue parameter    XMuePBE         ....  0.219520
 Correlation Functional Correlation     .... PBE
   PBE beta parameter  CBetaPBE         ....  0.066725
 LDA part of GGA corr.  LDAOpt          .... PW91-LDA
 Gradients option       PostSCFGGA      .... off
   Density functional embedding theory  .... OFF
   NL short-range parameter             ....  6.400000
 RI-approximation to the Coulomb term is turned on
   Number of AuxJ basis functions       .... 2145


General Settings:
 Integral files         IntName         .... run
 Hartree-Fock type      HFTyp           .... RHF
 Total Charge           Charge          ....    0
 Multiplicity           Mult            ....    1
 Number of Electrons    NEL             ....   48
 Basis Dimension        Dim             ....  498
 Nuclear Repulsion      ENuc            ....    169.1070293967 Eh

Convergence Acceleration:
 DIIS                   CNVDIIS         .... on
   Start iteration      DIISMaxIt       ....    12
   Startup error        DIISStart       ....  0.200000
   # of expansion vecs  DIISMaxEq       ....     5
   Bias factor          DIISBfac        ....   1.050
   Max. coefficient     DIISMaxC        ....  10.000
 Trust-Rad. Augm. Hess. CNVTRAH         .... auto
   Auto Start mean grad. ratio tolernc. ....  1.125000
   Auto Start start iteration           ....    20
   Auto Start num. interpolation iter.  ....    10
   Max. Number of Micro iterations      ....    16
   Max. Number of Macro iterations      .... Maxiter - #DIIS iter
   Number of Davidson start vectors     ....     2
   Converg. threshold I  (grad. norm)   ....   1.000e-05
   Converg. threshold II (energy diff.) ....   1.000e-08
   Grad. Scal. Fac. for Micro threshold ....   0.100
   Minimum threshold for Micro iter.    ....   0.010
   NR start threshold (gradient norm)   ....   0.001
   Initial trust radius                 ....   0.400
   Minimum AH scaling param. (alpha)    ....   1.000
   Maximum AH scaling param. (alpha)    .... 1000.000
   Orbital update algorithm             .... Taylor
   White noise on init. David. guess    .... on
   Maximum white noise                  ....   0.010
   Quad. conv. algorithm                .... NR
 SOSCF                  CNVSOSCF        .... on
   Start iteration      SOSCFMaxIt      ....   150
   Startup grad/error   SOSCFStart      ....  0.003300
 Level Shifting         CNVShift        .... on
   Level shift para.    LevelShift      ....    0.2500
   Turn off err/grad.   ShiftErr        ....    0.0010
 Zerner damping         CNVZerner       .... off
 Static damping         CNVDamp         .... on
   Fraction old density DampFac         ....    0.7000
   Max. Damping (<1)    DampMax         ....    0.9800
   Min. Damping (>=0)   DampMin         ....    0.0000
   Turn off err/grad.   DampErr         ....    0.1000
 Fernandez-Rico         CNVRico         .... off

SCF Procedure:
 Maximum # iterations   MaxIter         ....   125
 SCF integral mode      SCFMode         .... Direct
   Integral package                     .... SHARK and LIBINT hybrid scheme
 Reset frequency        DirectResetFreq ....    20
 Integral Threshold     Thresh          ....  2.500e-11 Eh
 Primitive CutOff       TCut            ....  2.500e-12 Eh

Convergence Tolerance:
 Convergence Check Mode ConvCheckMode   .... Total+1el-Energy
 Convergence forced     ConvForced      .... 0
 Energy Change          TolE            ....  1.000e-08 Eh
 1-El. energy change                    ....  1.000e-05 Eh
 Orbital Gradient       TolG            ....  1.000e-05
 Orbital Rotation angle TolX            ....  1.000e-05
 DIIS Error             TolErr          ....  5.000e-07


Diagonalization of the overlap matrix:
Smallest eigenvalue                        ... 2.799e-04
Time for diagonalization                   ...    0.401 sec
Threshold for overlap eigenvalues          ... 1.000e-08
Number of eigenvalues below threshold      ... 0
Time for construction of square roots      ...    0.107 sec
Total time needed                          ...    0.509 sec

Time for model grid setup =    1.038 sec

------------------------------
INITIAL GUESS: MODEL POTENTIAL
------------------------------
Loading Hartree-Fock densities                     ... done
Calculating cut-offs                               ... done
Initializing the effective Hamiltonian             ... done
Setting up the integral package (SHARK)            ... done
Starting the Coulomb interaction                   ... done (   1.6 sec)
Reading the grid                                   ... done
Mapping shells                                     ... done
Starting the XC term evaluation                    ... done (   1.2 sec)
  promolecular density results
     # of electrons  =     47.998102520
     EX              =    -56.691158627
     EC              =     -1.648238372
     EX+EC           =    -58.339396999
Transforming the Hamiltonian                       ... done (   0.1 sec)
Diagonalizing the Hamiltonian                      ... done (   0.1 sec)
Back transforming the eigenvectors                 ... done (   0.0 sec)
Now organizing SCF variables                       ... done
                      ------------------
                      INITIAL GUESS DONE (   4.1 sec)
                      ------------------
-------------------
DFT GRID GENERATION
-------------------

General Integration Accuracy     IntAcc      ... 4.959
Radial Grid Type                 RadialGrid  ... OptM3 with GC (2021)
Angular Grid (max. ang.)         AngularGrid ... 6 (Lebedev-590)
Angular grid pruning method      GridPruning ... 4 (adaptive)
Weight generation scheme         WeightScheme... Becke
Basis function cutoff            BFCut       ... 1.0000e-11
Integration weight cutoff        WCut        ... 1.0000e-14
Angular grids for H and He will be reduced by one unit
Partially contracted basis set               ... off
Rotationally invariant grid construction     ... off

Total number of grid points                  ...   135514
Total number of batches                      ...     2123
Average number of points per batch           ...       63
Average number of grid points per atom       ...    11293
Time for grid setup =    5.857 sec

--------------
SCF ITERATIONS
--------------
ITER       Energy         Delta-E        Max-DP      RMS-DP      [F,P]     Damp
               ***  Starting incremental Fock matrix formation  ***
  0   -732.2103284611   0.000000000000 0.01294335  0.00015694  0.0885574 0.7000
  1   -732.2300451866  -0.019716725460 0.01196454  0.00014215  0.0572193 0.7000
                               ***Turning on DIIS***
  2   -732.2415102532  -0.011465066574 0.02546382  0.00031571  0.0318418 0.0000
  3   -732.2565840774  -0.015073824212 0.01027696  0.00010770  0.0195841 0.0000
  4   -732.2603124471  -0.003728369716 0.00300837  0.00003907  0.0055781 0.0000
                      *** Initiating the SOSCF procedure ***
                           *** Shutting down DIIS ***
                      *** Re-Reading the Fockian *** 
                      *** Removing any level shift *** 
ITER      Energy       Delta-E        Grad      Rot      Max-DP    RMS-DP
  5   -732.26060656  -0.0002941156  0.001049  0.001049  0.001169  0.000017
               *** Restarting incremental Fock matrix formation ***
  6   -732.26064876  -0.0000421939  0.000706  0.003364  0.001167  0.000016
  7   -732.26065227  -0.0000035139  0.000452  0.000918  0.000364  0.000005
  8   -732.26065760  -0.0000053309  0.000060  0.000156  0.000151  0.000002
  9   -732.26065775  -0.0000001450  0.000023  0.000073  0.000038  0.000001
 10   -732.26065784  -0.0000000915  0.000003  0.000010  0.000009  0.000000
                  ***Gradient check signals convergence***
              ***Rediagonalizing the Fockian in SOSCF/NRSCF***

               *****************************************************
               *                     SUCCESS                       *
               *           SCF CONVERGED AFTER  11 CYCLES          *
               *****************************************************


----------------
TOTAL SCF ENERGY
----------------

Total Energy       :         -732.26065784 Eh          -19925.82551 eV

Components:
Nuclear Repulsion  :          169.10702940 Eh            4601.63621 eV
Electronic Energy  :         -901.36768724 Eh          -24527.46172 eV
One Electron Energy:        -1352.92421470 Eh          -36814.93952 eV
Two Electron Energy:          451.55652746 Eh           12287.47780 eV

Virial components:
Potential Energy   :        -1463.72597943 Eh          -39830.00882 eV
Kinetic Energy     :          731.46532159 Eh           19904.18331 eV
Virial Ratio       :            2.00108732


DFT components:
N(Alpha)           :       24.000000781667 electrons
N(Beta)            :       24.000000781667 electrons
N(Total)           :       48.000001563333 electrons
E(X)               :      -57.168528468561 Eh       
E(C)               :       -1.628518996028 Eh       
E(XC)              :      -58.797047464590 Eh       
DFET-embed. en.    :        0.000000000000 Eh       

---------------
SCF CONVERGENCE
---------------

  Last Energy change         ...   -3.8096e-09  Tolerance :   1.0000e-08
  Last MAX-Density change    ...    4.2967e-06  Tolerance :   1.0000e-07
  Last RMS-Density change    ...    6.5434e-08  Tolerance :   5.0000e-09
  Last Orbital Gradient      ...    1.4874e-06  Tolerance :   1.0000e-05
  Last Orbital Rotation      ...    4.0330e-06  Tolerance :   1.0000e-05

             **** THE GBW FILE WAS UPDATED (run.gbw) ****
             **** DENSITY run.scfp WAS UPDATED ****
             **** ENERGY FILE WAS UPDATED (run.en.tmp) ****
             **** THE GBW FILE WAS UPDATED (run.gbw) ****
             **** DENSITY run.scfp WAS UPDATED ****
----------------
ORBITAL ENERGIES
----------------

  NO   OCC          E(Eh)            E(eV) 
   0   2.0000     -55.377080     -1506.8870 
   1   2.0000     -55.376989     -1506.8845 
   2   2.0000     -55.376914     -1506.8824 
   3   2.0000      -3.950459      -107.4975 
   4   2.0000      -3.950322      -107.4937 
   5   2.0000      -3.950253      -107.4918 
   6   2.0000      -2.554170       -69.5025 
   7   2.0000      -2.554044       -69.4991 
   8   2.0000      -2.553960       -69.4968 
   9   2.0000      -2.551820       -69.4386 
  10   2.0000      -2.551663       -69.4343 
  11   2.0000      -2.551582       -69.4321 
  12   2.0000      -2.548314       -69.3432 
  13   2.0000      -2.548167       -69.3391 
  14   2.0000      -2.548097       -69.3372 
  15   2.0000      -0.496693       -13.5157 
  16   2.0000      -0.416244       -11.3266 
  17   2.0000      -0.415970       -11.3191 
  18   2.0000      -0.324931        -8.8418 
  19   2.0000      -0.324799        -8.8382 
  20   2.0000      -0.305777        -8.3206 
  21   2.0000      -0.279475        -7.6049 
  22   2.0000      -0.267244        -7.2721 
  23   2.0000      -0.267164        -7.2699 
  24   0.0000      -0.085176        -2.3178 
  25   0.0000      -0.071998        -1.9592 
  26   0.0000      -0.071111        -1.9350 
  27   0.0000      -0.069612        -1.8942 
  28   0.0000      -0.052612        -1.4316 
  29   0.0000      -0.002014        -0.0548 
  30   0.0000       0.007696         0.2094 
  31   0.0000       0.008266         0.2249 
  32   0.0000       0.016448         0.4476 
  33   0.0000       0.017201         0.4681 
  34   0.0000       0.021269         0.5788 
  35   0.0000       0.024499         0.6667 
  36   0.0000       0.025722         0.6999 
  37   0.0000       0.026041         0.7086 
  38   0.0000       0.040336         1.0976 
  39   0.0000       0.043905         1.1947 
  40   0.0000       0.047037         1.2799 
  41   0.0000       0.048481         1.3192 
  42   0.0000       0.079543         2.1645 
  43   0.0000       0.093352         2.5402 
  44   0.0000       0.108510         2.9527 
  45   0.0000       0.108768         2.9597 
  46   0.0000       0.115568         3.1448 
  47   0.0000       0.115955         3.1553 
  48   0.0000       0.129443         3.5223 
  49   0.0000       0.140790         3.8311 
  50   0.0000       0.155322         4.2265 
  51   0.0000       0.156701         4.2640 
  52   0.0000       0.157622         4.2891 
  53   0.0000       0.159557         4.3418 
  54   0.0000       0.162947         4.4340 
  55   0.0000       0.165313         4.4984 
  56   0.0000       0.166901         4.5416 
  57   0.0000       0.187044         5.0897 
  58   0.0000       0.208870         5.6836 
  59   0.0000       0.214193         5.8285 
  60   0.0000       0.218783         5.9534 
  61   0.0000       0.248081         6.7506 
  62   0.0000       0.248621         6.7653 
  63   0.0000       0.261083         7.1044 
  64   0.0000       0.283829         7.7234 
  65   0.0000       0.294864         8.0237 
  66   0.0000       0.295945         8.0531 
  67   0.0000       0.306457         8.3391 
  68   0.0000       0.312660         8.5079 
  69   0.0000       0.315828         8.5941 
  70   0.0000       0.351665         9.5693 
  71   0.0000       0.352252         9.5853 
  72   0.0000       0.361844         9.8463 
  73   0.0000       0.375934        10.2297 
  74   0.0000       0.379043        10.3143 
  75   0.0000       0.397809        10.8249 
  76   0.0000       0.399464        10.8700 
  77   0.0000       0.413352        11.2479 
  78   0.0000       0.419319        11.4103 
  79   0.0000       0.420216        11.4347 
  80   0.0000       0.435869        11.8606 
  81   0.0000       0.442528        12.0418 
  82   0.0000       0.451274        12.2798 
  83   0.0000       0.463802        12.6207 
  84   0.0000       0.463960        12.6250 
  85   0.0000       0.470669        12.8075 
  86   0.0000       0.474801        12.9200 
  87   0.0000       0.480030        13.0623 
  88   0.0000       0.480520        13.0756 
  89   0.0000       0.505639        13.7591 
  90   0.0000       0.514093        13.9892 
  91   0.0000       0.516337        14.0502 
  92   0.0000       0.529530        14.4093 
  93   0.0000       0.550196        14.9716 
  94   0.0000       0.552788        15.0421 
  95   0.0000       0.595042        16.1919 
  96   0.0000       0.608952        16.5704 
  97   0.0000       0.611905        16.6508 
  98   0.0000       0.629859        17.1393 
  99   0.0000       0.632921        17.2227 
 100   0.0000       0.641074        17.4445 
 101   0.0000       0.641966        17.4688 
 102   0.0000       0.646302        17.5868 
 103   0.0000       0.672433        18.2978 
 104   0.0000       0.674671        18.3587 
 105   0.0000       0.684216        18.6185 
 106   0.0000       0.709748        19.3132 
 107   0.0000       0.714315        19.4375 
 108   0.0000       0.723966        19.7001 
 109   0.0000       0.760613        20.6973 
 110   0.0000       0.769338        20.9348 
 111   0.0000       0.788378        21.4529 
 112   0.0000       0.795408        21.6442 
 113   0.0000       0.796845        21.6833 
 114   0.0000       0.803179        21.8556 
 115   0.0000       0.805112        21.9082 
 116   0.0000       0.807030        21.9604 
 117   0.0000       0.821004        22.3406 
 118   0.0000       0.829098        22.5609 
 119   0.0000       0.874818        23.8050 
 120   0.0000       0.881197        23.9786 
 121   0.0000       0.955420        25.9983 
 122   0.0000       0.962040        26.1784 
 123   0.0000       0.963938        26.2301 
 124   0.0000       0.983239        26.7553 
 125   0.0000       0.987366        26.8676 
 126   0.0000       1.017204        27.6795 
 127   0.0000       1.019282        27.7361 
 128   0.0000       1.025180        27.8966 
 129   0.0000       1.037386        28.2287 
 130   0.0000       1.041747        28.3474 
 131   0.0000       1.052757        28.6470 
 132   0.0000       1.054115        28.6839 
 133   0.0000       1.083583        29.4858 
 134   0.0000       1.117945        30.4208 
 135   0.0000       1.118892        30.4466 
 136   0.0000       1.127343        30.6765 
 137   0.0000       1.130035        30.7498 
 138   0.0000       1.138960        30.9927 
 139   0.0000       1.145124        31.1604 
 140   0.0000       1.160566        31.5806 
 141   0.0000       1.170264        31.8445 
 142   0.0000       1.192894        32.4603 
 143   0.0000       1.193294        32.4712 
 144   0.0000       1.243935        33.8492 
 145   0.0000       1.251123        34.0448 
 146   0.0000       1.258454        34.2443 
 147   0.0000       1.264874        34.4190 
 148   0.0000       1.267917        34.5018 
 149   0.0000       1.276026        34.7224 
 150   0.0000       1.396257        37.9941 
 151   0.0000       1.409915        38.3657 
 152   0.0000       1.420710        38.6595 
 153   0.0000       1.449872        39.4530 
 154   0.0000       1.474312        40.1181 
 155   0.0000       1.475232        40.1431 
 156   0.0000       1.489899        40.5422 
 157   0.0000       1.497901        40.7600 
 158   0.0000       1.507605        41.0240 
 159   0.0000       1.522659        41.4337 
 160   0.0000       1.523382        41.4533 
 161   0.0000       1.536169        41.8013 
 162   0.0000       1.538811        41.8732 
 163   0.0000       1.552524        42.2463 
 164   0.0000       1.578296        42.9476 
 165   0.0000       1.578603        42.9560 
 166   0.0000       1.583450        43.0879 
 167   0.0000       1.604470        43.6598 
 168   0.0000       1.616206        43.9792 
 169   0.0000       1.624640        44.2087 
 170   0.0000       1.635041        44.4917 
 171   0.0000       1.646257        44.7969 
 172   0.0000       1.661778        45.2193 
 173   0.0000       1.662967        45.2516 
 174   0.0000       1.723614        46.9019 
 175   0.0000       1.729022        47.0491 
 176   0.0000       1.764455        48.0133 
 177   0.0000       1.782314        48.4992 
 178   0.0000       1.785250        48.5791 
 179   0.0000       1.793025        48.7907 
 180   0.0000       1.795268        48.8517 
 181   0.0000       1.801427        49.0193 
 182   0.0000       1.807179        49.1759 
 183   0.0000       1.817477        49.4561 
 184   0.0000       1.825175        49.6655 
 185   0.0000       1.849583        50.3297 
 186   0.0000       1.862981        50.6943 
 187   0.0000       1.869661        50.8760 
 188   0.0000       1.873986        50.9938 
 189   0.0000       1.877897        51.1002 
 190   0.0000       1.922097        52.3029 
 191   0.0000       1.922937        52.3258 
 192   0.0000       1.923507        52.3413 
 193   0.0000       1.925734        52.4019 
 194   0.0000       1.937682        52.7270 
 195   0.0000       1.974522        53.7295 
 196   0.0000       1.979845        53.8743 
 197   0.0000       1.998409        54.3795 
 198   0.0000       2.008900        54.6650 
 199   0.0000       2.015450        54.8432 
 200   0.0000       2.031447        55.2785 
 201   0.0000       2.042443        55.5777 
 202   0.0000       2.085143        56.7396 
 203   0.0000       2.107513        57.3484 
 204   0.0000       2.107857        57.3577 
 205   0.0000       2.121114        57.7185 
 206   0.0000       2.125318        57.8328 
 207   0.0000       2.140726        58.2521 
 208   0.0000       2.143737        58.3341 
 209   0.0000       2.154958        58.6394 
 210   0.0000       2.166192        58.9451 
 211   0.0000       2.180660        59.3388 
 212   0.0000       2.184572        59.4452 
 213   0.0000       2.213932        60.2442 
 214   0.0000       2.241577        60.9964 
 215   0.0000       2.243423        61.0466 
 216   0.0000       2.259101        61.4733 
 217   0.0000       2.285175        62.1828 
 218   0.0000       2.295025        62.4508 
 219   0.0000       2.301300        62.6215 
 220   0.0000       2.332248        63.4637 
 221   0.0000       2.390528        65.0496 
 222   0.0000       2.392863        65.1131 
 223   0.0000       2.399345        65.2895 
 224   0.0000       2.433593        66.2214 
 225   0.0000       2.444308        66.5130 
 226   0.0000       2.454900        66.8012 
 227   0.0000       2.455830        66.8265 
 228   0.0000       2.496571        67.9351 
 229   0.0000       2.498394        67.9848 
 230   0.0000       2.528886        68.8145 
 231   0.0000       2.541051        69.1455 
 232   0.0000       2.552549        69.4584 
 233   0.0000       2.557629        69.5966 
 234   0.0000       2.567570        69.8671 
 235   0.0000       2.580106        70.2083 
 236   0.0000       2.586856        70.3919 
 237   0.0000       2.668832        72.6226 
 238   0.0000       2.689361        73.1812 
 239   0.0000       2.695094        73.3372 
 240   0.0000       2.831260        77.0425 
 241   0.0000       2.854384        77.6717 
 242   0.0000       2.861736        77.8718 
 243   0.0000       2.880976        78.3953 
 244   0.0000       2.941288        80.0365 
 245   0.0000       2.942393        80.0666 
 246   0.0000       2.945516        80.1516 
 247   0.0000       2.972111        80.8753 
 248   0.0000       2.977663        81.0263 
 249   0.0000       2.986660        81.2711 
 250   0.0000       3.019963        82.1774 
 251   0.0000       3.023106        82.2629 
 252   0.0000       3.066299        83.4383 
 253   0.0000       3.068467        83.4972 
 254   0.0000       3.090999        84.1104 
 255   0.0000       3.175221        86.4021 
 256   0.0000       3.256169        88.6049 
 257   0.0000       3.263699        88.8098 
 258   0.0000       3.264870        88.8416 
 259   0.0000       3.317301        90.2683 
 260   0.0000       3.338486        90.8448 
 261   0.0000       3.357854        91.3719 
 262   0.0000       3.454236        93.9945 
 263   0.0000       3.455197        94.0207 
 264   0.0000       3.466222        94.3207 
 265   0.0000       3.478926        94.6664 
 266   0.0000       3.487269        94.8934 
 267   0.0000       3.524271        95.9003 
 268   0.0000       3.576200        97.3134 
 269   0.0000       3.589623        97.6786 
 270   0.0000       3.592092        97.7458 
 271   0.0000       3.630020        98.7779 
 272   0.0000       3.635041        98.9145 
 273   0.0000       3.640521        99.0636 
 274   0.0000       3.654802        99.4522 
 275   0.0000       3.666391        99.7676 
 276   0.0000       3.685251       100.2808 
 277   0.0000       3.687708       100.3476 
 278   0.0000       3.705706       100.8374 
 279   0.0000       3.714429       101.0748 
 280   0.0000       3.726507       101.4034 
 281   0.0000       3.765310       102.4593 
 282   0.0000       3.770031       102.5877 
 283   0.0000       3.779143       102.8357 
 284   0.0000       3.822641       104.0194 
 285   0.0000       3.826354       104.1204 
 286   0.0000       3.832250       104.2808 
 287   0.0000       3.845695       104.6467 
 288   0.0000       3.852787       104.8397 
 289   0.0000       3.855740       104.9200 
 290   0.0000       3.857308       104.9627 
 291   0.0000       3.900218       106.1303 
 292   0.0000       3.933551       107.0374 
 293   0.0000       3.941855       107.2633 
 294   0.0000       4.032081       109.7185 
 295   0.0000       4.078826       110.9905 
 296   0.0000       4.081931       111.0750 
 297   0.0000       4.149681       112.9186 
 298   0.0000       4.165493       113.3488 
 299   0.0000       4.217614       114.7671 
 300   0.0000       4.437774       120.7580 
 301   0.0000       4.442967       120.8993 
 302   0.0000       4.455482       121.2398 
 303   0.0000       4.463245       121.4511 
 304   0.0000       4.482590       121.9775 
 305   0.0000       4.496153       122.3465 
 306   0.0000       4.498180       122.4017 
 307   0.0000       4.517779       122.9350 
 308   0.0000       4.522425       123.0614 
 309   0.0000       4.912599       133.6786 
 310   0.0000       4.915033       133.7448 
 311   0.0000       4.920557       133.8952 
 312   0.0000       4.955297       134.8405 
 313   0.0000       4.963521       135.0643 
 314   0.0000       4.988273       135.7378 
 315   0.0000       4.994756       135.9142 
 316   0.0000       5.016868       136.5159 
 317   0.0000       5.022322       136.6643 
 318   0.0000       5.027819       136.8139 
 319   0.0000       5.030942       136.8989 
 320   0.0000       5.046147       137.3126 
 321   0.0000       5.052037       137.4729 
 322   0.0000       5.058305       137.6435 
 323   0.0000       5.079749       138.2270 
 324   0.0000       5.086823       138.4195 
 325   0.0000       5.285851       143.8353 
 326   0.0000       5.288901       143.9183 
 327   0.0000       5.431033       147.7859 
 328   0.0000       5.457218       148.4985 
 329   0.0000       5.459370       148.5570 
 330   0.0000       5.474713       148.9745 
 331   0.0000       5.477313       149.0453 
 332   0.0000       5.501450       149.7021 
 333   0.0000       5.664388       154.1358 
 334   0.0000       5.725885       155.8092 
 335   0.0000       5.726972       155.8388 
 336   0.0000       7.443782       202.5556 
 337   0.0000       7.443984       202.5611 
 338   0.0000       7.445824       202.6112 
 339   0.0000       7.472578       203.3392 
 340   0.0000       7.491229       203.8467 
 341   0.0000       7.491511       203.8544 
 342   0.0000       7.529747       204.8948 
 343   0.0000       7.531198       204.9343 
 344   0.0000       7.534047       205.0118 
 345   0.0000       7.562543       205.7873 
 346   0.0000       7.564284       205.8346 
 347   0.0000       7.564418       205.8383 
 348   0.0000       7.599353       206.7889 
 349   0.0000       7.653286       208.2565 
 350   0.0000       7.662389       208.5042 
 351   0.0000       7.669817       208.7063 
 352   0.0000       7.685763       209.1403 
 353   0.0000       7.687695       209.1928 
 354   0.0000       7.704434       209.6483 
 355   0.0000       7.731981       210.3979 
 356   0.0000       7.732415       210.4097 
 357   0.0000       7.753517       210.9839 
 358   0.0000       7.763369       211.2520 
 359   0.0000       7.769946       211.4310 
 360   0.0000       7.770461       211.4450 
 361   0.0000       7.791357       212.0136 
 362   0.0000       7.800267       212.2561 
 363   0.0000       7.870520       214.1677 
 364   0.0000       7.892572       214.7678 
 365   0.0000       7.893804       214.8013 
 366   0.0000       7.916938       215.4308 
 367   0.0000       7.924251       215.6298 
 368   0.0000       7.926198       215.6828 
 369   0.0000       7.931009       215.8137 
 370   0.0000       7.931917       215.8384 
 371   0.0000       7.941786       216.1070 
 372   0.0000       8.012791       218.0391 
 373   0.0000       8.018971       218.2073 
 374   0.0000       8.040857       218.8028 
 375   0.0000       8.044369       218.8984 
 376   0.0000       8.088266       220.0929 
 377   0.0000       8.102670       220.4849 
 378   0.0000       8.132540       221.2977 
 379   0.0000       8.140936       221.5261 
 380   0.0000       8.169205       222.2954 
 381   0.0000       8.487741       230.9632 
 382   0.0000       8.522995       231.9225 
 383   0.0000       8.529301       232.0941 
 384   0.0000       8.530242       232.1197 
 385   0.0000       8.585000       233.6097 
 386   0.0000       8.590595       233.7620 
 387   0.0000       8.674486       236.0448 
 388   0.0000       8.678050       236.1417 
 389   0.0000       8.796621       239.3682 
 390   0.0000       8.939132       243.2462 
 391   0.0000       8.973403       244.1787 
 392   0.0000       8.978267       244.3111 
 393   0.0000       9.091777       247.3998 
 394   0.0000       9.092149       247.4100 
 395   0.0000       9.108240       247.8478 
 396   0.0000       9.109482       247.8816 
 397   0.0000       9.120011       248.1681 
 398   0.0000       9.135602       248.5924 
 399   0.0000       9.141427       248.7509 
 400   0.0000       9.144341       248.8302 
 401   0.0000       9.144588       248.8369 
 402   0.0000       9.146038       248.8764 
 403   0.0000       9.146638       248.8927 
 404   0.0000       9.147464       248.9152 
 405   0.0000       9.149556       248.9721 
 406   0.0000       9.154742       249.1132 
 407   0.0000       9.154963       249.1192 
 408   0.0000       9.160120       249.2595 
 409   0.0000       9.160672       249.2746 
 410   0.0000       9.165390       249.4030 
 411   0.0000       9.215079       250.7550 
 412   0.0000       9.221522       250.9304 
 413   0.0000       9.222026       250.9441 
 414   0.0000       9.222117       250.9466 
 415   0.0000       9.228868       251.1303 
 416   0.0000       9.230125       251.1645 
 417   0.0000       9.247518       251.6378 
 418   0.0000       9.254997       251.8413 
 419   0.0000       9.255494       251.8548 
 420   0.0000       9.289705       252.7857 
 421   0.0000       9.293965       252.9017 
 422   0.0000       9.300262       253.0730 
 423   0.0000       9.398293       255.7405 
 424   0.0000       9.407427       255.9891 
 425   0.0000       9.416304       256.2307 
 426   0.0000       9.419159       256.3084 
 427   0.0000       9.430581       256.6191 
 428   0.0000       9.439742       256.8684 
 429   0.0000       9.466354       257.5926 
 430   0.0000       9.481014       257.9915 
 431   0.0000       9.501661       258.5533 
 432   0.0000       9.595488       261.1065 
 433   0.0000       9.624221       261.8884 
 434   0.0000       9.625323       261.9183 
 435   0.0000       9.654466       262.7114 
 436   0.0000       9.656194       262.7584 
 437   0.0000       9.663215       262.9494 
 438   0.0000       9.716197       264.3912 
 439   0.0000       9.732603       264.8376 
 440   0.0000       9.739628       265.0288 
 441   0.0000       9.744595       265.1639 
 442   0.0000       9.760180       265.5880 
 443   0.0000       9.762881       265.6615 
 444   0.0000       9.793782       266.5024 
 445   0.0000       9.845958       267.9221 
 446   0.0000       9.847458       267.9630 
 447   0.0000       9.869290       268.5570 
 448   0.0000       9.876350       268.7492 
 449   0.0000       9.877432       268.7786 
 450   0.0000       9.896283       269.2916 
 451   0.0000       9.904348       269.5110 
 452   0.0000       9.921677       269.9825 
 453   0.0000      12.206403       332.1531 
 454   0.0000      12.333119       335.6012 
 455   0.0000      12.339325       335.7701 
 456   0.0000      13.403876       364.7380 
 457   0.0000      13.405490       364.7819 
 458   0.0000      13.409281       364.8851 
 459   0.0000      13.438305       365.6749 
 460   0.0000      13.441632       365.7654 
 461   0.0000      13.517777       367.8374 
 462   0.0000      13.826987       376.2514 
 463   0.0000      13.844737       376.7345 
 464   0.0000      13.848032       376.8241 
 465   0.0000      13.860783       377.1711 
 466   0.0000      13.869759       377.4153 
 467   0.0000      13.874469       377.5435 
 468   0.0000      13.882705       377.7676 
 469   0.0000      13.924460       378.9038 
 470   0.0000      13.926088       378.9481 
 471   0.0000      19.050990       518.4038 
 472   0.0000      19.052813       518.4534 
 473   0.0000      19.062019       518.7039 
 474   0.0000      19.072730       518.9954 
 475   0.0000      19.098394       519.6937 
 476   0.0000      19.120868       520.3053 
 477   0.0000      19.121527       520.3232 
 478   0.0000      19.126247       520.4516 
 479   0.0000      19.141268       520.8604 
 480   0.0000      19.142612       520.8969 
 481   0.0000      19.146093       520.9917 
 482   0.0000      19.154459       521.2193 
 483   0.0000      19.155328       521.2430 
 484   0.0000      19.160139       521.3739 
 485   0.0000      19.170111       521.6452 
 486   0.0000      19.182204       521.9743 
 487   0.0000      19.296225       525.0770 
 488   0.0000      19.297935       525.1235 
 489   0.0000      19.492497       530.4178 
 490   0.0000      19.496578       530.5289 
 491   0.0000      19.508510       530.8535 
 492   0.0000      19.531858       531.4889 
 493   0.0000      19.555258       532.1256 
 494   0.0000      19.557866       532.1966 
 495   0.0000      19.584940       532.9333 
 496   0.0000      19.675704       535.4031 
 497   0.0000      19.681122       535.5505 
-------
TIMINGS
-------

Total SCF time: 0 days 0 hours 4 min 24 sec 

Total time                  ....     264.862 sec
Sum of individual times     ....     262.429 sec  ( 99.1%)

Fock matrix formation       ....     249.648 sec  ( 94.3%)
  Split-RI-J                ....     137.121 sec  ( 54.9% of F)
  XC integration            ....     112.142 sec  ( 44.9% of F)
    Basis function eval.    ....      30.008 sec  ( 26.8% of XC)
    Density eval.           ....      37.204 sec  ( 33.2% of XC)
    XC-Functional eval.     ....       3.125 sec  (  2.8% of XC)
    XC-Potential eval.      ....      39.111 sec  ( 34.9% of XC)
Diagonalization             ....       1.400 sec  (  0.5%)
Density matrix formation    ....       0.056 sec  (  0.0%)
Population analysis         ....       0.000 sec  (  0.0%)
Initial guess               ....       3.041 sec  (  1.1%)
Orbital Transformation      ....       0.000 sec  (  0.0%)
Orbital Orthonormalization  ....       0.000 sec  (  0.0%)
DIIS solution               ....       0.455 sec  (  0.2%)
SOSCF solution              ....       0.934 sec  (  0.4%)
Grid generation             ....       6.895 sec  (  2.6%)

Maximum memory used throughout the entire SCF-calculation: 391.5 MB


-------------------------------------------------------------------------------
                          DFT DISPERSION CORRECTION                            
                                                                               
                              DFTD3 V3.1  Rev 1                                
                          USING Becke-Johnson damping                          
-------------------------------------------------------------------------------
The PBE functional is recognized
Active option DFTDOPT                   ...         4   

molecular C6(AA) [au] = 2779.987683 


            DFT-D V3
 parameters
 s6 scaling factor         :     1.0000 
 a1 scaling factor         :     0.4289 
 s8 scaling factor         :     0.7875 
 a2 scaling factor         :     4.4407 
 ad hoc parameters k1-k3   :    16.0000     1.3333    -4.0000 

 Edisp/kcal,au: -5.392263639997  -0.008593118172 
 E6   /kcal   :  -3.388515777 
 E8   /kcal   :  -2.003747863 
 % E8         :  37.159679061 

-------------------------   ----------------
Dispersion correction           -0.008593118
-------------------------   ----------------


-------------------------   --------------------
FINAL SINGLE POINT ENERGY      -732.269250959824
-------------------------   --------------------

------------------------------------------------------------------------------
                         ORCA SCF GRADIENT CALCULATION
------------------------------------------------------------------------------

Gradient of the Kohn-Sham DFT energy:
Kohn-Sham wavefunction type      ... RKS
Hartree-Fock exchange scaling    ...    0.000
Number of operators              ...    1
Number of atoms                  ...   12
Basis set dimensions             ...  498
Integral neglect threshold       ... 2.5e-11
Integral primitive cutoff        ... 2.5e-12
SHARK Integral package           ... ON

Nuc. rep. gradient       (SHARK) ... done (  0.0 sec)
HCore & Overlap gradient (SHARK) ... done (  2.1 sec)
RI-J gradient            (SHARK) ... done ( 51.9 sec)
Exchange-correlation gradient    ... done
Dispersion correction            ... done

------------------
CARTESIAN GRADIENT
------------------

   1   Al  :    0.000813606   -0.000740862   -0.025416799
   2   H   :   -0.004741401   -0.003281873    0.003408467
   3   H   :    0.002699640   -0.002352807    0.008786261
   4   H   :   -0.003195860    0.002805890    0.008845704
   5   Al  :   -0.013744899   -0.017302811    0.012690245
   6   H   :   -0.001046373    0.001055542   -0.006517038
   7   H   :    0.007694922    0.003327528   -0.004426566
   8   H   :    0.003591377    0.004506864    0.003317352
   9   Al  :    0.018799095    0.012092084    0.012254597
  10   H   :   -0.003715246   -0.007189038   -0.004629587
  11   H   :    0.001853621    0.008552072   -0.004366055
  12   H   :   -0.009008482   -0.001472589   -0.003946582

Difference to translation invariance:
           :    0.0000000000    0.0000000000   -0.0000000000

Difference to rotation invariance:
           :    0.0000023446   -0.0000018427    0.0000011415

Norm of the cartesian gradient     ...    0.0513597703
RMS gradient                       ...    0.0085599617
MAX gradient                       ...    0.0254167987

-------
TIMINGS
-------

Total SCF gradient time            ...      113.376 sec

One electron gradient       ....       2.117 sec  (  1.9%)
RI-J Coulomb gradient       ....      51.906 sec  ( 45.8%)
XC gradient                 ....      57.734 sec  ( 50.9%)

Maximum memory used throughout the entire SCFGRAD-calculation: 368.2 MB
------------------------------------------------------------------------------
                         ORCA GEOMETRY RELAXATION STEP
------------------------------------------------------------------------------

Reading the OPT-File                    .... done
Getting information on internals        .... done
Copying old internal coords+grads       .... done
Making the new internal coordinates     .... (new redundants).... done
Validating the new internal coordinates .... (new redundants).... done
Calculating the B-matrix                .... done
Calculating the G,G- and P matrices     .... done
Transforming gradient to internals      .... done
Projecting the internal gradient        .... done
Number of atoms                         ....  12
Number of internal coordinates          .... 156
Current Energy                          ....  -732.269250960 Eh
Current gradient norm                   ....     0.051359770 Eh/bohr
Maximum allowed component of the step   ....  0.300
Current trust radius                    ....  0.300
Evaluating the initial hessian          ....  (Almloef) done
Projecting the Hessian                  .... done
Forming the augmented Hessian           .... done
Diagonalizing the augmented Hessian     .... done
Last element of RFO vector              ....  0.983700249
Lowest eigenvalues of augmented Hessian:
 -0.004219189  0.007733980  0.007810268  0.009313081  0.050912295
Length of the computed step             ....  0.182795596
The final length of the internal step   ....  0.182795596
Converting the step to cartesian space:
 Initial RMS(Int)=    0.0146353606
Transforming coordinates:
 Iter   0:  RMS(Cart)=    0.0229981372 RMS(Int)=    0.0146120555
 Iter   1:  RMS(Cart)=    0.0002997311 RMS(Int)=    0.0001568120
 Iter   2:  RMS(Cart)=    0.0000053595 RMS(Int)=    0.0000027552
 Iter   3:  RMS(Cart)=    0.0000001319 RMS(Int)=    0.0000000660
 Iter   4:  RMS(Cart)=    0.0000000025 RMS(Int)=    0.0000000012
done
Storing new coordinates                 .... done

                                .--------------------.
          ----------------------|Geometry convergence|-------------------------
          Item                value                   Tolerance       Converged
          ---------------------------------------------------------------------
          RMS gradient        0.0019799713            0.0000300000      NO
          MAX gradient        0.0057128657            0.0001000000      NO
          RMS step            0.0146353606            0.0006000000      NO
          MAX step            0.0419193555            0.0010000000      NO
          ........................................................
          Max(Bonds)      0.0097      Max(Angles)    2.40
          Max(Dihed)        1.76      Max(Improp)    0.00
          ---------------------------------------------------------------------

The optimization has not yet converged - more geometry cycles are needed


    ---------------------------------------------------------------------------
                         Redundant Internal Coordinates
                            (Angstroem and degrees)

        Definition                    Value    dE/dq     Step     New-Value
    ----------------------------------------------------------------------------
     1. B(H   1,Al  0)                1.7029  0.000902 -0.0002    1.7027   
     2. B(H   2,Al  0)                1.5965  0.001990 -0.0027    1.5939   
     3. B(H   3,Al  0)                1.5962  0.001768 -0.0024    1.5938   
     4. B(Al  4,Al  0)                3.0827 -0.002193  0.0097    3.0924   
     5. B(H   5,Al  4)                1.7026  0.000935 -0.0001    1.7024   
     6. B(H   6,Al  4)                1.5960  0.001881 -0.0025    1.5935   
     7. B(H   7,Al  0)                1.7027  0.001061 -0.0002    1.7025   
     8. B(H   7,Al  4)                1.7027  0.001064 -0.0002    1.7025   
     9. B(Al  8,H   5)                1.7025  0.000993 -0.0002    1.7022   
    10. B(Al  8,Al  4)                3.0696 -0.002193  0.0094    3.0790   
    11. B(Al  8,H   1)                1.7029  0.000996 -0.0003    1.7026   
    12. B(Al  8,Al  0)                3.0696 -0.002123  0.0091    3.0787   
    13. B(H   9,Al  8)                1.5963  0.001821 -0.0024    1.5938   
    14. B(H  10,Al  4)                1.5966  0.001842 -0.0025    1.5941   
    15. B(H  11,Al  8)                1.5965  0.001940 -0.0026    1.5939   
    16. A(H   3,Al  0,H   7)          109.16  0.000599   -0.41    108.74   
    17. A(H   1,Al  0,Al  8)           25.67  0.001382   -0.37     25.30   
    18. A(H   3,Al  0,Al  4)          120.37  0.002329   -1.05    119.32   
    19. A(H   2,Al  0,H   3)          109.69 -0.005713    2.39    112.08   
    20. A(H   2,Al  0,Al  4)          119.44  0.002331   -0.90    118.54   
    21. A(H   7,Al  0,Al  8)           84.95  0.001494   -0.40     84.54   
    22. A(H   1,Al  0,Al  4)           85.01  0.001373   -0.42     84.58   
    23. A(H   1,Al  0,H   3)          109.28  0.000710   -0.53    108.75   
    24. A(Al  4,Al  0,H   7)           25.14  0.001506   -0.40     24.74   
    25. A(H   1,Al  0,H   7)          110.15  0.002877   -0.82    109.32   
    26. A(H   2,Al  0,Al  8)          115.30  0.002298   -1.02    114.28   
    27. A(Al  4,Al  0,Al  8)           59.86 -0.000008    0.00     59.86   
    28. A(H   2,Al  0,H   7)          109.26  0.000713   -0.36    108.90   
    29. A(H   3,Al  0,Al  8)          124.64  0.002388   -0.94    123.70   
    30. A(H   1,Al  0,H   2)          109.29  0.000766   -0.25    109.04   
    31. A(Al  0,H   1,Al  8)          128.65 -0.002750    0.74    129.40   
    32. A(H   5,Al  4,H   7)          110.29  0.002934   -0.82    109.47   
    33. A(H   7,Al  4,Al  8)           84.95  0.001514   -0.41     84.53   
    34. A(Al  0,Al  4,H   5)           85.14  0.001429   -0.42     84.72   
    35. A(H   6,Al  4,Al  8)          116.34  0.002267   -1.02    115.32   
    36. A(H   5,Al  4,Al  8)           25.64  0.001416   -0.38     25.27   
    37. A(Al  0,Al  4,Al  8)           59.86  0.000013   -0.01     59.85   
    38. A(H   7,Al  4,H  10)          109.20  0.000648   -0.41    108.78   
    39. A(H   6,Al  4,H  10)          109.72 -0.005706    2.39    112.10   
    40. A(H   5,Al  4,H  10)          109.12  0.000706   -0.50    108.62   
    41. A(Al  0,Al  4,H  10)          119.96  0.002361   -1.04    118.93   
    42. A(H   5,Al  4,H   6)          109.31  0.000699   -0.27    109.04   
[...]
     20       0.243036   0.257448  -0.307036  -0.372244  -0.416102   0.122068
     21      -0.010870  -0.004496   0.002006   0.020388   0.326656  -0.036559
     22      -0.034954  -0.001463   0.004811   0.021750   0.283399  -0.028051
     23      -0.015420   0.014933  -0.003502  -0.038473   0.250457  -0.010686
     24       0.032598  -0.007665  -0.002277   0.014259   0.013804   0.004089
     25      -0.053480   0.015345   0.000027   0.017908   0.001157   0.007066
     26      -0.013374   0.000222   0.004155  -0.039341   0.004819  -0.016527
     27       0.289789  -0.170506  -0.121791  -0.142066   0.008028  -0.084773
     28       0.200030  -0.172592  -0.149944  -0.181091   0.001088  -0.106637
     29       0.303743   0.185210   0.307085   0.399852   0.015390   0.231693
     30      -0.048250   0.136177  -0.015881   0.013842  -0.059686   0.067349
     31      -0.228134   0.236440   0.122945  -0.114454  -0.251755   0.373581
     32      -0.164237  -0.314355   0.313462  -0.311402  -0.142170   0.332826
     33      -0.430692   0.258435   0.212645  -0.100829   0.004189  -0.132567
     34       0.094009   0.159211   0.250576  -0.128693  -0.009453  -0.167705
     35      -0.275434  -0.333885  -0.550630   0.284173   0.031205   0.368823
                 18         19         20         21         22         23    
      0       0.009006  -0.001858  -0.000432   0.016732   0.024090  -0.005827
      1       0.005844  -0.003171   0.003734   0.010611   0.018940   0.001079
      2       0.017287   0.032101  -0.025587   0.004390   0.005473   0.018632
      3      -0.027295   0.125089   0.150397  -0.411936  -0.174925   0.548005
      4      -0.013774   0.008062  -0.008191   0.070455   0.008553  -0.052305
      5       0.004267  -0.066993  -0.060232   0.158411   0.069731  -0.212010
      6      -0.172410  -0.210327   0.213392  -0.205620  -0.133293   0.014224
      7       0.000247   0.132279  -0.058901  -0.201305  -0.174092   0.160361
      8      -0.255501  -0.371824   0.327704  -0.191587  -0.108241  -0.047531
      9       0.042024   0.156613  -0.177693  -0.004335  -0.148049   0.002228
     10      -0.113551  -0.066022  -0.057430  -0.082154  -0.309029  -0.180848
     11      -0.204003  -0.476809   0.396418  -0.033774   0.138739  -0.173761
     12       0.015098  -0.018026  -0.015788  -0.011780   0.018688   0.006020
     13       0.012620  -0.020311  -0.013980  -0.003595   0.010905   0.015414
     14       0.001068   0.018815   0.014376  -0.012165   0.024338  -0.010358
     15      -0.019457  -0.060161   0.099032   0.268941  -0.131329   0.336716
     16       0.003761   0.070754  -0.094870  -0.269962   0.125012  -0.322128
     17      -0.029893  -0.099763   0.109566   0.243432  -0.139195   0.338577
     18      -0.268752   0.421683   0.365216   0.204877  -0.141520  -0.062735
     19      -0.120402   0.105295   0.120458   0.194857  -0.174394   0.065977
     20       0.023908  -0.153123  -0.077060   0.143270  -0.153465   0.129950
     21      -0.125581   0.001940  -0.189925  -0.020239  -0.575749  -0.268113
     22      -0.050523   0.004298  -0.013148  -0.000860  -0.122754  -0.003592
     23      -0.069454  -0.011075  -0.076676  -0.015980  -0.268319  -0.101487
     24       0.033282  -0.003790   0.013432   0.009594  -0.006716  -0.027226
     25       0.010173  -0.004353   0.011302   0.013459  -0.007117   0.006052
     26       0.016688   0.009075   0.009488  -0.029761  -0.004107  -0.005630
     27      -0.361776   0.044177  -0.238561  -0.165161   0.158053  -0.007458
     28      -0.360171   0.055196  -0.232973  -0.211616   0.158809   0.015758
     29      -0.294758  -0.110158  -0.183292   0.487588   0.100603  -0.006660
     30      -0.051968   0.135448   0.096092  -0.000308   0.034228  -0.055766
     31      -0.213724   0.418519   0.262504   0.045999  -0.088719  -0.253936
     32       0.037902  -0.278484  -0.328420   0.009629  -0.357929  -0.045244
     33      -0.550879   0.019259  -0.243351  -0.055610   0.147260   0.216541
     34       0.101594   0.016699   0.054295  -0.093476  -0.031758  -0.032792
     35      -0.150504  -0.037591  -0.061897   0.203763   0.030024   0.047406
                 24         25         26         27         28         29    
      0      -0.000664   0.005120  -0.003765   0.005224   0.004368   0.000960
      1      -0.032326   0.017161  -0.011816   0.009810   0.007423   0.006628
      2       0.009855   0.006991  -0.008104   0.003341   0.010618  -0.018409
      3      -0.060874   0.057903   0.005340  -0.250953  -0.247983   0.102490
      4       0.161776  -0.638417   0.655598  -0.190408  -0.204816   0.095505
      5      -0.025626   0.192888  -0.229262  -0.569825  -0.597467   0.226825
      6       0.006281  -0.014275  -0.003748   0.019537   0.058167  -0.111191
      7       0.129055  -0.014473   0.012331   0.047944  -0.004963   0.071429
      8      -0.063243  -0.000013  -0.022909  -0.002248  -0.027848   0.047356
      9      -0.000978  -0.005903   0.017146  -0.013673  -0.050429   0.117834
     10       0.029260  -0.060911   0.048698   0.061498   0.043528  -0.031453
     11       0.064409  -0.020267  -0.003051  -0.001886  -0.003540   0.024851
     12       0.012891  -0.004498  -0.004669  -0.003367   0.007511   0.011433
     13      -0.015745  -0.015866  -0.011390  -0.007251   0.011151   0.008189
     14      -0.027104  -0.011827  -0.005592  -0.007786   0.002988  -0.013961
     15      -0.097163  -0.306649  -0.243475   0.449333  -0.489665  -0.197750
     16       0.105292   0.332290   0.262855   0.432516  -0.493115  -0.206696
     17       0.098743   0.558835   0.534415  -0.015406   0.023741  -0.007558
     18      -0.061134   0.007796  -0.017461  -0.002462   0.030082   0.079710
     19       0.047440   0.008622  -0.003860  -0.027295  -0.033709  -0.113498
     20       0.123423   0.021440   0.017809  -0.043893   0.043726   0.038284
     21      -0.363000  -0.007739  -0.001879  -0.131378   0.002377  -0.282388
     22       0.831286  -0.017870  -0.268192  -0.157664   0.014503  -0.340865
     23       0.237589   0.011306  -0.121912   0.353405  -0.016895   0.760296
     24       0.009069   0.010566   0.017593  -0.004149   0.017781   0.002685
     25      -0.003924   0.012787  -0.005982  -0.005513   0.007065   0.003188
     26       0.001394  -0.028478   0.004722   0.012676   0.009339  -0.006626
     27       0.035522   0.015336   0.055057  -0.013794  -0.079501  -0.000223
     28       0.014075   0.018480   0.037181  -0.015426   0.089704   0.001871
     29       0.020404  -0.037463   0.041110   0.036102   0.010900  -0.001491
     30       0.029176   0.000552  -0.000189   0.024795  -0.050971  -0.116739
     31       0.062767   0.052331   0.022185  -0.043465   0.041901   0.038575
     32      -0.015579   0.038754   0.042323  -0.034723   0.005490  -0.031437
     33      -0.057871  -0.046493  -0.055953  -0.020057   0.033980   0.004658
     34       0.010854  -0.057025   0.014500  -0.028632  -0.139330   0.003167
     35      -0.015704   0.126275  -0.018319   0.058140  -0.052294  -0.013288
                 30         31         32         33         34         35    
      0       0.004465   0.000782   0.008130  -0.010574  -0.028692  -0.029175
      1       0.000466  -0.001319  -0.000904   0.004580   0.011790   0.011047
      2       0.001971   0.013986   0.010772   0.002198   0.005744   0.003663
      3      -0.049863   0.032953   0.039844  -0.016838  -0.002959  -0.003515
      4      -0.038610   0.027008   0.030733  -0.019761   0.004641   0.003091
      5      -0.111980   0.074386   0.093973  -0.042895   0.005107   0.003872
      6      -0.030988   0.369133   0.316955   0.139069   0.452529   0.374261
      7       0.012858  -0.148245  -0.123724  -0.054291  -0.178622  -0.150188
      8       0.022549  -0.248863  -0.213122  -0.098494  -0.313634  -0.257067
      9      -0.068444  -0.407459  -0.537310   0.159709   0.333658   0.413298
     10       0.025520   0.144683   0.192481  -0.054794  -0.118611  -0.148021
     11      -0.026233  -0.149479  -0.199078   0.061034   0.130569   0.156138
     12       0.004546   0.010524  -0.011474  -0.008119   0.023046  -0.022627
     13       0.000587   0.008537  -0.003135   0.007491  -0.020516   0.017193
     14       0.001789  -0.007318   0.000370  -0.003812   0.011106  -0.009983
     15      -0.092578   0.071839  -0.069427  -0.032317  -0.000174  -0.000577
     16      -0.090062   0.071312  -0.067759  -0.038382  -0.008557   0.006385
     17       0.002238  -0.001190   0.003815  -0.001262   0.001147  -0.001736
     18      -0.012106   0.203017  -0.131831   0.066680  -0.228992   0.176104
     19       0.027116  -0.404355   0.261106  -0.140414   0.471205  -0.358884
     20      -0.015988   0.247086  -0.163019   0.087853  -0.291572   0.219304
     21       0.000728   0.006179  -0.071243  -0.006544  -0.023682  -0.005831
     22      -0.004437   0.008918  -0.085814   0.002520  -0.028848   0.003401
     23      -0.003885  -0.011488   0.192071  -0.001057   0.063994   0.000106
     24      -0.019477  -0.001774   0.000779   0.011579   0.000140  -0.007296
     25       0.004972  -0.001479   0.001169  -0.038135  -0.000188   0.015519
     26      -0.004676  -0.001033  -0.002820  -0.013169  -0.000224   0.004455
     27       0.594231  -0.014952   0.001586  -0.329679  -0.001820   0.205140
     28      -0.577147   0.019139  -0.002161   0.309178   0.002578  -0.196170
     29      -0.050398   0.003329   0.001258   0.022815  -0.001050  -0.016065
     30      -0.078703  -0.514679   0.519405   0.172055  -0.381296   0.433430
     31       0.019853   0.130192  -0.131077  -0.040424   0.090019  -0.107106
     32      -0.008195  -0.063403   0.062132   0.021337  -0.042351   0.050434
     33       0.017893  -0.001189   0.000678   0.038294   0.000125  -0.010374
     34       0.463610  -0.002277   0.003067   0.734060   0.004820  -0.223834
     35       0.216410  -0.001214  -0.000797   0.346373   0.002745  -0.105057


-----------
IR SPECTRUM
-----------

 Mode   freq       eps      Int      T**2         TX        TY        TZ
       cm**-1   L/(mol*cm) km/mol    a.u.
----------------------------------------------------------------------------
  6:     48.56   0.000295    1.49  0.001893  ( 0.010857  0.022812 -0.035429)
  7:    104.88   0.000361    1.82  0.001073  ( 0.012255 -0.028216 -0.011248)
  8:    149.50   0.000088    0.45  0.000185  ( 0.006442  0.009522  0.007247)
  9:    226.40   0.000375    1.90  0.000518  ( 0.006784  0.008099 -0.020147)
 10:    285.20   0.002101   10.62  0.002299  ( 0.001951  0.043639  0.019775)
 11:    325.60   0.000398    2.01  0.000382  (-0.003535  0.017831  0.007159)
 12:    414.26   0.000677    3.42  0.000510  (-0.010018 -0.019043 -0.006843)
 13:    417.04   0.000421    2.13  0.000315  (-0.002971 -0.003461  0.017153)
 14:    429.86   0.001138    5.75  0.000826  (-0.008537 -0.010457  0.025380)
 15:    486.24   0.000084    0.42  0.000054  (-0.002740 -0.002336  0.006387)
 16:    515.24   0.014902   75.31  0.009025  (-0.015919  0.089272  0.028330)
 17:    543.59   0.012625   63.80  0.007248  ( 0.027269  0.025027 -0.076668)
 18:    674.08   0.123036  621.77  0.056959  ( 0.179181  0.105505  0.117138)
 19:    675.96   0.118723  599.98  0.054809  (-0.078530 -0.092560  0.200188)
 20:    709.04   0.000166    0.84  0.000073  (-0.005477 -0.002269 -0.006170)
 21:    722.80   0.024300  122.80  0.010491  ( 0.033273  0.046381 -0.085048)
 22:    729.67   0.032215  162.80  0.013777  ( 0.077327  0.063113  0.061763)
 23:    752.26   0.010489   53.01  0.004351  (-0.050055  0.042423  0.006793)
 24:    998.08   0.033644  170.02  0.010519  ( 0.023730 -0.093651 -0.034434)
 25:   1073.72   0.026203  132.42  0.007616  ( 0.026208  0.032626 -0.076578)
 26:   1105.80   0.010251   51.80  0.002893  ( 0.013982 -0.049711 -0.015037)
 27:   1708.54   0.008136   41.11  0.001486  (-0.010260 -0.012873  0.034857)
 28:   1763.65   0.173942  879.03  0.030778  ( 0.112408  0.101239  0.088841)
 29:   1784.08   0.192902  974.85  0.033742  ( 0.060700  0.072618 -0.157429)
 30:   1902.27   0.001385    7.00  0.000227  (-0.012573  0.008296 -0.000596)
 31:   1906.92   0.002530   12.79  0.000414  ( 0.015341  0.009187  0.009708)
 32:   1908.00   0.000419    2.12  0.000069  (-0.001816 -0.002045  0.007816)
 33:   1917.16   0.012712   64.24  0.002069  (-0.011470 -0.038063 -0.022110)
 34:   1919.16   0.004655   23.53  0.000757  (-0.007589 -0.012644  0.023228)
 35:   1925.34   0.073193  369.89  0.011863  (-0.087476  0.064836 -0.002741)

* The epsilon (eps) is given for a Dirac delta lineshape.
** The dipole moment derivative (T) already includes vibrational overlap.

The first frequency considered to be a vibration is 6
The total number of vibrations considered is 30


--------------------------
THERMOCHEMISTRY AT 298.15K
--------------------------

Temperature         ... 298.15 K
Pressure            ... 1.00 atm
Total Mass          ... 90.02 AMU

Throughout the following assumptions are being made:
  (1) The electronic state is orbitally nondegenerate
  (2) There are no thermally accessible electronically excited states
  (3) Hindered rotations indicated by low frequency modes are not
      treated as such but are treated as vibrations and this may
      cause some error
  (4) All equations used are the standard statistical mechanics
      equations for an ideal gas
  (5) All vibrations are strictly harmonic

freq.      48.56  E(vib)   ...       0.53 
freq.     104.88  E(vib)   ...       0.46 
freq.     149.50  E(vib)   ...       0.40 
freq.     226.40  E(vib)   ...       0.33 
freq.     285.20  E(vib)   ...       0.28 
freq.     325.60  E(vib)   ...       0.24 
freq.     414.26  E(vib)   ...       0.19 
freq.     417.04  E(vib)   ...       0.18 
freq.     429.86  E(vib)   ...       0.18 
freq.     486.24  E(vib)   ...       0.15 
freq.     515.24  E(vib)   ...       0.13 
freq.     543.59  E(vib)   ...       0.12 
freq.     674.08  E(vib)   ...       0.08 
freq.     675.96  E(vib)   ...       0.08 
freq.     709.04  E(vib)   ...       0.07 
freq.     722.80  E(vib)   ...       0.07 
freq.     729.67  E(vib)   ...       0.06 
freq.     752.26  E(vib)   ...       0.06 
freq.     998.08  E(vib)   ...       0.02 
freq.    1073.72  E(vib)   ...       0.02 
freq.    1105.80  E(vib)   ...       0.02 
freq.    1708.54  E(vib)   ...       0.00 
freq.    1763.65  E(vib)   ...       0.00 
freq.    1784.08  E(vib)   ...       0.00 
freq.    1902.27  E(vib)   ...       0.00 
freq.    1906.92  E(vib)   ...       0.00 
freq.    1908.00  E(vib)   ...       0.00 
freq.    1917.16  E(vib)   ...       0.00 
freq.    1919.16  E(vib)   ...       0.00 
freq.    1925.34  E(vib)   ...       0.00 

------------
INNER ENERGY
------------

The inner energy is: U= E(el) + E(ZPE) + E(vib) + E(rot) + E(trans)
    E(el)   - is the total energy from the electronic structure calculation
              = E(kin-el) + E(nuc-el) + E(el-el) + E(nuc-nuc)
    E(ZPE)  - the the zero temperature vibrational energy from the frequency calculation
    E(vib)  - the the finite temperature correction to E(ZPE) due to population
              of excited vibrational states
    E(rot)  - is the rotational thermal energy
    E(trans)- is the translational thermal energy

Summary of contributions to the inner energy U:
Electronic energy                ...   -732.28821761 Eh
Zero point energy                ...      0.06406874 Eh      40.20 kcal/mol
Thermal vibrational correction   ...      0.00582112 Eh       3.65 kcal/mol
Thermal rotational correction    ...      0.00141627 Eh       0.89 kcal/mol
Thermal translational correction ...      0.00141627 Eh       0.89 kcal/mol
-----------------------------------------------------------------------
Total thermal energy                   -732.21549521 Eh


Summary of corrections to the electronic energy:
(perhaps to be used in another calculation)
Total thermal correction                  0.00865366 Eh       5.43 kcal/mol
Non-thermal (ZPE) correction              0.06406874 Eh      40.20 kcal/mol
-----------------------------------------------------------------------
Total correction                          0.07272241 Eh      45.63 kcal/mol


--------
ENTHALPY
--------

The enthalpy is H = U + kB*T
                kB is Boltzmann's constant
Total free energy                 ...   -732.21549521 Eh 
Thermal Enthalpy correction       ...      0.00094421 Eh       0.59 kcal/mol
-----------------------------------------------------------------------
Total Enthalpy                    ...   -732.21455100 Eh


Note: Only C1 symmetry has been detected, increase convergence thresholds 
      if your molecule has a higher symmetry. Symmetry factor of 1.0 is   
      used for the rotational entropy correction. 
 

Note: Rotational entropy computed according to Herzberg 
Infrared and Raman Spectra, Chapter V,1, Van Nostrand Reinhold, 1945 
Point Group:  C1, Symmetry Number:   1  
Rotational constants in cm-1:     0.108189     0.101352     0.056293 

Vibrational entropy computed according to the QRRHO of S. Grimme
Chem.Eur.J. 2012 18 9955


-------
ENTROPY
-------

The entropy contributions are T*S = T*(S(el)+S(vib)+S(rot)+S(trans))
     S(el)   - electronic entropy
     S(vib)  - vibrational entropy
     S(rot)  - rotational entropy
     S(trans)- translational entropy
The entropies will be listed as multiplied by the temperature to get
units of energy

Electronic entropy                ...      0.00000000 Eh      0.00 kcal/mol
Vibrational entropy               ...      0.00982312 Eh      6.16 kcal/mol
Rotational entropy                ...      0.01299966 Eh      8.16 kcal/mol
Translational entropy             ...      0.01872231 Eh     11.75 kcal/mol
-----------------------------------------------------------------------
Final entropy term                ...      0.04154509 Eh     26.07 kcal/mol

In case the symmetry of your molecule has not been determined correctly
or in case you have a reason to use a different symmetry number we print 
out the resulting rotational entropy values for sn=1,12 :
 --------------------------------------------------------
|  sn= 1 | S(rot)=       0.01299966 Eh      8.16 kcal/mol|
|  sn= 2 | S(rot)=       0.01234520 Eh      7.75 kcal/mol|
|  sn= 3 | S(rot)=       0.01196237 Eh      7.51 kcal/mol|
|  sn= 4 | S(rot)=       0.01169075 Eh      7.34 kcal/mol|
|  sn= 5 | S(rot)=       0.01148006 Eh      7.20 kcal/mol|
|  sn= 6 | S(rot)=       0.01130791 Eh      7.10 kcal/mol|
|  sn= 7 | S(rot)=       0.01116237 Eh      7.00 kcal/mol|
|  sn= 8 | S(rot)=       0.01103629 Eh      6.93 kcal/mol|
|  sn= 9 | S(rot)=       0.01092508 Eh      6.86 kcal/mol|
|  sn=10 | S(rot)=       0.01082560 Eh      6.79 kcal/mol|
|  sn=11 | S(rot)=       0.01073561 Eh      6.74 kcal/mol|
|  sn=12 | S(rot)=       0.01065346 Eh      6.69 kcal/mol|
 --------------------------------------------------------


-------------------
GIBBS FREE ENERGY
-------------------

The Gibbs free energy is G = H - T*S

Total enthalpy                    ...   -732.21455100 Eh 
Total entropy correction          ...     -0.04154509 Eh    -26.07 kcal/mol
-----------------------------------------------------------------------
Final Gibbs free energy         ...   -732.25609608 Eh

For completeness - the Gibbs free energy minus the electronic energy
G-E(el)                           ...      0.03212153 Eh     20.16 kcal/mol


Timings for individual modules:

Sum of individual times         ...    14512.353 sec (= 241.873 min)
GTO integral calculation        ...      284.013 sec (=   4.734 min)   2.0 %
SCF iterations                  ...     5836.785 sec (=  97.280 min)  40.2 %
SCF Gradient evaluation         ...     5101.971 sec (=  85.033 min)  35.2 %
Geometry relaxation             ...        7.085 sec (=   0.118 min)   0.0 %
Analytical frequency calculation...     3282.499 sec (=  54.708 min)  22.6 %
                             ****ORCA TERMINATED NORMALLY****
TOTAL RUN TIME: 0 days 4 hours 2 minutes 9 seconds 384 msec
