
                                 *****************
                                 * O   R   C   A *
                                 *****************

                                            #,                                       
                                            ###                                      
                                            ####                                     
                                            #####                                    
                                            ######                                   
                                           ########,                                 
                                     ,,################,,,,,                         
                               ,,#################################,,                 
                          ,,##########################################,,             
                       ,#########################################, ''#####,          
                    ,#############################################,,   '####,        
                  ,##################################################,,,,####,       
                ,###########''''           ''''###############################       
              ,#####''   ,,,,##########,,,,          '''####'''          '####       
            ,##' ,,,,###########################,,,                        '##       
           ' ,,###''''                  '''############,,,                           
         ,,##''                                '''############,,,,        ,,,,,,###''
      ,#''                                            '''#######################'''  
     '                                                          ''''####''''         
             ,#######,   #######,   ,#######,      ##                                
            ,#'     '#,  ##    ##  ,#'     '#,    #''#        ,####,    ,#,          
            ##       ##  ##   ,#'  ##            #'  '#       #'       ,# #          
            ##       ##  #######   ##           ,######,      #####,      #          
            '#,     ,#'  ##    ##  '#,     ,#' ,#      #,     #,   #      #          
             '#######'   ##     ##  '#######'  #'      '#     '####' #    #          



                #########################################################
                #                        -***-                          #
                #          Department of theory and spectroscopy        #
                #                                                       #
                #                      Frank Neese                      #
                #                                                       #
                #     Directorship, Architecture, Infrastructure        #
                #                    SHARK, DRIVERS                     #
                #        Core code/Algorithms in most modules           #
                #                                                       #
                #        Max Planck Institute fuer Kohlenforschung      #
                #                Kaiser Wilhelm Platz 1                 #
                #                 D-45470 Muelheim/Ruhr                 #
                #                      Germany                          #
                #                                                       #
                #                  All rights reserved                  #
                #                        -***-                          #
                #########################################################


                         Program Version 6.1.0  -  RELEASE   -
                                (GIT: $679e74b$)
                          ($2025-06-10 18:02:51 +0200$)


 With contributions from (in alphabetic order):
[Max-Planck-Institut fuer Kohlenforschung]                               
  Daniel Aravena         : Magnetic Suceptibility                        
  Michael Atanasov       : Ab Initio Ligand Field Theory (pilot matlab implementation)
  Alexander A. Auer      : GIAO ZORA, VPT2 properties, NMR spectrum      
  Ute Becker             : All parallelization in ORCA, NUMFREQ, NUMCALC 
  Giovanni Bistoni       : ED, misc. LED, open-shell LED, HFLD           
  Dmytro Bykov           : pre 5.0 version of the SCF Hessian            
  Marcos Casanova-Páez   : Triplet and SCS-CIS(D). UHF-(DLPNO)-IP/EA/STEOM-CCSD. UHF-CVS-IP/STEOM-CCSD   
  Vijay G. Chilkuri      : MRCI spin determinant printing, contributions to CSF-ICE 
  Pauline Colinet        : FMM embedding                                 
  Dipayan Datta          : RHF DLPNO-CCSD density                        
  Achintya Kumar Dutta   : EOM-CC, STEOM-CC                              
  Nicolas Foglia         : Exact transition moments, OPA infrastructure, MCD improvements    
  Dmitry Ganyushin       : Spin-Orbit,Spin-Spin,Magnetic field MRCI      
  Miquel Garcia-Rates    : C-PCM and meta-GGA Hessian, CCSD/C-PCM, Gaussian charge scheme 
  Tiago L. C. Gouveia    : GS-ROHF, GS-ROCIS                             
  Yang Guo               : DLPNO-NEVPT2, F12-NEVPT2, CIM, IAO-localization        
  Andreas Hansen         : Spin unrestricted coupled pair/coupled cluster methods 
  Ingolf Harden          : AUTO-CI MPn and infrastructure                
  Benjamin Helmich-Paris : MC-RPA, TRAH-(SCF,CASSCF), AVAS, COSX integrals, SCF dyn. polar., MC-PDFT, srDFT 
  Lee Huntington         : MR-EOM, pCC                                   
  Robert Izsak           : Overlap fitted RIJCOSX, COSX-SCS-MP3, EOM     
  Riya Kayal             : Wick's Theorem for AUTO-CI, AUTO-CI UHF-CCSDT 
  Emily Kempfer          : AUTO-CI RHF CISDT and CCSDT, approximate NEVPT4
  Christian Kollmar      : KDIIS, OOCD, Brueckner-CCSD(T), CCSD density, CASPT2, CASPT2-K, improved NEVPT2 
  Axel Koslowski         : Symmetry handling                             
  Simone Kossmann        : meta-GGA functionals, TD-DFT gradient, OOMP2, (MP2 Hessian; deprecated post 5.0) 
  Lucas Lang             : DCDCAS, Hyperfine gauge corrections, ICE-SOC+SSC
  Marvin Lechner         : AUTO-CI (C++ implementation), FIC-MRCC        
  Spencer Leger          : CASSCF response                               
  Dagmar Lenk            : GEPOL surface, SMD, ORCA-2-JSON               
  Dimitrios Liakos       : Extrapolation schemes; Compound Job, Property file
  Dimitrios Manganas     : Further ROCIS development; embedding schemes. LFT, Crystal Embedding 
  Dimitrios Pantazis     : SARC Basis sets                               
  Anastasios Papadopoulos: AUTO-CI, single reference methods and gradients 
  Taras Petrenko         : pre 6.0 DFT Hessian and TD-DFT gradient,  ECA, NRVS 
  Petra Pikulova         : Analytic Raman intensities                    
  Peter Pinski           : DLPNO-MP2, DLPNO-MP2 Gradient                 
  Shashank Vittal Rao    : ES-AILFT, MagRelax                            
  Christoph Reimann      : Effective Core Potentials                     
  Marius Retegan         : Local ZFS, SOC                                
  Christoph Riplinger    : Optimizer, TS searches, QM/MM, DLPNO-CCSD(T), (RO)-DLPNO pert. Triples 
  Michael Roemelt        : Original ROCIS implementation, recursive CI coupling coefficients
  Masaaki Saitow         : Open-shell DLPNO-CCSD energy and density      
  Barbara Sandhoefer     : DKH picture change effects                    
  Yorick L. A. Schmerwitz: GMF and freeze-and-release deltaSCF, NEB S-IDPP initial path                    
  Kantharuban Sivalingam : CASSCF convergence/infrastructure, NEVPT2, NEVPT3, NEVPT4(SD), FIC-MRCI and CEPA variants
  Bernardo de Souza      : ESD, SOC TD-DFT                               
  Georgi L. Stoychev     : AutoAux, RI-MP2 NMR, DLPNO-MP2 response, X2C  
  Van Anh Tran           : RI-MP2 g-tensors                              
  Willem Van den Heuvel  : Paramagnetic NMR                              
  Zikuan Wang            : NOTCH, Electric field optimization            
  Frank Wennmohs         : Technical directorship and infrastructure     
  Hang Xu                : AUTO-CI-Response properties                   
                                                                         
[FACCTs GmbH]                                                            
  Markus Bursch, Nicolas Foglia, Miquel Garcia-Rates, Ingolf Harden, Hagen Neugebauer, Anastasios Papadopoulos, 
  Christoph Riplinger, Bernardo de Souza, Georgi L. Stoychev                                                    
                                                                 
  APM, various basis sets, CI-OPT, improved COSX, DLPNO-Multilevel,           
  DOCKER, DRACO, updates on ESD, Fragmentator, GOAT, IRC, LR-CPCM, L-BFGS, MBIS, meta-GGA TD-DFT gradient, ML-optimized integration grids, 
  MM, NACMEs, nearIR, NEB, NEB-TS, NL-DFT gradient (VV10), 2- and 3-layer-ONIOM, interface openCOSMO-RS, QMMM,   
  Crystal-QMMM, RESP, rigid body optimization, SF, symmetry and pop. for TD-DFT, various functionals, SOLVATOR                                   
                                                                         
[Other institutions]                                                     
  V. Asgeirsson          : NEB                                           
  Christoph Bannwarth    : sTDA-DFT, sTD-DFT, PBEh-3c, B97-3c, D3        
  Giovanni Bistoni       : ETS/NOCV, ADLD/ADEX, COVALED                  
  Martin Brehm           : Molecular dynamics                            
  Ronald Cardenas        : ETS/NOCV                                      
  Martina Colucci        : COVALED                                       
  Sebastian Ehlert       : rSCAN, r2SCAN, r2SCAN-3c, D4, dhf basis sets  
  Marvin Friede          : D4 for Fr, Ra, Ac-Lr                          
  Lars Goerigk           : TD-DFT with DH, B97 family of functionals     
  Stefan Grimme          : VdW corrections, initial TS optimization, DFT functionals, gCP, sTDA/sTD-DF 
  Waldemar Hujo          : DFT-NL                                        
  H. Jonsson             : NEB                                           
  Holger Kruse           : gCP                                           
  Marcel Mueller         : wB97X-3c, vDZP basis set                      
  Hagen Neugebauer       : wr2SCAN, Native XTB                           
  Gianluca Regni         : ADLD/ADEX                                     
  Tobias Risthaus        : pre 6.0 range-separated hybrid DFT and stability analysis
  Lukas Wittmann         : regularized MP2, r2SCAN double-hybrids, wr2SCAN        
                                                                         
We gratefully acknowledge several colleagues who have allowed us to      
interface, adapt or use parts of their codes:                            
  Ed Valeev, F. Pavosevic, A. Kumar             : LibInt (2-el integral package), F12 methods 
  Garnet Chan, S. Sharma, J. Yang, R. Olivares  : DMRG                   
  Ulf Ekstrom                                   : XCFun DFT Library      
  Mihaly Kallay                                 : mrcc  (arbitrary order and MRCC methods)
  Frank Weinhold                                : gennbo (NPA and NBO analysis)           
  Simon Mueller                                 : openCOSMO-RS                            
  Christopher J. Cramer and Donald G. Truhlar   : smd solvation model                     
  S Lehtola, MJT Oliveira, MAL Marques          : LibXC Library                           
  Liviu Ungur et al                             : ANISO software                          


 Your calculation uses the libint2 library for the computation of 2-el integrals
 For citations please refer to: http://libint.valeyev.net

 Your ORCA version has been built with support for libXC version: 7.0.0
 For citations please refer to: https://libxc.gitlab.io

 This ORCA versions uses:
   CBLAS   interface :  Fast vector & matrix operations
   LAPACKE interface :  Fast linear algebra routines
   SCALAPACK package :  Parallel linear algebra routines
   Shared memory     :  Shared parallel matrices
   BLAS/LAPACK       :  OpenBLAS 0.3.29  USE64BITINT DYNAMIC_ARCH NO_AFFINITY Prescott SINGLE_THREADED
        Core in use  :  Prescott
   Copyright (c) 2011-2014, The OpenBLAS Project


  ***********************************
  * Starting time: Fri Aug  8 15:34:33 2025
  * Host name:     cuda8
  * Process ID:    93329
  * Working dir.:  /local/scratch/mehlhorn/61795
  ***********************************



***************************************
The coordinates will be read from file: start.xyz
***************************************


Your calculation utilizes the geometrical counterpoise correction gCP
Please cite in your paper:
H.Kruse, S. Grimme J.Chem.Phys., 136, (2012), 154101 
   

Your calculation utilizes the atom-pairwise dispersion correction
with the Becke-Johnson damping scheme (D3BJ)


Warning: RI is on but no J-basis has been assigned. Assigning Def2/J (nothing to worry about!)
================================================================================

cite the ECPs for Zr [Def2-ECP] as follows:
Ce-Yb(ecp-28): M. Dolg, H. Stoll, H.Preuss, J. Chem. Phys., 1989, 90, 1730-1734.
Y-Cd(ecp-28), Hf-Hg(ecp-46): D. Andrae,U. Haeussermann, M. Dolg, H. Stoll, H. Preuss, Theor. Chim. Acta, 1990, 77, 123-141.
In-Sb(ecp-28), Tl-Bi(ecp-46): B. Metz, H. Stoll, M. Dolg, J. Chem. Phys., 2000, 113, 2563-2569.
Te-Xe(ecp-28), Po-Rn(ecp-46): K. A. Peterson, D. Figgen, E. Goll, H. Stoll, M. Dolg, J. Chem. Phys., 2003, 119, 11113-11123.
Rb(ecp-28), Cs(ecp-46): T. Leininger, A. Nicklass, W. Kuechle, H. Stoll, M. Dolg, A. Bergner, Chem. Phys. Lett., 1996, 255, 274-280.
Sr(ecp-28), Ba(ecp-46): M. Kaupp, P. V. Schleyer, H. Stoll and H. Preuss, J. Chem. Phys., 1991, 94, 1360-1366.
La(ecp-46): M. Dolg, H. Stoll, A. Savin, H. Preuss, Theor. Chim. Acta, 1989, 75, 173-194.
Lu(ecp-28): X. Cao, M. Dolg, J. Chem. Phys., 2001, 115, 7348-7355.

ECP parameters for Zr [Def2-ECP] have been obtained from:
TURBOMOLE (7.0.2)

----- Orbital basis set information -----
Your calculation utilizes the basis: def2-SV(P)
   F. Weigend and R. Ahlrichs, Phys. Chem. Chem. Phys. 7, 3297 (2005).

----- AuxJ basis set information -----
Your calculation utilizes the auxiliary basis: def2/J
   H-Rn: F. Weigend, Phys. Chem. Chem. Phys. 8, 1057 (2006).
   Fr-Lr: K. Eichkorn, F. Weigend, O. Treutler, R. Ahlrichs; Theor. Chem. Acc. 97, 119 (1997).

================================================================================
                                        WARNINGS
                       Please study these warnings very carefully!
================================================================================


WARNING: Gradients are needed
  ===> : At least TightSCF should be used for SCF convergence

WARNING: Geometry Optimization
  ===> : Switching off AutoStart
         For restart on a previous wavefunction, please use MOREAD

================================================================================
                                       INPUT FILE
================================================================================
NAME = run.inp
|  1> # Geometry optimization for (AlH3)n cluster
|  2> 
|  3> %pal nprocs 24  end
|  4> 
|  5> %geom MaxIter 500 end
|  6> 
|  7> 
|  8> ! PBE def2-SV(P)
|  9> ! RKS	# closed shell for AlH3
| 10> ! D3    #  dispersion correction
| 11> ! gCP(DFT/SV(P))
| 12> ! Freq 	# Frequency analysis to check the stabiltity of the structures
| 13> 
| 14> ! NoPop # population analysis not necessary	
| 15> 
| 16> ! DEFGRID2
| 17> ! NormalSCF
| 18> ! SloppyOpt
| 19> 
| 20> ! SmallPrint
| 21> 
| 22> 
| 23> * xyzFile 0 1 start.xyz # only maingroup elements H and Al so there should be no net spin
| 24> 
| 25>                          ****END OF INPUT****
================================================================================

                       *****************************
                       * Geometry Optimization Run *
                       *****************************

Geometry optimization settings:
Update method            Update   .... BFGS
Choice of coordinates    CoordSys .... (2022) Redundant Internals
Initial Hessian          InHess   .... Almloef's Model
Max. no of cycles        MaxIter  .... 500

Convergence Tolerances:
Energy Change            TolE     ....  8.0000e-05 Eh
Max. Gradient            TolMAXG  ....  5.0000e-03 Eh/bohr
RMS Gradient             TolRMSG  ....  1.0000e-03 Eh/bohr
Max. Displacement        TolMAXD  ....  3.0000e-02 bohr
RMS Displacement         TolRMSD  ....  2.0000e-02 bohr
Strict Convergence                .... False

------------------------------------------------------------------------------
                        ORCA OPTIMIZATION COORDINATE SETUP
------------------------------------------------------------------------------

The optimization will be done in redundant internal coordinates (2022)
Making redundant internal coordinates   ...  (2022 redundants) done
Evaluating the initial hessian          ...  (Almloef) done
Evaluating the coordinates              ...  done
Calculating the B-matrix                .... done
Calculating the G-matrix                .... done
The number of degrees of freedom        ....  806

    -----------------------------------------------------------------
                    Redundant Internal Coordinates


    -----------------------------------------------------------------
         Definition                    Initial Value    Approx d2E/dq
    -----------------------------------------------------------------
      1. B(Zr  2,Zr  1)                  3.4227         0.036562   
      2. B(Zr  3,Zr  0)                  3.4275         0.035921   
      3. B(Zr  4,Zr  1)                  3.4220         0.036649   
      4. B(Zr  4,Zr  3)                  3.4195         0.036992   
      5. B(Zr  5,Zr  2)                  3.4211         0.036776   
      6. B(Zr  5,Zr  0)                  3.4171         0.037313   
      7. B(O   6,Zr  0)                  2.0957         0.423747   
      8. B(O   6,Zr  5)                  2.1326         0.370078   
      9. B(O   6,Zr  3)                  2.1422         0.357213   
     10. B(O   7,Zr  2)                  2.1424         0.356913   
     11. B(O   7,Zr  1)                  2.0981         0.420086   
     12. B(O   7,Zr  4)                  2.1312         0.371923   
     13. B(O   8,Zr  5)                  2.1441         0.354766   
     14. B(O   8,Zr  2)                  2.1015         0.414853   
     15. B(O   8,Zr  1)                  2.1286         0.375504   
     16. B(O   9,Zr  4)                  2.1482         0.349453   
     17. B(O   9,Zr  3)                  2.1014         0.415035   
     18. B(O   9,Zr  0)                  2.1383         0.362318   
     19. B(O  10,Zr  3)                  2.1272         0.377397   
     20. B(O  10,Zr  1)                  2.1450         0.353485   
     21. B(O  10,Zr  4)                  2.0978         0.420486   
     22. B(O  11,Zr  5)                  2.0972         0.421414   
     23. B(O  11,Zr  0)                  2.1389         0.361514   
     24. B(O  11,Zr  2)                  2.1255         0.379791   
     25. B(O  12,Zr  0)                  1.9688         0.675330   
     26. B(O  13,Zr  0)                  1.9791         0.650433   
     27. B(O  14,Zr  0)                  2.0771         0.453681   
     28. B(O  15,Zr  0)                  2.0339         0.531830   
     29. B(O  16,Zr  1)                  2.0386         0.522602   
     30. B(O  17,Zr  1)                  2.0716         0.463042   
     31. B(O  18,Zr  1)                  1.9784         0.652016   
     32. B(O  19,Zr  1)                  1.9670         0.679964   
     33. B(O  20,Zr  2)                  1.9775         0.654135   
     34. B(O  21,Zr  2)                  2.0373         0.525208   
     35. B(O  22,Zr  2)                  1.9684         0.676410   
     36. B(O  23,Zr  2)                  2.0719         0.462409   
     37. B(O  24,Zr  3)                  2.0723         0.461806   
     38. B(O  25,Zr  3)                  1.9671         0.679573   
     39. B(O  26,Zr  3)                  2.0390         0.521918   
     40. B(O  27,Zr  3)                  1.9777         0.653615   
     41. B(O  28,Zr  4)                  1.9701         0.672075   
     42. B(O  29,Zr  4)                  2.0651         0.474085   
     43. B(O  30,Zr  4)                  1.9778         0.653344   
     44. B(O  31,Zr  4)                  2.0420         0.516108   
     45. B(O  32,Zr  5)                  2.0396         0.520740   
     46. B(O  33,Zr  5)                  1.9759         0.658099   
     47. B(O  34,Zr  5)                  2.0685         0.468353   
     48. B(O  35,Zr  5)                  1.9703         0.671629   
     49. B(C  36,O  33)                  1.2981         0.784276   
     50. B(C  36,O  12)                  1.2980         0.784747   
     51. B(C  37,O  25)                  1.2980         0.784573   
     52. B(C  37,O  13)                  1.2984         0.783449   
     53. B(C  38,O  21)                  1.2968         0.788206   
     54. B(C  38,O  14)                  1.2988         0.782402   
     55. B(C  39,O  29)                  1.2985         0.783155   
     56. B(C  39,O  15)                  1.2969         0.787648   
     57. B(C  40,O  34)                  1.2991         0.781356   
     58. B(C  40,O  16)                  1.2970         0.787462   
     59. B(C  41,O  26)                  1.2967         0.788295   
     60. B(C  41,O  17)                  1.2988         0.782334   
     61. B(C  42,O  22)                  1.2981         0.784325   
     62. B(C  42,O  18)                  1.2983         0.783630   
     63. B(C  43,O  19)                  1.2979         0.784768   
     64. B(C  43,O  30)                  1.2981         0.784271   
     65. B(C  44,O  35)                  1.2980         0.784472   
     66. B(C  44,O  20)                  1.2982         0.784034   
     67. B(C  45,O  31)                  1.2973         0.786531   
     68. B(C  45,O  23)                  1.2996         0.780106   
     69. B(C  46,O  32)                  1.2971         0.787215   
     70. B(C  46,O  24)                  1.2993         0.781005   
     71. B(C  47,O  28)                  1.2982         0.784086   
     72. B(C  47,O  27)                  1.2984         0.783463   
     73. B(H  48,C  41)                  1.0865         0.364718   
     74. B(H  49,C  42)                  1.0899         0.360262   
     75. B(H  50,C  38)                  1.0864         0.364867   
     76. B(H  51,C  37)                  1.0898         0.360345   
     77. B(H  52,C  43)                  1.0898         0.360331   
     78. B(H  53,C  47)                  1.0899         0.360241   
     79. B(H  54,C  39)                  1.0866         0.364684   
     80. B(H  55,C  45)                  1.0869         0.364204   
     81. B(H  56,C  40)                  1.0868         0.364399   
     82. B(H  57,C  46)                  1.0867         0.364427   
     83. B(H  58,C  36)                  1.0898         0.360322   
     84. B(H  59,C  44)                  1.0898         0.360339   
     85. B(Al 61,Al 60)                  2.6133         0.342952   
     86. B(H  62,C  37)                  3.0407         0.010000   
     87. B(H  62,H  51)                  2.7577         0.010000   
     88. B(H  62,O  13)                  3.1803         0.010000   
     89. B(H  62,Al 61)                  1.6748         0.294424   
     90. B(H  62,Al 60)                  1.6760         0.293139   
     91. B(H  63,Al 61)                  1.6042         0.381602   
     92. B(H  64,C  39)                  3.1569         0.010000   
     93. B(H  64,O  15)                  2.9701         0.010000   
     94. B(H  64,H  54)                  2.8362         0.010000   
     95. B(H  64,Al 61)                  1.6748         0.294476   
     96. B(H  64,Al 60)                  1.6756         0.293581   
     97. B(H  65,O  13)                  2.5248         0.010000   
     98. B(H  65,O  15)                  2.5075         0.010000   
     99. B(H  65,Al 60)                  1.6049         0.380603   
    100. B(H  66,Al 60)                  1.6041         0.381693   
    101. B(H  67,H  53)                  3.0764         0.010000   
    102. B(H  67,O  28)                  3.0328         0.010000   
    103. B(H  67,O  25)                  2.9425         0.010000   
    104. B(H  67,O  13)                  2.8827         0.010000   
    105. B(H  67,C  39)                  2.8408         0.010000   
    106. B(H  67,C  37)                  2.8232         0.010000   
    107. B(H  67,C  47)                  2.6559         0.010000   
    108. B(H  67,O   9)                  2.6354         0.010000   
    109. B(H  67,O  27)                  2.6270         0.010000   
    110. B(H  67,O  15)                  2.5753         0.010000   
    111. B(H  67,Al 61)                  1.6022         0.384475   
    112. A(Zr  5,Zr  0,O   9)           91.6882         0.327730   
    113. A(O  11,Zr  0,O  12)           83.2234         0.499499   
    114. A(Zr  3,Zr  0,O  12)          126.0619         0.361507   
    115. A(Zr  5,Zr  0,O   6)           36.4489         0.336344   
    116. A(Zr  3,Zr  0,O   9)           35.6954         0.325684   
    117. A(Zr  3,Zr  0,O  14)          146.3492         0.338043   
    118. A(O   9,Zr  0,O  15)           71.2790         0.478089   
    119. A(O   9,Zr  0,O  12)          161.5401         0.499705   
    120. A(Zr  3,Zr  0,Zr  5)           70.4169         0.247400   
    121. A(Zr  3,Zr  0,O   6)           36.4840         0.334225   
    122. A(O   6,Zr  0,O  11)           67.1065         0.458402   
    123. A(Zr  5,Zr  0,O  14)          103.5739         0.340195   
    124. A(O   9,Zr  0,O  13)           90.7752         0.496228   
    125. A(Zr  5,Zr  0,O  11)           35.8176         0.327610   
    126. A(O  11,Zr  0,O  14)           70.6428         0.464153   
    127. A(O  13,Zr  0,O  15)           83.1914         0.533186   
    128. A(O  11,Zr  0,O  15)          130.3475         0.477894   
    129. A(O  13,Zr  0,O  14)          136.9969         0.517491   
    130. A(O  11,Zr  0,O  13)          145.4297         0.496023   
    131. A(O   6,Zr  0,O   9)           67.3560         0.458587   
    132. A(O   9,Zr  0,O  14)          114.9473         0.464342   
    133. A(Zr  3,Zr  0,O  15)           99.4832         0.347164   
    134. A(O   6,Zr  0,O  12)           94.6619         0.514525   
    135. A(O   6,Zr  0,O  15)          135.9475         0.492129   
    136. A(Zr  3,Zr  0,O  13)           72.5462         0.359200   
    137. A(Zr  5,Zr  0,O  15)          159.1123         0.349396   
    138. A(Zr  3,Zr  0,O  11)           91.1272         0.325565   
    139. A(O  12,Zr  0,O  13)           82.5221         0.557862   
    140. A(O  12,Zr  0,O  14)           80.8908         0.521150   
    141. A(O  14,Zr  0,O  15)           74.3431         0.498405   
    142. A(O  12,Zr  0,O  15)          124.4865         0.536978   
    143. A(O   6,Zr  0,O  13)           82.8767         0.510922   
    144. A(Zr  5,Zr  0,O  12)           74.6423         0.363862   
    145. A(O   6,Zr  0,O  14)          137.7440         0.477885   
    146. A(Zr  5,Zr  0,O  13)          109.7571         0.361535   
    147. A(O   9,Zr  0,O  11)           92.9512         0.445537   
    148. A(Zr  4,Zr  1,O  19)           74.7863         0.363172   
    149. A(Zr  2,Zr  1,O  17)          145.1112         0.340200   
    150. A(Zr  2,Zr  1,O  16)           98.7147         0.347175   
    151. A(Zr  4,Zr  1,O  16)          159.4550         0.347314   
    152. A(O  16,Zr  1,O  19)          124.3546         0.535898   
    153. A(Zr  2,Zr  1,Zr  4)           70.3719         0.247390   
    154. A(Zr  4,Zr  1,O  17)          104.0825         0.340336   
    155. A(Zr  2,Zr  1,O  10)           90.9618         0.325310   
    156. A(Zr  4,Zr  1,O   7)           36.3170         0.334858   
    157. A(O   7,Zr  1,O  17)          137.7949         0.478921   
    158. A(O  10,Zr  1,O  19)           82.8014         0.498050   
    159. A(Zr  2,Zr  1,O   7)           36.6235         0.334725   
    160. A(O   8,Zr  1,O  16)           71.1774         0.479699   
    161. A(O   7,Zr  1,O  19)           95.1636         0.514348   
    162. A(O  16,Zr  1,O  18)           82.5281         0.531673   
    163. A(O  16,Zr  1,O  17)           74.5480         0.498676   
    164. A(O   8,Zr  1,O  19)          162.2921         0.503683   
    165. A(O  10,Zr  1,O  18)          144.9894         0.494182   
    166. A(O   8,Zr  1,O  10)           92.3713         0.446611   
    167. A(Zr  2,Zr  1,O   8)           35.7236         0.328564   
    168. A(O  17,Zr  1,O  18)          137.5654         0.519713   
    169. A(Zr  2,Zr  1,O  18)           72.6795         0.360433   
    170. A(Zr  2,Zr  1,O  19)          126.9881         0.363024   
    171. A(O   7,Zr  1,O   8)           67.3641         0.460859   
    172. A(O   8,Zr  1,O  18)           91.5151         0.499762   
    173. A(Zr  4,Zr  1,O  18)          109.3672         0.360579   
    174. A(O   7,Zr  1,O  10)           66.9535         0.455808   
    175. A(O   7,Zr  1,O  18)           82.6724         0.510326   
    176. A(Zr  4,Zr  1,O  10)           35.7762         0.325438   
    177. A(O  10,Zr  1,O  17)           70.8860         0.463980   
    178. A(O   8,Zr  1,O  17)          113.3094         0.469144   
    179. A(O  10,Zr  1,O  16)          131.3772         0.474392   
    180. A(Zr  4,Zr  1,O   8)           91.3325         0.328694   
    181. A(O   7,Zr  1,O  16)          135.3358         0.489747   
    182. A(O  17,Zr  1,O  19)           81.2785         0.523824   
    183. A(O  18,Zr  1,O  19)           83.0453         0.558847   
    184. A(Zr  1,Zr  2,O  21)          160.0783         0.347466   
    185. A(O   8,Zr  2,O  22)           95.9628         0.512640   
    186. A(Zr  5,Zr  2,O   8)           36.7369         0.334354   
    187. A(Zr  5,Zr  2,O   7)           91.0097         0.326141   
    188. A(O   8,Zr  2,O  23)          137.9354         0.477695   
    189. A(Zr  1,Zr  2,O   7)           35.7466         0.325827   
    190. A(Zr  1,Zr  2,O  22)           74.9840         0.362699   
    191. A(O  20,Zr  2,O  23)          138.3906         0.519896   
    192. A(O  11,Zr  2,O  23)          111.7046         0.470004   
    193. A(Zr  5,Zr  2,O  23)          143.6854         0.340456   
    194. A(O   8,Zr  2,O  11)           67.3789         0.460759   
    195. A(Zr  5,Zr  2,O  21)           98.0648         0.347809   
    196. A(O  22,Zr  2,O  23)           81.2306         0.523175   
    197. A(O  21,Zr  2,O  23)           74.7962         0.499010   
    198. A(O  20,Zr  2,O  22)           83.1414         0.558635   
    199. A(Zr  1,Zr  2,O   8)           36.2573         0.334029   
    200. A(O   7,Zr  2,O   8)           67.0506         0.455568   
    201. A(O  11,Zr  2,O  20)           92.7988         0.501122   
    202. A(Zr  1,Zr  2,O  23)          104.6336         0.340122   
    203. A(O  21,Zr  2,O  22)          123.8454         0.535871   
    204. A(O  11,Zr  2,O  22)          163.2917         0.504257   
    205. A(Zr  1,Zr  2,Zr  5)           70.2993         0.247515   
    206. A(O   7,Zr  2,O  22)           81.7688         0.498458   
    207. A(O  20,Zr  2,O  21)           82.6253         0.532497   
    208. A(O   7,Zr  2,O  23)           71.0315         0.464684   
    209. A(O   7,Zr  2,O  11)           92.2879         0.448315   
    210. A(O   7,Zr  2,O  21)          132.8530         0.475670   
    211. A(Zr  1,Zr  2,O  11)           91.0505         0.329181   
    212. A(Zr  5,Zr  2,O  22)          128.4118         0.363062   
    213. A(Zr  5,Zr  2,O  11)           35.6117         0.329499   
    214. A(O   8,Zr  2,O  20)           81.8632         0.509441   
    215. A(O   7,Zr  2,O  20)          143.5759         0.495367   
    216. A(Zr  5,Zr  2,O  20)           73.0994         0.360993   
    217. A(Zr  1,Zr  2,O  20)          108.0994         0.360632   
    218. A(O  11,Zr  2,O  21)           71.3019         0.481146   
    219. A(O   8,Zr  2,O  21)          134.7930         0.489062   
    220. A(O   6,Zr  3,O  26)          131.7645         0.475194   
    221. A(O   6,Zr  3,O  10)           91.9132         0.447869   
    222. A(O   6,Zr  3,O  24)           70.9214         0.464644   
    223. A(O   9,Zr  3,O  10)           67.6110         0.460264   
    224. A(O  26,Zr  3,O  27)           82.0061         0.531787   
    225. A(Zr  4,Zr  3,O  10)           35.6803         0.329473   
    226. A(Zr  4,Zr  3,O  24)          144.4351         0.340714   
    227. A(Zr  0,Zr  3,O  10)           90.8819         0.327879   
    228. A(O  25,Zr  3,O  26)          124.3169         0.535707   
    229. A(O  24,Zr  3,O  25)           81.0505         0.523505   
    230. A(O   9,Zr  3,O  27)           82.5114         0.509407   
    231. A(Zr  0,Zr  3,O  26)          159.3151         0.346067   
    232. A(O  24,Zr  3,O  26)           74.6393         0.498307   
    233. A(O  10,Zr  3,O  26)           71.2402         0.480028   
    234. A(O   9,Zr  3,O  26)          135.1908         0.488533   
    235. A(Zr  4,Zr  3,O  26)           98.3039         0.347782   
    236. A(O   6,Zr  3,O   9)           67.1855         0.455674   
    237. A(Zr  4,Zr  3,O   9)           36.8898         0.334703   
    238. A(Zr  0,Zr  3,Zr  4)           70.3849         0.247090   
    239. A(O  10,Zr  3,O  27)           92.0864         0.500458   
    240. A(O  24,Zr  3,O  27)          137.5974         0.519692   
    241. A(Zr  0,Zr  3,O  27)          109.7249         0.359498   
    242. A(Zr  4,Zr  3,O  27)           72.9810         0.361303   
    243. A(Zr  0,Zr  3,O   6)           35.5697         0.324925   
    244. A(O   6,Zr  3,O  27)          145.1184         0.495371   
    245. A(O   6,Zr  3,O  25)           82.2999         0.498969   
    246. A(O   9,Zr  3,O  24)          138.0522         0.477619   
    247. A(O  10,Zr  3,O  25)          162.7994         0.504101   
    248. A(Zr  0,Zr  3,O  24)          104.1222         0.339045   
    249. A(Zr  0,Zr  3,O  25)           74.9783         0.361893   
    250. A(Zr  0,Zr  3,O   9)           36.4231         0.333074   
    251. A(O  25,Zr  3,O  27)           83.7698         0.559046   
    252. A(Zr  4,Zr  3,O  25)          127.8056         0.363714   
    253. A(Zr  4,Zr  3,O   6)           90.9163         0.326499   
    254. A(O   9,Zr  3,O  25)           95.2601         0.513129   
    255. A(O  10,Zr  3,O  24)          112.4417         0.469347   
    256. A(Zr  1,Zr  4,O  10)           36.7116         0.334911   
    257. A(O   9,Zr  4,O  10)           67.2881         0.454935   
    258. A(O   7,Zr  4,O  10)           67.2116         0.460133   
    259. A(Zr  3,Zr  4,O  10)           36.2595         0.335430   
    260. A(O   7,Zr  4,O  29)          112.1012         0.470349   
    261. A(O   9,Zr  4,O  29)           71.0984         0.465008   
    262. A(Zr  3,Zr  4,O  28)           74.8531         0.363025   
    263. A(Zr  1,Zr  4,O  28)          127.6057         0.362448   
    264. A(Zr  3,Zr  4,O  31)          159.6145         0.347127   
    265. A(Zr  1,Zr  4,O  29)          144.3140         0.341680   
    266. A(O   7,Zr  4,O  30)           92.5590         0.499061   
    267. A(Zr  3,Zr  4,O  30)          108.5408         0.361277   
    268. A(O  30,Zr  4,O  31)           82.5487         0.530625   
    269. A(O  28,Zr  4,O  30)           82.5506         0.557823   
    270. A(O  10,Zr  4,O  30)           82.4305         0.510611   
    271. A(O  10,Zr  4,O  28)           95.6354         0.513317   
    272. A(Zr  1,Zr  4,O  31)           97.7665         0.346584   
    273. A(O  29,Zr  4,O  30)          137.6059         0.522217   
    274. A(O   7,Zr  4,O  31)           70.8425         0.477751   
    275. A(O   9,Zr  4,O  30)          144.1645         0.493318   
    276. A(O  28,Zr  4,O  29)           81.8862         0.524997   
    277. A(Zr  1,Zr  4,Zr  3)           70.4799         0.247810   
    278. A(Zr  1,Zr  4,O  30)           72.9944         0.360704   
    279. A(O  28,Zr  4,O  31)          124.4790         0.533459   
    280. A(Zr  3,Zr  4,O  29)          104.9653         0.342213   
    281. A(O   9,Zr  4,O  28)           81.8694         0.495913   
    282. A(O  29,Zr  4,O  31)           74.5019         0.499703   
    283. A(Zr  3,Zr  4,O   9)           35.9582         0.325322   
    284. A(O  10,Zr  4,O  29)          138.2220         0.481091   
    285. A(O   7,Zr  4,O  28)          162.7038         0.501693   
    286. A(Zr  1,Zr  4,O   9)           91.6997         0.324824   
    287. A(Zr  1,Zr  4,O   7)           35.6647         0.328174   
    288. A(O   9,Zr  4,O  31)          132.4179         0.472306   
    289. A(O  10,Zr  4,O  31)          134.4781         0.488700   
    290. A(Zr  3,Zr  4,O   7)           91.1867         0.328679   
    291. A(O   7,Zr  4,O   9)           92.8638         0.444910   
    292. A(O  34,Zr  5,O  35)           81.2539         0.523733   
    293. A(O  33,Zr  5,O  35)           82.9646         0.558523   
    294. A(O  32,Zr  5,O  35)          124.5818         0.534292   
    295. A(O   8,Zr  5,O  35)           81.4967         0.497243   
    296. A(O   6,Zr  5,O  35)          162.8868         0.501167   
    297. A(Zr  2,Zr  5,O  35)           74.7236         0.362622   
    298. A(O  33,Zr  5,O  34)          137.5429         0.521735   
    299. A(O  32,Zr  5,O  34)           74.6936         0.499403   
    300. A(O  11,Zr  5,O  34)          138.1578         0.480208   
    301. A(Zr  0,Zr  5,O  35)          127.9421         0.363520   
    302. A(O   6,Zr  5,O  34)          112.0364         0.468873   
    303. A(Zr  2,Zr  5,O  34)          104.9345         0.341184   
    304. A(Zr  0,Zr  5,O  34)          144.2714         0.342011   
    305. A(O   8,Zr  5,O  33)          143.9953         0.495367   
    306. A(Zr  2,Zr  5,O   6)           90.9475         0.328093   
    307. A(Zr  0,Zr  5,O   6)           35.7208         0.328878   
    308. A(Zr  0,Zr  5,Zr  2)           70.2700         0.248246   
    309. A(Zr  2,Zr  5,O  32)          159.6088         0.347309   
    310. A(Zr  0,Zr  5,O  32)           97.8250         0.348157   
    311. A(O  11,Zr  5,O  32)          134.4696         0.489710   
    312. A(Zr  0,Zr  5,O  33)           73.2996         0.362259   
    313. A(O   8,Zr  5,O  32)          132.5212         0.474396   
    314. A(O   6,Zr  5,O  32)           70.9701         0.478100   
    315. A(Zr  2,Zr  5,O  33)          108.4358         0.361365   
    316. A(O   8,Zr  5,O  34)           71.1881         0.465257   
    317. A(O  32,Zr  5,O  33)           82.5973         0.532246   
    318. A(O  11,Zr  5,O  33)           82.4512         0.511514   
    319. A(O   6,Zr  5,O  33)           93.0369         0.499273   
    320. A(O  11,Zr  5,O  35)           95.7413         0.513465   
    321. A(O   8,Zr  5,O  11)           67.1141         0.456370   
    322. A(O   6,Zr  5,O  11)           67.1970         0.459901   
    323. A(Zr  2,Zr  5,O  11)           36.1676         0.335227   
    324. A(Zr  0,Zr  5,O  11)           36.6448         0.336035   
    325. A(O   6,Zr  5,O   8)           92.4199         0.445726   
    326. A(Zr  2,Zr  5,O   8)           35.8920         0.325817   
    327. A(Zr  0,Zr  5,O   8)           91.3317         0.326595   
    328. A(Zr  3,O   6,Zr  5)          134.7843         0.446282   
    329. A(Zr  0,O   6,Zr  5)          107.8302         0.460364   
    330. A(Zr  0,O   6,Zr  3)          107.9463         0.457402   
    331. A(Zr  2,O   7,Zr  4)          134.7058         0.446616   
    332. A(Zr  1,O   7,Zr  4)          108.0184         0.460053   
    333. A(Zr  1,O   7,Zr  2)          107.6299         0.456610   
    334. A(Zr  1,O   8,Zr  2)          108.0192         0.459805   
    335. A(Zr  2,O   8,Zr  5)          107.3711         0.455068   
    336. A(Zr  1,O   8,Zr  5)          134.4834         0.446903   
    337. A(Zr  3,O   9,Zr  4)          107.1519         0.453856   
    338. A(Zr  0,O   9,Zr  4)          134.0216         0.442809   
    339. A(Zr  0,O   9,Zr  3)          107.8816         0.456854   
    340. A(Zr  4,O   9,H  67)          111.7852         0.159982   
    341. A(Zr  3,O   9,H  67)           92.2252         0.162800   
    342. A(Zr  0,O   9,H  67)           95.6233         0.160565   
    343. A(Zr  3,O  10,Zr  4)          108.0602         0.461362   
    344. A(Zr  1,O  10,Zr  4)          107.5122         0.455887   
    345. A(Zr  1,O  10,Zr  3)          135.0328         0.447018   
    346. A(Zr  2,O  11,Zr  5)          108.2207         0.462082   
    347. A(Zr  0,O  11,Zr  5)          107.5375         0.457940   
    348. A(Zr  0,O  11,Zr  2)          134.6900         0.449358   
    349. A(Zr  0,O  12,C  36)          131.4793         0.511566   
    350. A(Zr  0,O  13,C  37)          133.7843         0.507832   
    351. A(H  62,O  13,H  65)           51.6358         0.099005   
    352. A(C  37,O  13,H  62)           71.9839         0.135785   
    353. A(Zr  0,O  13,H  62)          129.0926         0.140931   
    354. A(H  65,O  13,H  67)           76.2743         0.101814   
    355. A(C  37,O  13,H  67)           74.3043         0.148924   
    356. A(Zr  0,O  13,H  67)           91.9869         0.155515   
    357. A(H  62,O  13,H  67)           47.7966         0.096430   
    358. A(C  37,O  13,H  65)          122.3329         0.169690   
    359. A(Zr  0,O  13,H  65)           95.3086         0.178564   
    360. A(Zr  0,O  14,C  38)          140.5990         0.474920   
    361. A(Zr  0,O  15,C  39)          129.7966         0.489660   
    362. A(H  64,O  15,H  67)           52.0541         0.100426   
    363. A(H  64,O  15,H  65)           54.4384         0.101089   
    364. A(C  39,O  15,H  64)           86.0013         0.144790   
    365. A(Zr  0,O  15,H  64)          137.0010         0.148096   
    366. A(H  65,O  15,H  67)           82.4850         0.105786   
    367. A(C  39,O  15,H  67)           87.9068         0.166468   
    368. A(Zr  0,O  15,H  67)          100.1900         0.171058   
    369. A(C  39,O  15,H  65)          135.7406         0.170959   
    370. A(Zr  0,O  15,H  65)           94.4526         0.175816   
    371. A(Zr  1,O  16,C  40)          129.0250         0.488055   
    372. A(Zr  1,O  17,C  41)          140.4630         0.476700   
    373. A(Zr  1,O  18,C  42)          133.6922         0.508084   
    374. A(Zr  1,O  19,C  43)          131.2804         0.512223   
    375. A(Zr  2,O  20,C  44)          133.2985         0.508441   
    376. A(Zr  2,O  21,C  38)          129.5055         0.488590   
    377. A(Zr  2,O  22,C  42)          130.7104         0.511667   
    378. A(Zr  2,O  23,C  45)          139.4449         0.476330   
    379. A(Zr  3,O  24,C  46)          139.9355         0.476317   
    380. A(Zr  3,O  25,C  37)          130.8639         0.512144   
    381. A(C  37,O  25,H  67)           71.9026         0.146032   
    382. A(Zr  3,O  25,H  67)           86.3486         0.152915   
    383. A(Zr  3,O  26,C  41)          129.4459         0.488032   
    384. A(C  47,O  27,H  67)           77.0091         0.163116   
    385. A(Zr  3,O  27,H  67)           95.4013         0.171357   
    386. A(Zr  3,O  27,C  47)          133.4328         0.508296   
    387. A(C  47,O  28,H  67)           60.9005         0.141902   
    388. A(Zr  4,O  28,H  67)          102.9722         0.148145   
    389. A(Zr  4,O  28,C  47)          130.8479         0.511023   
    390. A(Zr  4,O  29,C  39)          140.7298         0.478866   
    391. A(Zr  4,O  30,C  43)          133.4234         0.508355   
    392. A(Zr  4,O  31,C  45)          128.3946         0.486820   
    393. A(Zr  5,O  32,C  46)          128.8556         0.487704   
    394. A(Zr  5,O  33,C  36)          133.1152         0.509044   
    395. A(Zr  5,O  34,C  40)          139.9579         0.477592   
    396. A(Zr  5,O  35,C  44)          131.2117         0.511007   
    397. A(O  12,C  36,O  33)          127.4551         0.466565   
    398. A(O  33,C  36,H  58)          116.2596         0.365077   
    399. A(O  12,C  36,H  58)          116.2852         0.365115   
    400. A(O  13,C  37,O  25)          127.4269         0.466456   
    401. A(H  51,C  37,H  62)           64.7319         0.128870   
    402. A(O  13,C  37,H  62)           84.0581         0.143506   
    403. A(O  25,C  37,H  62)          118.4270         0.143524   
    404. A(H  62,C  37,H  67)           49.6796         0.098434   
    405. A(H  51,C  37,H  67)          110.7377         0.136775   
    406. A(O  25,C  37,H  67)           82.1834         0.154334   
    407. A(O  13,C  37,H  67)           79.4158         0.154313   
    408. A(O  25,C  37,H  51)          116.2995         0.365105   
    409. A(O  13,C  37,H  51)          116.2720         0.365015   
    410. A(O  14,C  38,O  21)          129.3287         0.466737   
    411. A(O  21,C  38,H  50)          115.3248         0.366175   
    412. A(O  14,C  38,H  50)          115.3464         0.365711   
    413. A(O  15,C  39,O  29)          129.2391         0.466759   
    414. A(H  54,C  39,H  64)           63.1090         0.125297   
    415. A(O  29,C  39,H  64)          136.7224         0.138482   
    416. A(O  15,C  39,H  64)           69.8048         0.138546   
    417. A(H  54,C  39,H  67)          106.3607         0.136209   
    418. A(O  29,C  39,H  67)          100.0948         0.153358   
    419. A(O  15,C  39,H  67)           64.9486         0.153441   
    420. A(H  64,C  39,H  67)           48.0522         0.097441   
    421. A(O  29,C  39,H  54)          115.3707         0.365740   
    422. A(O  15,C  39,H  54)          115.3881         0.366099   
    423. A(O  16,C  40,O  34)          129.2719         0.466542   
    424. A(O  34,C  40,H  56)          115.3918         0.365547   
    425. A(O  16,C  40,H  56)          115.3360         0.366035   
    426. A(O  17,C  41,O  26)          129.3077         0.466739   
    427. A(O  26,C  41,H  48)          115.3274         0.366156   
    428. A(O  17,C  41,H  48)          115.3650         0.365681   
    429. A(O  18,C  42,O  22)          127.4671         0.466449   
    430. A(O  22,C  42,H  49)          116.2868         0.365071   
    431. A(O  18,C  42,H  49)          116.2459         0.365015   
    432. A(O  30,C  43,H  52)          116.2580         0.365078   
    433. A(O  19,C  43,H  52)          116.2891         0.365118   
    434. A(O  19,C  43,O  30)          127.4527         0.466567   
    435. A(O  35,C  44,H  59)          116.2625         0.365096   
    436. A(O  20,C  44,H  59)          116.2316         0.365061   
    437. A(O  20,C  44,O  35)          127.5057         0.466509   
    438. A(O  31,C  45,H  55)          115.3214         0.365927   
    439. A(O  23,C  45,H  55)          115.3957         0.365414   
    440. A(O  23,C  45,O  31)          129.2820         0.466304   
    441. A(O  32,C  46,H  57)          115.3250         0.366020   
    442. A(O  24,C  46,H  57)          115.3769         0.365524   
    443. A(O  24,C  46,O  32)          129.2980         0.466477   
    444. A(H  53,C  47,H  67)          102.1957         0.143904   
    445. A(O  28,C  47,H  67)           93.8158         0.164076   
    446. A(O  27,C  47,H  67)           74.5424         0.164063   
    447. A(O  28,C  47,H  53)          116.2801         0.365048   
    448. A(O  27,C  47,H  53)          116.2508         0.364998   
    449. A(O  27,C  47,O  28)          127.4625         0.466405   
    450. A(C  37,H  51,H  62)           94.3285         0.116749   
    451. A(C  47,H  53,H  67)           57.5446         0.110287   
    452. A(C  39,H  54,H  64)           96.9117         0.115066   
    453. A(H  65,Al 60,H  66)          153.3854         0.377887   
    454. A(H  64,Al 60,H  66)           98.8537         0.361402   
    455. A(H  62,Al 60,H  66)           98.9053         0.361309   
    456. A(Al 61,Al 60,H  66)          100.5447         0.433177   
    457. A(H  64,Al 60,H  65)          101.3987         0.361225   
    458. A(H  62,Al 60,H  65)          102.2010         0.361132   
    459. A(Al 61,Al 60,H  65)          106.0610         0.432954   
    460. A(H  62,Al 60,H  64)           77.4444         0.345603   
    461. A(Al 61,Al 60,H  64)           38.7280         0.413326   
    462. A(Al 61,Al 60,H  62)           38.7328         0.413215   
    463. A(H  64,Al 61,H  67)           97.2250         0.362038   
    464. A(H  63,Al 61,H  67)          157.0223         0.378534   
    465. A(H  62,Al 61,H  67)           97.8723         0.362027   
    466. A(Al 60,Al 61,H  67)          100.5643         0.433743   
    467. A(H  63,Al 61,H  64)           99.8758         0.361575   
    468. A(H  62,Al 61,H  64)           77.4998         0.346034   
    469. A(Al 60,Al 61,H  64)           38.7507         0.413549   
    470. A(H  62,Al 61,H  63)          100.7179         0.361564   
    471. A(Al 60,Al 61,H  63)          102.3823         0.433158   
    472. A(Al 60,Al 61,H  62)           38.7655         0.413537   
    473. A(O  13,H  62,C  37)           23.9580         0.095758   
    474. A(O  13,H  62,H  51)           39.1999         0.093704   
    475. A(O  13,H  62,Al 61)           99.4820         0.127613   
    476. A(O  13,H  62,Al 60)           88.7122         0.127575   
    477. A(C  37,H  62,Al 61)           98.4843         0.133985   
    478. A(C  37,H  62,Al 60)          112.1177         0.133940   
    479. A(C  37,H  62,H  51)           20.9396         0.094480   
    480. A(H  51,H  62,Al 61)          114.8311         0.120309   
    481. A(H  51,H  62,Al 60)          117.6213         0.120278   
    482. A(Al 60,H  62,Al 61)          102.5018         0.345770   
    483. A(O  15,H  64,C  39)           24.1939         0.096308   
    484. A(C  39,H  64,H  54)           19.9793         0.093661   
    485. A(C  39,H  64,Al 61)           97.0592         0.129844   
    486. A(C  39,H  64,Al 60)          114.6060         0.129815   
    487. A(O  15,H  64,H  54)           40.5870         0.094248   
    488. A(O  15,H  64,Al 61)           95.7776         0.134991   
    489. A(O  15,H  64,Al 60)           91.5618         0.134959   
    490. A(H  54,H  64,Al 61)          111.3851         0.118331   
    491. A(H  54,H  64,Al 60)          121.6522         0.118311   
    492. A(Al 60,H  64,Al 61)          102.5213         0.345868   
    493. A(O  13,H  65,O  15)           63.9355         0.106505   
    494. A(O  13,H  65,Al 60)          117.4300         0.159579   
    495. A(O  15,H  65,Al 60)          112.1677         0.160603   
    496. A(O  25,H  67,H  53)           94.4964         0.093397   
    497. A(O  13,H  67,H  53)          138.6738         0.093622   
    498. A(C  39,H  67,H  53)          107.0944         0.093964   
    499. A(C  37,H  67,H  53)          119.9581         0.094037   
    500. A(C  47,H  67,H  53)           20.2597         0.094789   
    501. A(O   9,H  67,H  53)           88.1490         0.094677   
    502. A(O  27,H  67,H  53)           40.7766         0.094716   
    503. A(O  15,H  67,H  53)          130.4235         0.094968   
    504. A(H  53,H  67,Al 61)           98.1587         0.114514   
    505. A(O  25,H  67,O  28)           98.0744         0.096992   
    506. A(O  13,H  67,O  28)          119.9971         0.097400   
    507. A(O  28,H  67,C  39)           71.2218         0.098022   
    508. A(O  28,H  67,C  37)          120.3742         0.098155   
    509. A(O  28,H  67,C  47)           25.2837         0.099522   
    510. A(O   9,H  67,O  28)           56.4087         0.099317   
    511. A(O  27,H  67,O  28)           47.9260         0.099389   
    512. A(O  15,H  67,O  28)           91.8037         0.099846   
    513. A(O  28,H  67,Al 61)          125.6161         0.135371   
    514. A(O  13,H  67,O  25)           47.0963         0.098054   
    515. A(O  25,H  67,C  39)          117.4175         0.098725   
    516. A(O  25,H  67,C  37)           25.9141         0.098868   
    517. A(O  25,H  67,C  47)           84.4046         0.100342   
    518. A(O   9,H  67,O  25)           64.9758         0.100121   
    519. A(O  25,H  67,O  27)           56.0985         0.100199   
    520. A(O  15,H  67,O  25)           97.9529         0.100691   
    521. A(O  25,H  67,Al 61)          121.9813         0.138984   
    522. A(O  13,H  67,C  39)           84.4579         0.099221   
    523. A(O  13,H  67,C  37)           26.2799         0.099372   
    524. A(O  13,H  67,C  47)          122.1625         0.100921   
    525. A(O   9,H  67,O  13)           64.0389         0.100689   
    526. A(O  13,H  67,O  27)           97.8984         0.100770   
    527. A(O  13,H  67,O  15)           58.1133         0.101288   
    528. A(O  13,H  67,Al 61)          114.2770         0.141536   
    529. A(C  37,H  67,C  39)          109.5858         0.100141   
    530. A(C  39,H  67,C  47)           96.3873         0.101804   
    531. A(O   9,H  67,C  39)           58.1410         0.101555   
    532. A(O  27,H  67,C  39)          110.5707         0.101642   
    533. A(O  28,H  67,H  53)           38.8319         0.093079   
    534. A(O  15,H  67,C  39)           27.1446         0.102198   
    535. A(C  39,H  67,Al 61)          112.1591         0.145428   
    536. A(C  37,H  67,C  47)          110.0953         0.101992   
    537. A(O   9,H  67,C  37)           73.5855         0.101740   
    538. A(O  27,H  67,C  37)           81.9515         0.101829   
    539. A(O  15,H  67,C  37)           84.0749         0.102393   
    540. A(C  37,H  67,Al 61)          109.4771         0.146260   
    541. A(O   9,H  67,C  47)           67.9530         0.103642   
    542. A(O  27,H  67,C  47)           28.4485         0.103744   
    543. A(O  15,H  67,C  47)          114.7798         0.104392   
    544. A(C  47,H  67,Al 61)          118.3761         0.154808   
    545. A(O   9,H  67,O  27)           61.5203         0.103457   
    546. A(O   9,H  67,O  15)           55.6445         0.104093   
    547. A(O   9,H  67,Al 61)          169.8809         0.153530   
    548. A(O  15,H  67,O  27)          117.0666         0.104198   
    549. A(O  27,H  67,Al 61)          127.9988         0.153978   
    550. A(O  15,H  67,Al 61)          114.5498         0.156834   
    551. D(Zr  5,Zr  2,Zr  1,Zr  4)    104.5638         0.010000   
    552. D(Zr  5,Zr  2,Zr  1,O   7)    121.9708         0.010000   
    553. D(O   7,Zr  2,Zr  1,Zr  4)    -17.4069         0.010000   
    554. D(Zr  4,Zr  3,Zr  0,O   6)   -121.8386         0.010000   
    555. D(O   6,Zr  3,Zr  0,Zr  5)     17.2869         0.010000   
    556. D(Zr  4,Zr  3,Zr  0,Zr  5)   -104.5517         0.010000   
    557. D(Zr  1,Zr  4,Zr  3,Zr  0)    104.3207         0.010000   
    558. D(Zr  3,Zr  4,Zr  1,Zr  2)   -104.5821         0.010000   
    559. D(O   7,Zr  4,Zr  3,Zr  0)     74.7231         0.010000   
    560. D(Zr  3,Zr  4,Zr  1,O   7)   -122.1196         0.010000   
    561. D(O   7,Zr  4,Zr  1,Zr  2)     17.5375         0.010000   
    562. D(Zr  1,Zr  4,Zr  3,O   6)     74.7015         0.010000   
    563. D(Zr  2,Zr  5,Zr  0,Zr  3)    104.6235         0.010000   
    564. D(Zr  0,Zr  5,Zr  2,Zr  1)   -104.7418         0.010000   
    565. D(Zr  2,Zr  5,Zr  0,O   6)    121.9252         0.010000   
    566. D(Zr  0,Zr  5,Zr  2,O   7)    -75.0281         0.010000   
    567. D(O   6,Zr  5,Zr  2,Zr  1)    -75.0330         0.010000   
    568. D(O   6,Zr  5,Zr  0,Zr  3)    -17.3017         0.010000   
    569. D(Zr  0,O   6,Zr  3,O   9)     24.1499         0.010000   
    570. D(Zr  0,O   6,Zr  5,O   8)    -88.9156         0.010000   
    571. D(Zr  5,O   6,Zr  3,Zr  0)   -140.7983         0.010000   
    572. D(Zr  3,O   6,Zr  5,Zr  0)    140.8288         0.010000   
    573. D(Zr  3,O   6,Zr  0,Zr  5)   -151.8850         0.010000   
    574. D(Zr  5,O   6,Zr  0,Zr  3)    151.8850         0.010000   
    575. D(Zr  0,O   6,Zr  3,Zr  4)     53.1626         0.010000   
    576. D(Zr  0,O   6,Zr  5,Zr  2)    -53.0368         0.010000   
    577. D(Zr  3,O   6,Zr  0,O   9)    -23.6751         0.010000   
    578. D(Zr  1,O   7,Zr  2,O   8)    -24.4011         0.010000   
    579. D(Zr  4,O   7,Zr  1,Zr  2)   -151.5908         0.010000   
    580. D(Zr  2,O   7,Zr  1,O   8)     24.0115         0.010000   
    581. D(Zr  1,O   7,Zr  2,Zr  5)    -53.0144         0.010000   
    582. D(Zr  2,O   7,Zr  1,Zr  4)    151.5908         0.010000   
    583. D(Zr  1,O   7,Zr  4,O   9)     88.9244         0.010000   
    584. D(Zr  1,O   7,Zr  4,Zr  3)     52.9807         0.010000   
    585. D(Zr  2,O   7,Zr  4,Zr  1)   -140.3597         0.010000   
    586. D(Zr  4,O   7,Zr  2,Zr  1)    140.4630         0.010000   
    587. D(Zr  1,O   8,Zr  5,Zr  2)   -139.5993         0.010000   
    588. D(Zr  2,O   8,Zr  5,Zr  0)     52.5468         0.010000   
    589. D(Zr  1,O   8,Zr  2,O   7)     24.0846         0.010000   
    590. D(Zr  1,O   8,Zr  2,Zr  5)    150.9050         0.010000   
    591. D(Zr  1,O   8,Zr  5,Zr  0)    -87.0525         0.010000   
    592. D(Zr  5,O   8,Zr  1,Zr  2)    139.4228         0.010000   
    593. D(Zr  2,O   8,Zr  1,O   7)    -24.5670         0.010000   
    594. D(Zr  2,O   8,Zr  1,Zr  4)    -52.5683         0.010000   
    595. D(Zr  5,O   8,Zr  2,Zr  1)   -150.9050         0.010000   
    596. D(Zr  3,O   9,Zr  0,O   6)     24.1548         0.010000   
    597. D(Zr  3,O   9,Zr  4,Zr  1)    -52.3964         0.010000   
    598. D(Zr  0,O   9,Zr  4,Zr  1)     85.7754         0.010000   
    599. D(Zr  4,O   9,Zr  0,Zr  3)   -137.9650         0.010000   
    600. D(Zr  4,O   9,Zr  3,Zr  0)    149.7421         0.010000   
    601. D(Zr  0,O   9,Zr  3,Zr  4)   -149.7421         0.010000   
    602. D(Zr  0,O   9,Zr  3,O   6)    -23.6296         0.010000   
    603. D(Zr  3,O   9,Zr  0,Zr  5)     51.9960         0.010000   
    604. D(Zr  0,O   9,Zr  4,Zr  3)    138.1718         0.010000   
    605. D(Zr  4,O  10,Zr  1,Zr  2)     53.2760         0.010000   
    606. D(Zr  1,O  10,Zr  4,Zr  3)   -152.0346         0.010000   
    607. D(Zr  1,O  10,Zr  4,O   7)    -24.3903         0.010000   
    608. D(Zr  4,O  10,Zr  3,Zr  0)    -53.3401         0.010000   
    609. D(Zr  3,O  10,Zr  1,Zr  4)   -140.8860         0.010000   
    610. D(Zr  1,O  10,Zr  3,Zr  4)    140.7427         0.010000   
    611. D(Zr  1,O  10,Zr  3,Zr  0)     87.4026         0.010000   
    612. D(Zr  3,O  10,Zr  4,Zr  1)    152.0346         0.010000   
    613. D(Zr  3,O  10,Zr  1,Zr  2)    -87.6101         0.010000   
    614. D(Zr  2,O  11,Zr  5,Zr  0)   -151.7044         0.010000   
    615. D(Zr  0,O  11,Zr  5,Zr  2)    151.7044         0.010000   
    616. D(Zr  5,O  11,Zr  2,Zr  1)     52.7975         0.010000   
    617. D(Zr  0,O  11,Zr  2,Zr  5)   -140.5224         0.010000   
    618. D(Zr  0,O  11,Zr  2,Zr  1)    -87.7248         0.010000   
    619. D(Zr  5,O  11,Zr  0,Zr  3)    -53.1216         0.010000   
    620. D(Zr  0,O  11,Zr  5,O   6)     24.4385         0.010000   
    621. D(Zr  2,O  11,Zr  0,Zr  5)    140.7033         0.010000   
    622. D(Zr  2,O  11,Zr  0,Zr  3)     87.5817         0.010000   
    623. D(C  36,O  12,Zr  0,Zr  5)     -0.6883         0.010000   
    624. D(C  36,O  12,Zr  0,Zr  3)     50.2631         0.010000   
    625. D(H  65,O  13,Zr  0,Zr  3)   -140.2415         0.010000   
    626. D(C  37,O  13,Zr  0,Zr  5)    -54.7312         0.010000   
    627. D(C  37,O  13,Zr  0,Zr  3)      6.1740         0.010000   
    628. D(C  38,O  14,Zr  0,Zr  5)     10.5785         0.010000   
    629. D(C  38,O  14,Zr  0,Zr  3)    -64.3786         0.010000   
    630. D(H  65,O  15,Zr  0,Zr  3)    109.2471         0.010000   
    631. D(C  39,O  15,Zr  0,Zr  5)    -10.7475         0.010000   
    632. D(C  39,O  15,Zr  0,Zr  3)    -69.7242         0.010000   
    633. D(C  40,O  16,Zr  1,Zr  4)     15.4856         0.010000   
    634. D(C  40,O  16,Zr  1,Zr  2)     71.4745         0.010000   
    635. D(C  41,O  17,Zr  1,Zr  4)     -7.6067         0.010000   
    636. D(C  41,O  17,Zr  1,Zr  2)     68.1685         0.010000   
    637. D(C  42,O  18,Zr  1,Zr  4)     56.0455         0.010000   
    638. D(C  42,O  18,Zr  1,Zr  2)     -5.0994         0.010000   
    639. D(C  43,O  19,Zr  1,Zr  4)      2.5711         0.010000   
    640. D(C  43,O  19,Zr  1,Zr  2)    -47.5880         0.010000   
    641. D(C  44,O  20,Zr  2,Zr  5)      2.5720         0.010000   
    642. D(C  44,O  20,Zr  2,Zr  1)    -59.3957         0.010000   
    643. D(C  38,O  21,Zr  2,Zr  5)    -70.7072         0.010000   
    644. D(C  38,O  21,Zr  2,Zr  1)    -18.1717         0.010000   
    645. D(C  42,O  22,Zr  2,Zr  5)     42.5325         0.010000   
    646. D(C  42,O  22,Zr  2,Zr  1)     -6.3098         0.010000   
    647. D(C  45,O  23,Zr  2,Zr  5)    -74.7464         0.010000   
    648. D(C  45,O  23,Zr  2,Zr  1)      1.7770         0.010000   
    649. D(C  46,O  24,Zr  3,Zr  4)     71.4278         0.010000   
    650. D(C  46,O  24,Zr  3,Zr  0)     -4.4917         0.010000   
    651. D(H  67,O  25,Zr  3,Zr  0)     66.4939         0.010000   
    652. D(C  37,O  25,Zr  3,Zr  4)    -45.2802         0.010000   
    653. D(C  37,O  25,Zr  3,Zr  0)      4.3200         0.010000   
    654. D(C  41,O  26,Zr  3,Zr  4)     71.0266         0.010000   
    655. D(C  41,O  26,Zr  3,Zr  0)     16.0479         0.010000   
    656. D(H  67,O  27,Zr  3,Zr  0)    -17.8465         0.010000   
    657. D(C  47,O  27,Zr  3,Zr  4)     -1.7770         0.010000   
    658. D(C  47,O  27,Zr  3,Zr  0)     59.3608         0.010000   
    659. D(H  67,O  28,Zr  4,Zr  1)    105.7398         0.010000   
    660. D(C  47,O  28,Zr  4,Zr  3)     -6.6361         0.010000   
    661. D(C  47,O  28,Zr  4,Zr  1)     43.1638         0.010000   
    662. D(C  39,O  29,Zr  4,Zr  3)      8.1577         0.010000   
    663. D(C  39,O  29,Zr  4,Zr  1)    -69.0906         0.010000   
    664. D(C  43,O  30,Zr  4,Zr  3)    -60.8338         0.010000   
    665. D(C  43,O  30,Zr  4,Zr  1)      1.0593         0.010000   
    666. D(C  45,O  31,Zr  4,Zr  3)    -20.0649         0.010000   
    667. D(C  45,O  31,Zr  4,Zr  1)    -73.1159         0.010000   
    668. D(C  46,O  32,Zr  5,Zr  2)     19.9744         0.010000   
    669. D(C  46,O  32,Zr  5,Zr  0)     72.5086         0.010000   
    670. D(C  36,O  33,Zr  5,Zr  0)      0.3950         0.010000   
    671. D(C  36,O  33,Zr  5,Zr  2)     62.2611         0.010000   
    672. D(C  40,O  34,Zr  5,Zr  0)     72.2521         0.010000   
    673. D(C  40,O  34,Zr  5,Zr  2)     -4.5963         0.010000   
    674. D(C  44,O  35,Zr  5,Zr  0)    -45.0263         0.010000   
    675. D(C  44,O  35,Zr  5,Zr  2)      3.9257         0.010000   
    676. D(H  58,C  36,O  12,Zr  0)   -178.8679         0.047249   
    677. D(O  33,C  36,O  12,Zr  0)      1.2812         0.047249   
    678. D(H  58,C  36,O  33,Zr  5)    179.0748         0.047186   
    679. D(O  12,C  36,O  33,Zr  5)     -1.0742         0.047186   
    680. D(H  51,C  37,O  25,Zr  3)    177.5225         0.061273   
    681. D(O  13,C  37,O  25,H  67)    -70.2128         0.061273   
    682. D(O  13,C  37,O  25,Zr  3)     -2.0096         0.061273   
    683. D(H  51,C  37,O  13,Zr  0)    174.6487         0.069157   
    684. D(O  25,C  37,O  13,H  65)    133.4988         0.069157   
    685. D(O  25,C  37,O  13,Zr  0)     -5.8191         0.069157   
    686. D(H  50,C  38,O  21,Zr  2)   -161.2869         0.047715   
    687. D(O  14,C  38,O  21,Zr  2)     18.7992         0.047715   
    688. D(H  50,C  38,O  14,Zr  0)   -158.2746         0.046934   
    689. D(O  21,C  38,O  14,Zr  0)     21.6392         0.046934   
    690. D(H  54,C  39,O  29,Zr  4)   -157.2284         0.056662   
    691. D(O  15,C  39,O  29,Zr  4)     22.2186         0.056662   
    692. D(H  54,C  39,O  15,Zr  0)   -161.4373         0.069995   
    693. D(O  29,C  39,O  15,H  65)   -159.4145         0.069995   
    694. D(O  29,C  39,O  15,Zr  0)     19.1158         0.069995   
    695. D(H  56,C  40,O  34,Zr  5)    154.0852         0.046795   
    696. D(O  16,C  40,O  34,Zr  5)    -26.1199         0.046795   
    697. D(H  56,C  40,O  16,Zr  1)    161.0848         0.047615   
    698. D(O  34,C  40,O  16,Zr  1)    -18.7102         0.047615   
    699. D(H  48,C  41,O  26,Zr  3)    161.0081         0.047727   
    700. D(O  17,C  41,O  26,Zr  3)    -18.9516         0.047727   
    701. D(H  48,C  41,O  17,Zr  1)    156.3573         0.046925   
    702. D(O  26,C  41,O  17,Zr  1)    -23.6830         0.046925   
    703. D(H  49,C  42,O  22,Zr  2)   -174.5045         0.047192   
    704. D(O  18,C  42,O  22,Zr  2)      5.6557         0.047192   
    705. D(H  49,C  42,O  18,Zr  1)   -177.0530         0.047099   
    706. D(O  22,C  42,O  18,Zr  1)      2.7869         0.047099   
    707. D(H  52,C  43,O  30,Zr  4)   -179.8439         0.047185   
    708. D(O  19,C  43,O  30,Zr  4)      0.3288         0.047185   
    709. D(H  52,C  43,O  19,Zr  1)    177.1683         0.047252   
    710. D(O  30,C  43,O  19,Zr  1)     -3.0043         0.047252   
    711. D(H  59,C  44,O  35,Zr  5)    176.2615         0.047212   
    712. D(O  20,C  44,O  35,Zr  5)     -3.9195         0.047212   
    713. D(H  59,C  44,O  20,Zr  2)    178.9367         0.047153   
    714. D(O  35,C  44,O  20,Zr  2)     -0.8824         0.047153   
    715. D(H  55,C  45,O  31,Zr  4)   -160.8351         0.047489   
    716. D(O  23,C  45,O  31,Zr  4)     18.8142         0.047489   
    717. D(H  55,C  45,O  23,Zr  2)   -151.2593         0.046628   
    718. D(O  31,C  45,O  23,Zr  2)     29.0916         0.046628   
    719. D(H  57,C  46,O  32,Zr  5)    160.8468         0.047581   
    720. D(O  24,C  46,O  32,Zr  5)    -18.9848         0.047581   
    721. D(H  57,C  46,O  24,Zr  3)    153.5026         0.046748   
    722. D(O  32,C  46,O  24,Zr  3)    -26.6658         0.046748   
    723. D(H  53,C  47,O  28,Zr  4)   -172.5331         0.056813   
    724. D(O  27,C  47,O  28,H  67)    -73.4163         0.056813   
    725. D(O  27,C  47,O  28,Zr  4)      8.4421         0.056813   
    726. D(H  53,C  47,O  27,Zr  3)    178.6974         0.056712   
    727. D(O  28,C  47,O  27,H  67)     82.8244         0.056712   
    728. D(O  28,C  47,O  27,Zr  3)     -2.2776         0.056712   
    729. D(H  62,H  51,C  37,O  25)   -110.7263         0.132708   
    730. D(H  62,H  51,C  37,O  13)     68.8593         0.132708   
    731. D(H  67,H  53,C  47,O  28)   -100.5247         0.121586   
    732. D(H  67,H  53,C  47,O  27)     78.6122         0.121586   
    733. D(H  64,H  54,C  39,O  29)    131.5257         0.136639   
    734. D(H  64,H  54,C  39,O  15)    -48.0002         0.136639   
    735. D(H  63,Al 61,Al 60,H  62)     91.7593         0.010000   
    736. D(H  62,Al 61,Al 60,H  65)     89.5738         0.010000   
    737. D(H  62,Al 61,Al 60,H  64)    177.8395         0.010000   
    738. D(H  51,H  62,Al 61,Al 60)   -128.7454         0.010000   
    739. D(Al 60,H  62,Al 61,H  64)      1.3850         0.010000   
    740. D(H  51,H  62,Al 60,Al 61)    126.9770         0.010000   
    741. D(Al 61,H  62,Al 60,H  65)   -100.5334         0.010000   
    742. D(Al 61,H  62,Al 60,H  64)     -1.3846         0.010000   
    743. D(Al 61,H  62,H  51,C  37)     41.0300         0.010000   
    744. D(Al 60,H  62,H  51,C  37)    -79.7223         0.010000   
    745. D(Al 61,H  62,C  37,O  13)     94.2710         0.010000   
    746. D(Al 60,H  62,C  37,O  25)   -142.6768         0.010000   
    747. D(Al 60,H  62,C  37,O  13)    -12.9990         0.010000   
    748. D(Al 60,H  62,Al 61,H  63)    -96.4797         0.010000   
    749. D(Al 61,H  62,O  13,Zr  0)     42.7494         0.010000   
    750. D(Al 60,H  62,O  13,C  37)    167.9694         0.010000   
    751. D(Al 60,H  62,O  13,Zr  0)    -59.7112         0.010000   
    752. D(Al 60,H  64,Al 61,H  63)     97.5174         0.010000   
    753. D(Al 60,H  64,Al 61,H  62)     -1.3854         0.010000   
    754. D(H  54,H  64,Al 60,Al 61)   -125.1483         0.010000   
    755. D(Al 61,H  64,Al 60,H  65)    101.5202         0.010000   
    756. D(Al 61,H  64,Al 60,H  62)      1.3847         0.010000   
    757. D(Al 61,H  64,H  54,C  39)    -46.3036         0.010000   
    758. D(Al 60,H  64,H  54,C  39)     74.6887         0.010000   
    759. D(Al 61,H  64,C  39,O  15)    -88.3891         0.010000   
    760. D(Al 60,H  64,C  39,O  29)    145.2241         0.010000   
    761. D(Al 60,H  64,C  39,O  15)     18.8877         0.010000   
    762. D(Al 61,H  64,O  15,Zr  0)    -55.6102         0.010000   
    763. D(Al 60,H  64,O  15,C  39)   -162.8768         0.010000   
    764. D(H  54,H  64,Al 61,Al 60)    131.6256         0.010000   
    765. D(Al 60,H  64,O  15,Zr  0)     47.1428         0.010000   
    766. D(O  13,H  65,Al 60,Al 61)    -38.2321         0.010000   
    767. D(O  15,H  65,Al 60,H  62)     72.7199         0.010000   
    768. D(O  15,H  65,Al 60,Al 61)     32.9183         0.010000   
    769. D(O  13,H  65,O  15,Zr  0)    -32.4672         0.010000   
    770. D(Al 60,H  65,O  15,C  39)     35.6397         0.010000   
    771. D(Al 60,H  65,O  15,Zr  0)   -143.2278         0.010000   
    772. D(O  15,H  65,O  13,Zr  0)     33.5308         0.010000   
    773. D(Al 60,H  65,O  13,C  37)    -15.5911         0.010000   
    774. D(Al 60,H  65,O  13,Zr  0)    136.2032         0.010000   
    775. D(O  15,H  67,Al 61,Al 60)    -32.7957         0.011641   
    776. D(O  15,H  67,H  53,C  47)     44.1380         0.010000   
    777. D(Al 61,H  67,H  53,C  47)    176.4737         0.010000   
    778. D(Al 61,H  67,C  47,O  28)    113.9628         0.010000   
    779. D(Al 61,H  67,C  47,O  27)   -118.1559         0.010000   
    780. D(O  15,H  67,C  39,O  29)    128.7563         0.010000   
    781. D(Al 61,H  67,C  39,O  15)    100.8928         0.010000   
    782. D(O  15,H  67,C  37,O  13)      8.3869         0.010000   
    783. D(Al 61,H  67,C  37,O  25)    123.8897         0.010000   
    784. D(Al 61,H  67,C  37,O  13)   -105.5899         0.010000   
    785. D(O  15,H  67,O  28,Zr  4)     26.4419         0.010000   
    786. D(Al 61,H  67,O  28,C  47)    -81.5022         0.010000   
    787. D(Al 61,H  67,O  28,Zr  4)    148.7114         0.010000   
    788. D(O  15,H  67,O  27,Zr  3)     40.8108         0.010000   
    789. D(Al 61,H  67,O  27,C  47)     79.8667         0.010000   
    790. D(Al 61,H  67,O  27,Zr  3)   -146.7484         0.010000   
    791. D(O  15,H  67,O  25,Zr  3)    -77.0188         0.010000   
    792. D(Al 61,H  67,O  25,C  37)    -67.3161         0.010000   
    793. D(Al 61,H  67,O  25,Zr  3)    157.4025         0.010000   
    794. D(O  27,H  67,O  15,Zr  0)    -47.6784         0.010000   
    795. D(Al 61,H  67,O  15,C  39)    -91.0296         0.010000   
    796. D(Al 61,H  67,C  39,O  29)   -130.3509         0.010000   
    797. D(Al 61,H  67,O  15,Zr  0)    138.8657         0.010000   
    798. D(O  15,H  67,O  13,Zr  0)    -34.9736         0.010000   
    799. D(Al 61,H  67,O  13,C  37)     84.9934         0.010000   
    800. D(O  15,H  67,C  47,O  27)    101.5377         0.010000   
    801. D(Al 61,H  67,O  13,Zr  0)   -139.8181         0.010000   
    802. D(O  15,H  67,O   9,Zr  0)     40.8117         0.010000   
    803. D(Al 61,H  67,O   9,Zr  3)    164.0885         0.010000   
    804. D(O  15,H  67,Al 61,H  62)    -71.9981         0.011641   
    805. D(Al 61,H  67,O   9,Zr  0)     55.8729         0.010000   
    806. D(O  27,H  67,Al 61,Al 60)    154.6036         0.011641   
    -----------------------------------------------------------------

Number of atoms                         .... 68
Number of degrees of freedom            .... 806


         *************************************************************
         *                GEOMETRY OPTIMIZATION CYCLE   1            *
         *************************************************************
---------------------------------
CARTESIAN COORDINATES (ANGSTROEM)
---------------------------------
  Zr    -0.323138    2.131429    1.482825
  Zr     0.323836   -2.148744   -1.433657
  Zr     1.661184   -1.265373    1.590527
  Zr    -1.661049    1.261487   -1.550442
  Zr     1.742782    0.956435   -1.667216
  Zr    -1.744999   -0.967887    1.704691
  O     -1.663070    0.820467    0.545860
  O      1.666843   -0.829755   -0.507130
  O     -0.113457   -1.848414    0.627776
  O      0.113142    1.852220   -0.591820
  O     -0.058667   -0.091640   -1.906141
  O      0.055190    0.079186    1.952082
  O     -1.263063    2.111566    3.212690
  O     -1.708710    3.472858    1.038516
  O      1.319346    2.005973    2.748099
  O      0.947861    3.600191    0.879615
  O     -0.914939   -3.638751   -0.800194
  O     -1.347735   -2.031991   -2.651675
  O      1.722559   -3.478101   -0.997285
  O      1.228464   -2.124648   -3.180090
  O      1.016843   -2.552317    2.946677
  O      2.100807   -0.150915    3.238301
  O      2.735198   -2.800492    0.986805
  O      3.409856   -0.260410    1.116095
  O     -3.425041    0.288500   -1.064655
  O     -2.712886    2.813690   -0.955564
  O     -2.114936    0.121120   -3.178621
  O     -1.015920    2.505504   -2.946017
  O      1.309239    2.382539   -2.955523
  O      2.459467    2.559224   -0.579908
  O      2.229973   -0.027402   -3.312376
  O      3.638085    0.436136   -1.113165
  O     -3.637927   -0.445067    1.153863
  O     -2.232667    0.000117    3.356716
  O     -2.457145   -2.570974    0.608582
  O     -1.307480   -2.413758    2.969687
  C     -1.975215    1.195062    3.793675
  C     -2.583325    3.579037    0.084772
  C      2.006176    1.129955    3.417170
  C      2.043012    3.518643    0.189637
  C     -2.016184   -3.551617   -0.120554
  C     -2.031290   -1.163555   -3.333899
  C      2.590069   -3.584935   -0.037231
  C      1.955631   -1.216365   -3.755341
  C     -0.165596   -2.889078    3.363517
  C      4.075042    0.122804    0.067500
  C     -4.082352   -0.115708   -0.019369
  C      0.164818    2.818758   -3.385981
  H     -2.617987   -1.572023   -4.152124
  H      3.276753   -4.428959   -0.099846
  H      2.583768    1.527201    4.247166
  H     -3.284192    4.409891    0.163275
  H      2.382870   -1.481092   -4.722350
  H      0.199506    3.542071   -4.200525
  H      2.702506    4.379376    0.259002
  H      5.151396    0.196448    0.199498
  H     -2.663931   -4.422798   -0.170922
  H     -5.158979   -0.191172   -0.146661
  H     -2.404530    1.457913    4.760283
  H     -0.203819   -3.662082    4.130791
  Al    -0.386378    6.779396    0.992387
  Al    -0.257713    5.961673   -1.486325
  H     -1.369305    6.341262   -0.292479
  H     -0.212931    7.342241   -2.302122
  H      0.724679    6.361851   -0.190331
  H     -0.399808    5.453847    1.897111
  H     -0.390323    8.369048    0.777259
  H     -0.238237    4.374120   -1.271271

----------------------------
CARTESIAN COORDINATES (A.U.)
----------------------------
  NO LB      ZA    FRAG     MASS         X           Y           Z
   0 Zr   12.0000*   0    91.220   -0.610642    4.027817    2.802134
   1 Zr   12.0000*   0    91.220    0.611962   -4.060537   -2.709219
   2 Zr   12.0000*   0    91.220    3.139184   -2.391209    3.005661
   3 Zr   12.0000*   0    91.220   -3.138928    2.383865   -2.929911
   4 Zr   12.0000*   0    91.220    3.293380    1.807400   -3.150581
   5 Zr   12.0000*   0    91.220   -3.297570   -1.829042    3.221399
   6 O     8.0000    0    15.999   -3.142746    1.550457    1.031525
   7 O     8.0000    0    15.999    3.149876   -1.568010   -0.958338
   8 O     8.0000    0    15.999   -0.214402   -3.492997    1.186324
   9 O     8.0000    0    15.999    0.213808    3.500189   -1.118377
  10 O     8.0000    0    15.999   -0.110864   -0.173174   -3.602084
  11 O     8.0000    0    15.999    0.104293    0.149640    3.688901
  12 O     8.0000    0    15.999   -2.386843    3.990282    6.071105
  13 O     8.0000    0    15.999   -3.228994    6.562751    1.962511
  14 O     8.0000    0    15.999    2.493203    3.790740    5.193154
  15 O     8.0000    0    15.999    1.791197    6.803374    1.662232
  16 O     8.0000    0    15.999   -1.728985   -6.876244   -1.512147
  17 O     8.0000    0    15.999   -2.546849   -3.839907   -5.010939
  18 O     8.0000    0    15.999    3.255165   -6.572658   -1.884595
  19 O     8.0000    0    15.999    2.321460   -4.015002   -6.009500
  20 O     8.0000    0    15.999    1.921555   -4.823180    5.568412
  21 O     8.0000    0    15.999    3.969949   -0.285188    6.119503
  22 O     8.0000    0    15.999    5.168775   -5.292163    1.864791
  23 O     8.0000    0    15.999    6.443694   -0.492103    2.109114
  24 O     8.0000    0    15.999   -6.472390    0.545186   -2.011906
  25 O     8.0000    0    15.999   -5.126612    5.317104   -1.805754
  26 O     8.0000    0    15.999   -3.996651    0.228883   -6.006723
  27 O     8.0000    0    15.999   -1.919811    4.734716   -5.567165
  28 O     8.0000    0    15.999    2.474102    4.502346   -5.585129
  29 O     8.0000    0    15.999    4.647719    4.836233   -1.095868
  30 O     8.0000    0    15.999    4.214038   -0.051783   -6.259484
  31 O     8.0000    0    15.999    6.874983    0.824178   -2.103577
  32 O     8.0000    0    15.999   -6.874685   -0.841055    2.180485
  33 O     8.0000    0    15.999   -4.219129    0.000221    6.343274
  34 O     8.0000    0    15.999   -4.643331   -4.858437    1.150053
  35 O     8.0000    0    15.999   -2.470780   -4.561341    5.611895
  36 C     6.0000    0    12.011   -3.732616    2.258340    7.169006
  37 C     6.0000    0    12.011   -4.881776    6.763400    0.160195
  38 C     6.0000    0    12.011    3.791124    2.135306    6.457516
  39 C     6.0000    0    12.011    3.860734    6.649272    0.358361
  40 C     6.0000    0    12.011   -3.810036   -6.711583   -0.227814
  41 C     6.0000    0    12.011   -3.838582   -2.198801   -6.300157
  42 C     6.0000    0    12.011    4.894521   -6.774545   -0.070357
  43 C     6.0000    0    12.011    3.695608   -2.298596   -7.096566
  44 C     6.0000    0    12.011   -0.312932   -5.459567    6.356126
  45 C     6.0000    0    12.011    7.700714    0.232065    0.127556
  46 C     6.0000    0    12.011   -7.714527   -0.218656   -0.036603
  47 C     6.0000    0    12.011    0.311461    5.326680   -6.398577
  48 H     1.0000    0     1.008   -4.947278   -2.970694   -7.846376
  49 H     1.0000    0     1.008    6.192165   -8.369520   -0.188682
  50 H     1.0000    0     1.008    4.882615    2.885991    8.025980
  51 H     1.0000    0     1.008   -6.206224    8.333486    0.308546
  52 H     1.0000    0     1.008    4.502971   -2.798859   -8.923948
  53 H     1.0000    0     1.008    0.377011    6.693545   -7.937842
  54 H     1.0000    0     1.008    5.106997    8.275822    0.489443
  55 H     1.0000    0     1.008    9.734727    0.371233    0.376997
  56 H     1.0000    0     1.008   -5.034099   -8.357877   -0.322995
[...]
198:   2896.07   0.019860  100.37  0.002140  (-0.027364  0.037184  0.002931)
199:   2903.69   0.021587  109.09  0.002320  (-0.004550  0.036913 -0.030605)
200:   2906.20   0.002899   14.65  0.000311  ( 0.011751 -0.012956  0.002307)
201:   2906.74   0.017333   87.60  0.001861  (-0.009919  0.035389 -0.022585)
202:   2907.15   0.054555  275.70  0.005856  (-0.037892  0.021238  0.063002)
203:   2908.13   0.011941   60.35  0.001281  ( 0.007402 -0.028953  0.019706)

* The epsilon (eps) is given for a Dirac delta lineshape.
** The dipole moment derivative (T) already includes vibrational overlap.

The first frequency considered to be a vibration is 6
The total number of vibrations considered is 198


--------------------------
THERMOCHEMISTRY AT 298.15K
--------------------------

Temperature         ...   298.15 K
Pressure            ...     1.00 atm
Total Mass          ...  1243.53 AMU
Quasi RRHO          ...     True
Cut-Off Frequency   ...     1.00 cm^-1

Throughout the following assumptions are being made:
  (1) The electronic state is orbitally nondegenerate
  (2) There are no thermally accessible electronically excited states
  (3) Hindered rotations indicated by low frequency modes are not
      treated as such but are treated as vibrations and this may
      cause some error
  (4) All equations used are the standard statistical mechanics
      equations for an ideal gas
  (5) All vibrations are strictly harmonic

freq.      10.35  E(vib)   ...       0.58 
freq.      27.71  E(vib)   ...       0.55 
freq.      37.03  E(vib)   ...       0.54 
freq.      46.69  E(vib)   ...       0.53 
freq.      48.46  E(vib)   ...       0.53 
freq.      52.23  E(vib)   ...       0.52 
freq.      60.82  E(vib)   ...       0.51 
freq.      64.35  E(vib)   ...       0.51 
freq.      69.37  E(vib)   ...       0.50 
freq.      74.46  E(vib)   ...       0.49 
freq.      80.61  E(vib)   ...       0.48 
freq.      82.70  E(vib)   ...       0.48 
freq.      86.40  E(vib)   ...       0.48 
freq.      96.22  E(vib)   ...       0.47 
freq.      98.58  E(vib)   ...       0.46 
freq.      99.87  E(vib)   ...       0.46 
freq.     100.89  E(vib)   ...       0.46 
freq.     101.72  E(vib)   ...       0.46 
freq.     107.48  E(vib)   ...       0.45 
freq.     107.58  E(vib)   ...       0.45 
freq.     112.29  E(vib)   ...       0.45 
freq.     116.43  E(vib)   ...       0.44 
freq.     117.22  E(vib)   ...       0.44 
freq.     125.90  E(vib)   ...       0.43 
freq.     134.52  E(vib)   ...       0.42 
freq.     137.22  E(vib)   ...       0.42 
freq.     149.89  E(vib)   ...       0.40 
freq.     151.43  E(vib)   ...       0.40 
freq.     151.87  E(vib)   ...       0.40 
freq.     153.36  E(vib)   ...       0.40 
freq.     156.98  E(vib)   ...       0.40 
freq.     158.10  E(vib)   ...       0.39 
freq.     159.17  E(vib)   ...       0.39 
freq.     160.45  E(vib)   ...       0.39 
freq.     165.13  E(vib)   ...       0.39 
freq.     167.61  E(vib)   ...       0.38 
freq.     172.11  E(vib)   ...       0.38 
freq.     172.63  E(vib)   ...       0.38 
freq.     176.38  E(vib)   ...       0.38 
freq.     187.35  E(vib)   ...       0.36 
freq.     187.99  E(vib)   ...       0.36 
freq.     189.06  E(vib)   ...       0.36 
freq.     191.83  E(vib)   ...       0.36 
freq.     193.00  E(vib)   ...       0.36 
freq.     193.57  E(vib)   ...       0.36 
freq.     205.06  E(vib)   ...       0.35 
freq.     207.94  E(vib)   ...       0.34 
freq.     211.81  E(vib)   ...       0.34 
freq.     212.68  E(vib)   ...       0.34 
freq.     224.56  E(vib)   ...       0.33 
freq.     225.54  E(vib)   ...       0.33 
freq.     232.49  E(vib)   ...       0.32 
freq.     234.09  E(vib)   ...       0.32 
freq.     245.52  E(vib)   ...       0.31 
freq.     248.96  E(vib)   ...       0.31 
freq.     259.82  E(vib)   ...       0.30 
freq.     260.59  E(vib)   ...       0.30 
freq.     262.52  E(vib)   ...       0.29 
freq.     263.04  E(vib)   ...       0.29 
freq.     265.20  E(vib)   ...       0.29 
freq.     265.54  E(vib)   ...       0.29 
freq.     271.23  E(vib)   ...       0.29 
freq.     271.32  E(vib)   ...       0.29 
freq.     273.53  E(vib)   ...       0.29 
freq.     274.01  E(vib)   ...       0.28 
freq.     275.94  E(vib)   ...       0.28 
freq.     278.87  E(vib)   ...       0.28 
freq.     285.31  E(vib)   ...       0.28 
freq.     286.36  E(vib)   ...       0.27 
freq.     288.48  E(vib)   ...       0.27 
freq.     289.46  E(vib)   ...       0.27 
freq.     292.99  E(vib)   ...       0.27 
freq.     298.59  E(vib)   ...       0.26 
freq.     303.86  E(vib)   ...       0.26 
freq.     305.61  E(vib)   ...       0.26 
freq.     309.13  E(vib)   ...       0.26 
freq.     309.98  E(vib)   ...       0.26 
freq.     311.34  E(vib)   ...       0.25 
freq.     313.60  E(vib)   ...       0.25 
freq.     313.93  E(vib)   ...       0.25 
freq.     316.44  E(vib)   ...       0.25 
freq.     321.39  E(vib)   ...       0.25 
freq.     322.24  E(vib)   ...       0.25 
freq.     324.98  E(vib)   ...       0.24 
freq.     339.45  E(vib)   ...       0.23 
freq.     341.04  E(vib)   ...       0.23 
freq.     350.71  E(vib)   ...       0.23 
freq.     351.80  E(vib)   ...       0.23 
freq.     359.09  E(vib)   ...       0.22 
freq.     366.07  E(vib)   ...       0.22 
freq.     369.12  E(vib)   ...       0.21 
freq.     385.86  E(vib)   ...       0.20 
freq.     392.61  E(vib)   ...       0.20 
freq.     398.83  E(vib)   ...       0.19 
freq.     400.51  E(vib)   ...       0.19 
freq.     402.11  E(vib)   ...       0.19 
freq.     403.73  E(vib)   ...       0.19 
freq.     416.28  E(vib)   ...       0.18 
freq.     417.49  E(vib)   ...       0.18 
freq.     421.56  E(vib)   ...       0.18 
freq.     424.31  E(vib)   ...       0.18 
freq.     464.56  E(vib)   ...       0.16 
freq.     465.92  E(vib)   ...       0.16 
freq.     472.83  E(vib)   ...       0.15 
freq.     478.50  E(vib)   ...       0.15 
freq.     481.36  E(vib)   ...       0.15 
freq.     531.85  E(vib)   ...       0.13 
freq.     542.10  E(vib)   ...       0.12 
freq.     606.18  E(vib)   ...       0.10 
freq.     618.32  E(vib)   ...       0.09 
freq.     668.07  E(vib)   ...       0.08 
freq.     670.65  E(vib)   ...       0.08 
freq.     680.31  E(vib)   ...       0.08 
freq.     681.10  E(vib)   ...       0.08 
freq.     685.24  E(vib)   ...       0.07 
freq.     709.18  E(vib)   ...       0.07 
freq.     726.65  E(vib)   ...       0.06 
freq.     736.02  E(vib)   ...       0.06 
freq.     736.67  E(vib)   ...       0.06 
freq.     736.97  E(vib)   ...       0.06 
freq.     736.99  E(vib)   ...       0.06 
freq.     737.37  E(vib)   ...       0.06 
freq.     738.58  E(vib)   ...       0.06 
freq.     739.76  E(vib)   ...       0.06 
freq.     740.04  E(vib)   ...       0.06 
freq.     740.27  E(vib)   ...       0.06 
freq.     740.78  E(vib)   ...       0.06 
freq.     741.68  E(vib)   ...       0.06 
freq.     741.92  E(vib)   ...       0.06 
freq.     796.06  E(vib)   ...       0.05 
freq.    1000.46  E(vib)   ...       0.02 
freq.    1000.65  E(vib)   ...       0.02 
freq.    1000.75  E(vib)   ...       0.02 
freq.    1001.07  E(vib)   ...       0.02 
freq.    1002.20  E(vib)   ...       0.02 
freq.    1002.74  E(vib)   ...       0.02 
freq.    1004.02  E(vib)   ...       0.02 
freq.    1004.32  E(vib)   ...       0.02 
freq.    1004.49  E(vib)   ...       0.02 
freq.    1004.87  E(vib)   ...       0.02 
freq.    1005.06  E(vib)   ...       0.02 
freq.    1005.44  E(vib)   ...       0.02 
freq.    1258.88  E(vib)   ...       0.01 
freq.    1340.71  E(vib)   ...       0.01 
freq.    1347.83  E(vib)   ...       0.01 
freq.    1348.72  E(vib)   ...       0.01 
freq.    1349.32  E(vib)   ...       0.01 
freq.    1349.79  E(vib)   ...       0.01 
freq.    1350.66  E(vib)   ...       0.01 
freq.    1352.03  E(vib)   ...       0.01 
freq.    1352.69  E(vib)   ...       0.01 
freq.    1353.02  E(vib)   ...       0.01 
freq.    1353.65  E(vib)   ...       0.01 
freq.    1354.18  E(vib)   ...       0.01 
freq.    1354.97  E(vib)   ...       0.01 
freq.    1355.42  E(vib)   ...       0.01 
freq.    1361.36  E(vib)   ...       0.01 
freq.    1361.71  E(vib)   ...       0.01 
freq.    1361.84  E(vib)   ...       0.01 
freq.    1362.01  E(vib)   ...       0.01 
freq.    1365.14  E(vib)   ...       0.01 
freq.    1365.55  E(vib)   ...       0.01 
freq.    1368.00  E(vib)   ...       0.01 
freq.    1370.12  E(vib)   ...       0.01 
freq.    1370.21  E(vib)   ...       0.01 
freq.    1373.81  E(vib)   ...       0.01 
freq.    1374.58  E(vib)   ...       0.01 
freq.    1382.26  E(vib)   ...       0.01 
freq.    1394.96  E(vib)   ...       0.00 
freq.    1477.46  E(vib)   ...       0.00 
freq.    1545.48  E(vib)   ...       0.00 
freq.    1555.53  E(vib)   ...       0.00 
freq.    1564.01  E(vib)   ...       0.00 
freq.    1565.49  E(vib)   ...       0.00 
freq.    1571.37  E(vib)   ...       0.00 
freq.    1576.63  E(vib)   ...       0.00 
freq.    1578.35  E(vib)   ...       0.00 
freq.    1630.86  E(vib)   ...       0.00 
freq.    1631.33  E(vib)   ...       0.00 
freq.    1634.99  E(vib)   ...       0.00 
freq.    1637.03  E(vib)   ...       0.00 
freq.    1637.54  E(vib)   ...       0.00 
freq.    1879.61  E(vib)   ...       0.00 
freq.    1886.97  E(vib)   ...       0.00 
freq.    1915.64  E(vib)   ...       0.00 
freq.    1932.33  E(vib)   ...       0.00 
freq.    2876.15  E(vib)   ...       0.00 
freq.    2886.86  E(vib)   ...       0.00 
freq.    2887.87  E(vib)   ...       0.00 
freq.    2888.08  E(vib)   ...       0.00 
freq.    2888.27  E(vib)   ...       0.00 
freq.    2889.71  E(vib)   ...       0.00 
freq.    2896.07  E(vib)   ...       0.00 
freq.    2903.69  E(vib)   ...       0.00 
freq.    2906.20  E(vib)   ...       0.00 
freq.    2906.74  E(vib)   ...       0.00 
freq.    2907.15  E(vib)   ...       0.00 
freq.    2908.13  E(vib)   ...       0.00 

------------
INNER ENERGY
------------

The inner energy is: U= E(el) + E(ZPE) + E(vib) + E(rot) + E(trans)
    E(el)   - is the total energy from the electronic structure calculation
              = E(kin-el) + E(nuc-el) + E(el-el) + E(nuc-nuc)
    E(ZPE)  - the the zero temperature vibrational energy from the frequency calculation
    E(vib)  - the the finite temperature correction to E(ZPE) due to population
              of excited vibrational states
    E(rot)  - is the rotational thermal energy
    E(trans)- is the translational thermal energy

Summary of contributions to the inner energy U:
Electronic energy                ...  -3488.52217788 Eh
Zero point energy                ...      0.34951735 Eh     219.32 kcal/mol
Thermal vibrational correction   ...      0.05957042 Eh      37.38 kcal/mol
Thermal rotational correction    ...      0.00141627 Eh       0.89 kcal/mol
Thermal translational correction ...      0.00141627 Eh       0.89 kcal/mol
-----------------------------------------------------------------------
Total thermal energy                  -3488.11025756 Eh


Summary of corrections to the electronic energy:
(perhaps to be used in another calculation)
Total thermal correction                  0.06240296 Eh      39.16 kcal/mol
Non-thermal (ZPE) correction              0.34951735 Eh     219.32 kcal/mol
-----------------------------------------------------------------------
Total correction                          0.41192031 Eh     258.48 kcal/mol


--------
ENTHALPY
--------

The enthalpy is H = U + kB*T
                kB is Boltzmann's constant
Total thermal energy              ...  -3488.11025756 Eh 
Thermal Enthalpy correction       ...      0.00094421 Eh       0.59 kcal/mol
-----------------------------------------------------------------------
Total Enthalpy                    ...  -3488.10931336 Eh


Note: Only C1 symmetry has been detected, increase convergence thresholds 
      if your molecule has a higher symmetry. Symmetry factor of 1.0 is   
      used for the rotational entropy correction. 
 

Note: Rotational entropy computed according to Herzberg 
Infrared and Raman Spectra, Chapter V,1, Van Nostrand Reinhold, 1945 
Point Group:  C1, Symmetry Number:   1  
Rotational constants in cm-1:     0.001838     0.001443     0.001388 

Vibrational entropy computed according to the QRRHO of S. Grimme
Chem.Eur.J. 2012 18 9955 using a reference frequency of 100.0 cm-1


-------
ENTROPY
-------

The entropy contributions are T*S = T*(S(el)+S(vib)+S(rot)+S(trans))
     S(el)   - electronic entropy
     S(vib)  - vibrational entropy
     S(rot)  - rotational entropy
     S(trans)- translational entropy
The entropies will be listed as multiplied by the temperature to get
units of energy

Electronic entropy                ...      0.00000000 Eh      0.00 kcal/mol
Vibrational entropy               ...      0.10737908 Eh     67.38 kcal/mol
Rotational entropy                ...      0.01867897 Eh     11.72 kcal/mol
Translational entropy             ...      0.02244101 Eh     14.08 kcal/mol
-----------------------------------------------------------------------
Final entropy term                ...      0.14849906 Eh     93.18 kcal/mol

In case the symmetry of your molecule has not been determined correctly
or in case you have a reason to use a different symmetry number we print 
out the resulting rotational entropy values for sn=1,12:

 non-linear molecules -----------------------------------
|  sn= 1 | S(rot)=       0.01867897 Eh     11.72 kcal/mol|
|  sn= 2 | S(rot)=       0.01802451 Eh     11.31 kcal/mol|
|  sn= 3 | S(rot)=       0.01764168 Eh     11.07 kcal/mol|
|  sn= 4 | S(rot)=       0.01737006 Eh     10.90 kcal/mol|
|  sn= 5 | S(rot)=       0.01715937 Eh     10.77 kcal/mol|
|  sn= 6 | S(rot)=       0.01698722 Eh     10.66 kcal/mol|
|  sn= 7 | S(rot)=       0.01684168 Eh     10.57 kcal/mol|
|  sn= 8 | S(rot)=       0.01671560 Eh     10.49 kcal/mol|
|  sn= 9 | S(rot)=       0.01660439 Eh     10.42 kcal/mol|
|  sn=10 | S(rot)=       0.01650491 Eh     10.36 kcal/mol|
|  sn=11 | S(rot)=       0.01641492 Eh     10.30 kcal/mol|
|  sn=12 | S(rot)=       0.01633277 Eh     10.25 kcal/mol|
 linear molecules ---------------------------------------
|  Dinfh | S(rot)=       0.01153857 Eh      7.24 kcal/mol|
|  Cinfv | S(rot)=       0.01219303 Eh      7.65 kcal/mol|
 --------------------------------------------------------


-------------------
GIBBS FREE ENERGY
-------------------

The Gibbs free energy is G = H - T*S

Total enthalpy                    ...  -3488.10931336 Eh 
Total entropy correction          ...     -0.14849906 Eh    -93.18 kcal/mol
-----------------------------------------------------------------------
Final Gibbs free energy         ...  -3488.25781241 Eh

For completeness - the Gibbs free energy minus the electronic energy
G-E(el)                           ...      0.26436547 Eh    165.89 kcal/mol


Maximum memory used throughout the entire PROP-calculation: 138.3 MB

--------------------------------
SUGGESTED CITATIONS FOR THIS RUN
--------------------------------

Below you find a list of papers that are relevant to this ORCA run
We neither can nor want to force you to cite these papers, but we appreciate if you do
You receive ORCA, which is the product of decades of hard work by many enthusiastic individuals, for free
The only thing we kindly ask in return is that you cite our papers,
We deeply appreciate it, if you show your appreciation for ORCA by not just citing the generic ORCA reference.

Please note that relegating all ORCA citations to the supporting information does *not* help us.
SI sections are not indexed - citations you put there will not count into any citation statistics
But we need these citations in order to attract the funding resources that allow us to do what we are doing

Therefore, if you are a happy ORCA user, please consider citing a few of the papers listed below in the main body of your paper

In addition to the list printed below, the program has created the file run.bibtex that contains the list in bibtex format
You can import this file easily into all common literature databanks and citation aid programs


List of essential papers. We consider these as the minimum necessary citations

  1. Neese, F.
     Software update: the ORCA program system, version 6.0
     WIRES Comput. Molec. Sci. 2025 15(1), e70019
     doi.org/10.1002/wcms.7019

List of papers to cite with high priority. The work reported in these papers was absolutely
necessary for this run to complete.
Our perspective: the developers of density functionals and basis sets usually get cited in chemistry papers
Good! But without the algorithms to do something with them, the functionals or basis sets would not do anything.
Hence, in our opinion, the algorithm design and method developments papers are equally worthy of getting cited

  1. Neese, F.
     An improvement of the resolution of the identity approximation for the formation of the Coulomb matrix
     J. Comp. Chem. 2003 24(14), 1740-1747
     doi.org/10.1002/jcc.10318
  2. Grimme, S.; Antony, J.; Ehrlich, S.; Krieg, H.
     A consistent and accurate ab initio parametrization of density functional dispersion correction (DFT-D) for the 94 elements H-Pu
     J. Chem. Phys. 2010 132 , 154104
     doi.org/10.1063/1.3382344
  3. Grimme, S.; Ehrlich, S.; Goerigk, L.
     Effect of the damping function in dispersion corrected density functional theory
     J. Comput. Chem. 2011 32(7), 1456-1465
     doi.org/10.1002/jcc.21759
  4. Bykov, D.; Petrenko, T.; Izsak, R.; Kossmann, S.; Becker, U.; Valeev, E.; Neese, F.
     Efficient implementation of the analytic second derivatives of Hartree-Fock and hybrid DFT energies: a detailed analysis of different approximations
     Molec. Phys. 2015 113 , 1961-1977
     doi.org/10.1080/00268976.2015.1025114
  5. Helmich-Paris, B.
     A trust-region augmented Hessian implementation for restricted and unrestricted Hartree–Fock and Kohn–Sham methods
     J. Chem. Phys. 2021 154 , 164104
     doi.org/10.1063/5.0040798
  6. Neese, F.
     The SHARK Integral Generation and Digestion System
     J. Comp. Chem. 2022 44(3), 381
     doi.org/10.1002/jcc.26942

List of suggested additional citations. These are papers that are important in the 'surrounding' of 
of this run, or papers that preceded the highly important papers. If you like your results we are grateful for a citation.

  1. Neese, F.
     The ORCA program system
     WIRES Comput. Molec. Sci. 2012 2(1), 73-78
     doi.org/10.1002/wcms.81
  2. Neese, F.
     Software update: the ORCA program system, version 4.0
     WIRES Comput. Molec. Sci. 2018 8(1), 1-6
     doi.org/10.1002/wcms.1327
  3. Neese, F.; Wennmohs, F.; Becker, U.; Riplinger, C.
     The ORCA quantum chemistry program package
     J. Chem. Phys. 2020 152(22), 224108
     doi.org/10.1063/5.0004608
  4. Neese, F.
     Software update: The ORCA program system—Version 5.0
     WIRES Comput. Molec. Sci. 2022 12(1), e1606
     doi.org/10.1002/wcms.1606

List of optional additional citations

  1. Neese, F.
     Approximate second-order SCF convergence for spin unrestricted wavefunctions
     Chem. Phys. Lett. 2000 325(1-3), 93-98
     doi.org/10.1016/s0009-2614(00)00662-x

Timings for individual modules:

Sum of individual times          ...    21189.260 sec (= 353.154 min)
Startup calculation              ...     3168.949 sec (=  52.816 min)  15.0 %
SCF iterations                   ...     7585.784 sec (= 126.430 min)  35.8 %
Property integrals               ...     4339.403 sec (=  72.323 min)  20.5 %
SCF Response                     ...     1347.988 sec (=  22.466 min)   6.4 %
Property calculations            ...     1428.853 sec (=  23.814 min)   6.7 %
SCF Gradient evaluation          ...     3299.027 sec (=  54.984 min)  15.6 %
Geometry relaxation              ...       19.257 sec (=   0.321 min)   0.1 %
                             ****ORCA TERMINATED NORMALLY****
TOTAL RUN TIME: 0 days 6 hours 42 minutes 58 seconds 305 msec
