
                                 *****************
                                 * O   R   C   A *
                                 *****************

                                            #,                                       
                                            ###                                      
                                            ####                                     
                                            #####                                    
                                            ######                                   
                                           ########,                                 
                                     ,,################,,,,,                         
                               ,,#################################,,                 
                          ,,##########################################,,             
                       ,#########################################, ''#####,          
                    ,#############################################,,   '####,        
                  ,##################################################,,,,####,       
                ,###########''''           ''''###############################       
              ,#####''   ,,,,##########,,,,          '''####'''          '####       
            ,##' ,,,,###########################,,,                        '##       
           ' ,,###''''                  '''############,,,                           
         ,,##''                                '''############,,,,        ,,,,,,###''
      ,#''                                            '''#######################'''  
     '                                                          ''''####''''         
             ,#######,   #######,   ,#######,      ##                                
            ,#'     '#,  ##    ##  ,#'     '#,    #''#        ,####,    ,#,          
            ##       ##  ##   ,#'  ##            #'  '#       #'       ,# #          
            ##       ##  #######   ##           ,######,      #####,      #          
            '#,     ,#'  ##    ##  '#,     ,#' ,#      #,     #,   #      #          
             '#######'   ##     ##  '#######'  #'      '#     '####' #    #          



                #########################################################
                #                        -***-                          #
                #          Department of theory and spectroscopy        #
                #                                                       #
                #                      Frank Neese                      #
                #                                                       #
                #     Directorship, Architecture, Infrastructure        #
                #                    SHARK, DRIVERS                     #
                #        Core code/Algorithms in most modules           #
                #                                                       #
                #        Max Planck Institute fuer Kohlenforschung      #
                #                Kaiser Wilhelm Platz 1                 #
                #                 D-45470 Muelheim/Ruhr                 #
                #                      Germany                          #
                #                                                       #
                #                  All rights reserved                  #
                #                        -***-                          #
                #########################################################


                         Program Version 6.1.0  -  RELEASE   -
                                (GIT: $679e74b$)
                          ($2025-06-10 18:02:51 +0200$)


 With contributions from (in alphabetic order):
[Max-Planck-Institut fuer Kohlenforschung]                               
  Daniel Aravena         : Magnetic Suceptibility                        
  Michael Atanasov       : Ab Initio Ligand Field Theory (pilot matlab implementation)
  Alexander A. Auer      : GIAO ZORA, VPT2 properties, NMR spectrum      
  Ute Becker             : All parallelization in ORCA, NUMFREQ, NUMCALC 
  Giovanni Bistoni       : ED, misc. LED, open-shell LED, HFLD           
  Dmytro Bykov           : pre 5.0 version of the SCF Hessian            
  Marcos Casanova-Páez   : Triplet and SCS-CIS(D). UHF-(DLPNO)-IP/EA/STEOM-CCSD. UHF-CVS-IP/STEOM-CCSD   
  Vijay G. Chilkuri      : MRCI spin determinant printing, contributions to CSF-ICE 
  Pauline Colinet        : FMM embedding                                 
  Dipayan Datta          : RHF DLPNO-CCSD density                        
  Achintya Kumar Dutta   : EOM-CC, STEOM-CC                              
  Nicolas Foglia         : Exact transition moments, OPA infrastructure, MCD improvements    
  Dmitry Ganyushin       : Spin-Orbit,Spin-Spin,Magnetic field MRCI      
  Miquel Garcia-Rates    : C-PCM and meta-GGA Hessian, CCSD/C-PCM, Gaussian charge scheme 
  Tiago L. C. Gouveia    : GS-ROHF, GS-ROCIS                             
  Yang Guo               : DLPNO-NEVPT2, F12-NEVPT2, CIM, IAO-localization        
  Andreas Hansen         : Spin unrestricted coupled pair/coupled cluster methods 
  Ingolf Harden          : AUTO-CI MPn and infrastructure                
  Benjamin Helmich-Paris : MC-RPA, TRAH-(SCF,CASSCF), AVAS, COSX integrals, SCF dyn. polar., MC-PDFT, srDFT 
  Lee Huntington         : MR-EOM, pCC                                   
  Robert Izsak           : Overlap fitted RIJCOSX, COSX-SCS-MP3, EOM     
  Riya Kayal             : Wick's Theorem for AUTO-CI, AUTO-CI UHF-CCSDT 
  Emily Kempfer          : AUTO-CI RHF CISDT and CCSDT, approximate NEVPT4
  Christian Kollmar      : KDIIS, OOCD, Brueckner-CCSD(T), CCSD density, CASPT2, CASPT2-K, improved NEVPT2 
  Axel Koslowski         : Symmetry handling                             
  Simone Kossmann        : meta-GGA functionals, TD-DFT gradient, OOMP2, (MP2 Hessian; deprecated post 5.0) 
  Lucas Lang             : DCDCAS, Hyperfine gauge corrections, ICE-SOC+SSC
  Marvin Lechner         : AUTO-CI (C++ implementation), FIC-MRCC        
  Spencer Leger          : CASSCF response                               
  Dagmar Lenk            : GEPOL surface, SMD, ORCA-2-JSON               
  Dimitrios Liakos       : Extrapolation schemes; Compound Job, Property file
  Dimitrios Manganas     : Further ROCIS development; embedding schemes. LFT, Crystal Embedding 
  Dimitrios Pantazis     : SARC Basis sets                               
  Anastasios Papadopoulos: AUTO-CI, single reference methods and gradients 
  Taras Petrenko         : pre 6.0 DFT Hessian and TD-DFT gradient,  ECA, NRVS 
  Petra Pikulova         : Analytic Raman intensities                    
  Peter Pinski           : DLPNO-MP2, DLPNO-MP2 Gradient                 
  Shashank Vittal Rao    : ES-AILFT, MagRelax                            
  Christoph Reimann      : Effective Core Potentials                     
  Marius Retegan         : Local ZFS, SOC                                
  Christoph Riplinger    : Optimizer, TS searches, QM/MM, DLPNO-CCSD(T), (RO)-DLPNO pert. Triples 
  Michael Roemelt        : Original ROCIS implementation, recursive CI coupling coefficients
  Masaaki Saitow         : Open-shell DLPNO-CCSD energy and density      
  Barbara Sandhoefer     : DKH picture change effects                    
  Yorick L. A. Schmerwitz: GMF and freeze-and-release deltaSCF, NEB S-IDPP initial path                    
  Kantharuban Sivalingam : CASSCF convergence/infrastructure, NEVPT2, NEVPT3, NEVPT4(SD), FIC-MRCI and CEPA variants
  Bernardo de Souza      : ESD, SOC TD-DFT                               
  Georgi L. Stoychev     : AutoAux, RI-MP2 NMR, DLPNO-MP2 response, X2C  
  Van Anh Tran           : RI-MP2 g-tensors                              
  Willem Van den Heuvel  : Paramagnetic NMR                              
  Zikuan Wang            : NOTCH, Electric field optimization            
  Frank Wennmohs         : Technical directorship and infrastructure     
  Hang Xu                : AUTO-CI-Response properties                   
                                                                         
[FACCTs GmbH]                                                            
  Markus Bursch, Nicolas Foglia, Miquel Garcia-Rates, Ingolf Harden, Hagen Neugebauer, Anastasios Papadopoulos, 
  Christoph Riplinger, Bernardo de Souza, Georgi L. Stoychev                                                    
                                                                 
  APM, various basis sets, CI-OPT, improved COSX, DLPNO-Multilevel,           
  DOCKER, DRACO, updates on ESD, Fragmentator, GOAT, IRC, LR-CPCM, L-BFGS, MBIS, meta-GGA TD-DFT gradient, ML-optimized integration grids, 
  MM, NACMEs, nearIR, NEB, NEB-TS, NL-DFT gradient (VV10), 2- and 3-layer-ONIOM, interface openCOSMO-RS, QMMM,   
  Crystal-QMMM, RESP, rigid body optimization, SF, symmetry and pop. for TD-DFT, various functionals, SOLVATOR                                   
                                                                         
[Other institutions]                                                     
  V. Asgeirsson          : NEB                                           
  Christoph Bannwarth    : sTDA-DFT, sTD-DFT, PBEh-3c, B97-3c, D3        
  Giovanni Bistoni       : ETS/NOCV, ADLD/ADEX, COVALED                  
  Martin Brehm           : Molecular dynamics                            
  Ronald Cardenas        : ETS/NOCV                                      
  Martina Colucci        : COVALED                                       
  Sebastian Ehlert       : rSCAN, r2SCAN, r2SCAN-3c, D4, dhf basis sets  
  Marvin Friede          : D4 for Fr, Ra, Ac-Lr                          
  Lars Goerigk           : TD-DFT with DH, B97 family of functionals     
  Stefan Grimme          : VdW corrections, initial TS optimization, DFT functionals, gCP, sTDA/sTD-DF 
  Waldemar Hujo          : DFT-NL                                        
  H. Jonsson             : NEB                                           
  Holger Kruse           : gCP                                           
  Marcel Mueller         : wB97X-3c, vDZP basis set                      
  Hagen Neugebauer       : wr2SCAN, Native XTB                           
  Gianluca Regni         : ADLD/ADEX                                     
  Tobias Risthaus        : pre 6.0 range-separated hybrid DFT and stability analysis
  Lukas Wittmann         : regularized MP2, r2SCAN double-hybrids, wr2SCAN        
                                                                         
We gratefully acknowledge several colleagues who have allowed us to      
interface, adapt or use parts of their codes:                            
  Ed Valeev, F. Pavosevic, A. Kumar             : LibInt (2-el integral package), F12 methods 
  Garnet Chan, S. Sharma, J. Yang, R. Olivares  : DMRG                   
  Ulf Ekstrom                                   : XCFun DFT Library      
  Mihaly Kallay                                 : mrcc  (arbitrary order and MRCC methods)
  Frank Weinhold                                : gennbo (NPA and NBO analysis)           
  Simon Mueller                                 : openCOSMO-RS                            
  Christopher J. Cramer and Donald G. Truhlar   : smd solvation model                     
  S Lehtola, MJT Oliveira, MAL Marques          : LibXC Library                           
  Liviu Ungur et al                             : ANISO software                          


 Your calculation uses the libint2 library for the computation of 2-el integrals
 For citations please refer to: http://libint.valeyev.net

 Your ORCA version has been built with support for libXC version: 7.0.0
 For citations please refer to: https://libxc.gitlab.io

 This ORCA versions uses:
   CBLAS   interface :  Fast vector & matrix operations
   LAPACKE interface :  Fast linear algebra routines
   SCALAPACK package :  Parallel linear algebra routines
   Shared memory     :  Shared parallel matrices
   BLAS/LAPACK       :  OpenBLAS 0.3.29  USE64BITINT DYNAMIC_ARCH NO_AFFINITY Prescott SINGLE_THREADED
        Core in use  :  Prescott
   Copyright (c) 2011-2014, The OpenBLAS Project


  ***********************************
  * Starting time: Wed Aug 13 04:28:31 2025
  * Host name:     cuda1
  * Process ID:    180628
  * Working dir.:  /local/scratch/mehlhorn/61857
  ***********************************



***************************************
The coordinates will be read from file: start.xyz
***************************************


Your calculation utilizes the geometrical counterpoise correction gCP
Please cite in your paper:
H.Kruse, S. Grimme J.Chem.Phys., 136, (2012), 154101 
   

Your calculation utilizes the atom-pairwise dispersion correction
with the Becke-Johnson damping scheme (D3BJ)


Warning: RI is on but no J-basis has been assigned. Assigning Def2/J (nothing to worry about!)
================================================================================

cite the ECPs for Zr [Def2-ECP] as follows:
Ce-Yb(ecp-28): M. Dolg, H. Stoll, H.Preuss, J. Chem. Phys., 1989, 90, 1730-1734.
Y-Cd(ecp-28), Hf-Hg(ecp-46): D. Andrae,U. Haeussermann, M. Dolg, H. Stoll, H. Preuss, Theor. Chim. Acta, 1990, 77, 123-141.
In-Sb(ecp-28), Tl-Bi(ecp-46): B. Metz, H. Stoll, M. Dolg, J. Chem. Phys., 2000, 113, 2563-2569.
Te-Xe(ecp-28), Po-Rn(ecp-46): K. A. Peterson, D. Figgen, E. Goll, H. Stoll, M. Dolg, J. Chem. Phys., 2003, 119, 11113-11123.
Rb(ecp-28), Cs(ecp-46): T. Leininger, A. Nicklass, W. Kuechle, H. Stoll, M. Dolg, A. Bergner, Chem. Phys. Lett., 1996, 255, 274-280.
Sr(ecp-28), Ba(ecp-46): M. Kaupp, P. V. Schleyer, H. Stoll and H. Preuss, J. Chem. Phys., 1991, 94, 1360-1366.
La(ecp-46): M. Dolg, H. Stoll, A. Savin, H. Preuss, Theor. Chim. Acta, 1989, 75, 173-194.
Lu(ecp-28): X. Cao, M. Dolg, J. Chem. Phys., 2001, 115, 7348-7355.

ECP parameters for Zr [Def2-ECP] have been obtained from:
TURBOMOLE (7.0.2)

----- Orbital basis set information -----
Your calculation utilizes the basis: def2-SV(P)
   F. Weigend and R. Ahlrichs, Phys. Chem. Chem. Phys. 7, 3297 (2005).

----- AuxJ basis set information -----
Your calculation utilizes the auxiliary basis: def2/J
   H-Rn: F. Weigend, Phys. Chem. Chem. Phys. 8, 1057 (2006).
   Fr-Lr: K. Eichkorn, F. Weigend, O. Treutler, R. Ahlrichs; Theor. Chem. Acc. 97, 119 (1997).

================================================================================
                                        WARNINGS
                       Please study these warnings very carefully!
================================================================================


WARNING: Gradients are needed
  ===> : At least TightSCF should be used for SCF convergence

WARNING: Geometry Optimization
  ===> : Switching off AutoStart
         For restart on a previous wavefunction, please use MOREAD

================================================================================
                                       INPUT FILE
================================================================================
NAME = run.inp
|  1> # Geometry optimization for (AlH3)n cluster
|  2> 
|  3> %pal nprocs 24  end
|  4> 
|  5> %geom MaxIter 500 end
|  6> 
|  7> 
|  8> ! PBE def2-SV(P)
|  9> ! RKS	# closed shell for AlH3
| 10> ! D3    #  dispersion correction
| 11> ! gCP(DFT/SV(P))
| 12> ! Freq 	# Frequency analysis to check the stabiltity of the structures
| 13> 
| 14> ! NoPop # population analysis not necessary	
| 15> 
| 16> ! DEFGRID2
| 17> ! NormalSCF
| 18> ! SloppyOpt
| 19> 
| 20> ! SmallPrint
| 21> 
| 22> 
| 23> * xyzFile 0 1 start.xyz # only maingroup elements H and Al so there should be no net spin
| 24> 
| 25>                          ****END OF INPUT****
================================================================================

                       *****************************
                       * Geometry Optimization Run *
                       *****************************

Geometry optimization settings:
Update method            Update   .... BFGS
Choice of coordinates    CoordSys .... (2022) Redundant Internals
Initial Hessian          InHess   .... Almloef's Model
Max. no of cycles        MaxIter  .... 500

Convergence Tolerances:
Energy Change            TolE     ....  8.0000e-05 Eh
Max. Gradient            TolMAXG  ....  5.0000e-03 Eh/bohr
RMS Gradient             TolRMSG  ....  1.0000e-03 Eh/bohr
Max. Displacement        TolMAXD  ....  3.0000e-02 bohr
RMS Displacement         TolRMSD  ....  2.0000e-02 bohr
Strict Convergence                .... False

------------------------------------------------------------------------------
                        ORCA OPTIMIZATION COORDINATE SETUP
------------------------------------------------------------------------------

The optimization will be done in redundant internal coordinates (2022)
Making redundant internal coordinates   ...  (2022 redundants) done
Evaluating the initial hessian          ...  (Almloef) done
Evaluating the coordinates              ...  done
Calculating the B-matrix                .... done
Calculating the G-matrix                .... done
The number of degrees of freedom        .... 1102

    -----------------------------------------------------------------
                    Redundant Internal Coordinates


    -----------------------------------------------------------------
         Definition                    Initial Value    Approx d2E/dq
    -----------------------------------------------------------------
      1. B(Zr  2,Zr  1)                  3.4015         0.039512   
      2. B(Zr  3,Zr  0)                  3.4086         0.038503   
      3. B(Zr  4,Zr  1)                  3.4255         0.036185   
      4. B(Zr  4,Zr  3)                  3.4078         0.038618   
      5. B(Zr  5,Zr  0)                  3.3561         0.046690   
      6. B(Zr  5,Zr  2)                  3.4390         0.034435   
      7. B(O   6,Zr  3)                  2.0947         0.425359   
      8. B(O   6,Zr  0)                  2.1343         0.367661   
      9. B(O   6,Zr  5)                  2.0749         0.457313   
     10. B(O   7,Zr  4)                  2.1474         0.350400   
     11. B(O   7,Zr  1)                  2.1094         0.403015   
     12. B(O   7,Zr  2)                  2.1054         0.408948   
     13. B(O   8,Zr  1)                  2.1794         0.311564   
     14. B(O   8,Zr  5)                  2.1780         0.313203   
     15. B(O   8,Zr  2)                  2.1222         0.384460   
     16. B(O   9,Zr  4)                  2.1181         0.390322   
     17. B(O   9,Zr  0)                  2.1466         0.351450   
     18. B(O   9,Zr  3)                  2.0973         0.421287   
     19. B(O  10,Zr  4)                  2.0936         0.426953   
     20. B(O  10,Zr  3)                  2.1038         0.411310   
     21. B(O  10,Zr  1)                  2.1377         0.363217   
     22. B(O  11,Zr  5)                  2.0951         0.424702   
     23. B(O  11,Zr  2)                  2.1300         0.373542   
     24. B(O  11,Zr  0)                  2.1778         0.313466   
     25. B(O  12,Zr  0)                  1.9720         0.667554   
     26. B(O  13,Zr  0)                  1.9878         0.629918   
     27. B(O  14,Zr  0)                  2.0669         0.471093   
     28. B(O  15,Zr  0)                  2.0536         0.494579   
     29. B(O  16,Zr  1)                  2.0305         0.538426   
     30. B(O  17,Zr  1)                  2.0624         0.478830   
     31. B(O  18,Zr  1)                  1.9779         0.653250   
     32. B(O  19,Zr  1)                  1.9841         0.638430   
     33. B(O  20,Zr  2)                  1.9784         0.651944   
     34. B(O  21,Zr  2)                  2.0284         0.542685   
     35. B(O  22,Zr  2)                  1.9728         0.665495   
     36. B(O  23,Zr  2)                  2.0859         0.439247   
     37. B(O  24,Zr  3)                  2.0513         0.498773   
     38. B(O  25,Zr  3)                  1.9925         0.619038   
     39. B(O  26,Zr  3)                  2.0331         0.533392   
     40. B(O  27,Zr  3)                  1.9858         0.634464   
     41. B(O  28,Zr  4)                  1.9903         0.623998   
     42. B(O  29,Zr  4)                  2.0616         0.480328   
     43. B(O  30,Zr  4)                  1.9896         0.625721   
     44. B(O  31,Zr  4)                  2.0236         0.552206   
     45. B(O  32,Zr  5)                  2.0684         0.468502   
     46. B(O  33,Zr  5)                  1.9849         0.636674   
     47. B(O  34,Zr  5)                  1.9936         0.616635   
     48. B(O  35,Zr  5)                  1.9741         0.662440   
     49. B(C  36,O  33)                  1.2989         0.782152   
     50. B(C  36,O  12)                  1.2989         0.782140   
     51. B(C  37,O  25)                  1.3006         0.777054   
     52. B(C  37,O  13)                  1.3020         0.773047   
     53. B(C  38,O  21)                  1.2964         0.789333   
     54. B(C  38,O  14)                  1.2987         0.782563   
     55. B(C  39,O  29)                  1.3016         0.774200   
     56. B(C  39,O  15)                  1.2993         0.780838   
     57. B(C  40,O  34)                  1.2950         0.793441   
     58. B(C  40,O  16)                  1.2950         0.793215   
     59. B(C  41,O  17)                  1.2989         0.781926   
     60. B(C  41,O  26)                  1.3011         0.775702   
     61. B(C  42,O  18)                  1.2998         0.779341   
     62. B(C  42,O  22)                  1.3000         0.778956   
     63. B(C  43,O  19)                  1.3012         0.775571   
     64. B(C  43,O  30)                  1.3005         0.777319   
     65. B(C  44,O  35)                  1.2988         0.782175   
     66. B(C  44,O  20)                  1.2990         0.781654   
     67. B(C  45,O  31)                  1.2958         0.791040   
     68. B(C  45,O  23)                  1.2973         0.786701   
     69. B(C  46,O  24)                  1.2968         0.788209   
     70. B(C  46,O  32)                  1.2965         0.788876   
     71. B(C  47,O  28)                  1.3014         0.774809   
     72. B(C  47,O  27)                  1.3014         0.774954   
     73. B(H  48,C  41)                  1.0874         0.363592   
     74. B(H  49,C  42)                  1.0910         0.358800   
     75. B(H  50,C  38)                  1.0866         0.364642   
     76. B(H  51,C  37)                  1.0916         0.358006   
     77. B(H  52,C  43)                  1.0916         0.357934   
     78. B(H  53,C  47)                  1.0916         0.358041   
     79. B(H  54,C  39)                  1.0877         0.363172   
     80. B(H  55,C  45)                  1.0853         0.366349   
     81. B(H  56,C  40)                  1.0860         0.365468   
     82. B(H  57,C  46)                  1.0848         0.366987   
     83. B(H  58,C  36)                  1.0901         0.359965   
     84. B(H  59,C  44)                  1.0902         0.359833   
     85. B(Al 61,Al 60)                  2.6915         0.257335   
     86. B(Al 61,H  48)                  3.0607         0.010000   
     87. B(H  62,Al 61)                  1.6775         0.291515   
     88. B(H  63,H  48)                  2.4941         0.010000   
     89. B(H  63,Al 61)                  1.6141         0.368034   
     90. B(H  64,Al 61)                  1.6789         0.290014   
     91. B(H  64,Al 60)                  1.6665         0.303557   
     92. B(H  64,H  48)                  2.8178         0.010000   
     93. B(H  65,C  46)                  2.7497         0.010000   
     94. B(H  65,O  24)                  2.6725         0.010000   
     95. B(H  65,O  34)                  2.6602         0.010000   
     96. B(H  65,C  41)                  2.9663         0.010000   
     97. B(H  65,C  40)                  2.5894         0.010000   
     98. B(H  65,O  26)                  2.4484         0.010000   
     99. B(H  65,H  56)                  2.7811         0.010000   
    100. B(H  65,Al 60)                  1.6006         0.386753   
    101. B(H  65,H  57)                  3.1420         0.010000   
    102. B(H  65,O  16)                  3.1125         0.010000   
    103. B(H  66,Al 60)                  1.6758         0.293309   
    104. B(H  66,O  26)                  2.9658         0.010000   
    105. B(H  66,O  24)                  2.7882         0.010000   
    106. B(H  67,Al 61)                  1.6092         0.374639   
    107. B(Al 68,H  62)                  1.6687         0.301065   
    108. B(Al 68,Al 61)                  2.6971         0.252098   
    109. B(H  69,Al 68)                  1.6748         0.294443   
    110. B(H  70,Al 68)                  1.6040         0.381860   
    111. B(H  71,Al 60)                  1.6040         0.381932   
    112. B(Al 72,H  69)                  1.6819         0.286847   
    113. B(Al 72,Al 68)                  3.3550         0.022484   
    114. B(Al 72,H  66)                  1.6839         0.284805   
    115. B(Al 72,Al 60)                  3.3518         0.022746   
    116. B(H  73,Al 72)                  1.7021         0.266348   
    117. B(H  73,O  26)                  3.0120         0.010000   
    118. B(H  74,Al 72)                  1.6129         0.369663   
    119. B(H  74,O  24)                  3.1021         0.010000   
    120. B(H  74,H  57)                  2.8939         0.010000   
    121. B(H  75,Al 68)                  1.6034         0.382775   
    122. B(Al 76,H  73)                  1.6862         0.282379   
    123. B(Al 76,Al 72)                  3.2469         0.033444   
    124. B(H  77,Al 76)                  1.6032         0.383080   
    125. B(H  78,H  48)                  2.6280         0.010000   
    126. B(H  78,O  27)                  2.5132         0.010000   
    127. B(H  78,Al 76)                  1.6036         0.382412   
    128. B(H  78,C  47)                  3.1656         0.010000   
    129. B(H  78,O  26)                  2.9013         0.010000   
    130. B(H  78,C  41)                  2.8271         0.010000   
    131. B(Al 79,Al 76)                  2.7048         0.245050   
    132. B(Al 79,Al 72)                  2.6854         0.263141   
    133. B(H  80,Al 79)                  1.6095         0.374206   
    134. B(H  81,O  25)                  2.6071         0.010000   
    135. B(H  81,Al 79)                  1.6800         0.288911   
    136. B(H  81,Al 72)                  1.6844         0.284206   
    137. B(H  81,O  26)                  3.1404         0.010000   
    138. B(H  81,Zr  3)                  2.9422         0.010000   
    139. B(H  81,O  27)                  2.8530         0.010000   
    140. B(H  81,O  24)                  2.7877         0.010000   
    141. B(H  82,Al 79)                  1.6858         0.282741   
    142. B(H  82,Al 72)                  1.6901         0.278303   
    143. B(H  83,Al 79)                  1.6706         0.299054   
    144. B(H  83,Al 76)                  1.6724         0.297045   
    145. B(H  83,H  53)                  3.0704         0.010000   
    146. B(H  83,O  27)                  3.0152         0.010000   
    147. A(O  13,Zr  0,O  14)          142.4565         0.518036   
    148. A(Zr  3,Zr  0,O  13)           69.8719         0.361495   
    149. A(O   6,Zr  0,O  14)          132.9589         0.468811   
    150. A(O  11,Zr  0,O  15)          136.0800         0.459403   
    151. A(O   9,Zr  0,O  14)          109.9694         0.464954   
    152. A(Zr  5,Zr  0,O  12)           75.1820         0.377413   
    153. A(Zr  3,Zr  0,O  12)          131.2393         0.365098   
    154. A(O   6,Zr  0,O  11)           65.1493         0.435358   
    155. A(Zr  5,Zr  0,O  14)          106.5446         0.355534   
    156. A(O  11,Zr  0,O  14)           70.4315         0.455347   
    157. A(O   6,Zr  0,O  15)          132.9018         0.473017   
    158. A(O  12,Zr  0,O  15)          119.7250         0.528522   
    159. A(O   9,Zr  0,O  15)           69.2862         0.469117   
    160. A(Zr  3,Zr  0,O   9)           36.0750         0.327781   
    161. A(Zr  5,Zr  0,O  11)           37.3728         0.332058   
    162. A(Zr  5,Zr  0,O   6)           36.5188         0.340991   
    163. A(O  11,Zr  0,O  12)           79.5149         0.485420   
    164. A(Zr  3,Zr  0,O  11)           95.1516         0.321679   
    165. A(Zr  5,Zr  0,O  13)          102.5625         0.373650   
    166. A(O  12,Zr  0,O  13)           83.0747         0.553255   
    167. A(O   9,Zr  0,O  13)           89.3201         0.490507   
    168. A(Zr  5,Zr  0,O   9)           96.7189         0.338432   
    169. A(O  11,Zr  0,O  13)          139.3342         0.480247   
    170. A(Zr  3,Zr  0,Zr  5)           72.3717         0.258284   
    171. A(O  14,Zr  0,O  15)           73.7683         0.495179   
    172. A(O  12,Zr  0,O  14)           81.9974         0.523708   
    173. A(O   6,Zr  0,O   9)           65.0864         0.444441   
    174. A(O   6,Zr  0,O  13)           84.1153         0.494627   
    175. A(O   6,Zr  0,O  12)          103.8727         0.499989   
    176. A(Zr  5,Zr  0,O  15)          164.5611         0.358485   
    177. A(O   9,Zr  0,O  12)          167.3060         0.495816   
    178. A(O  13,Zr  0,O  15)           84.2983         0.522786   
    179. A(Zr  3,Zr  0,O   6)           35.9003         0.330231   
    180. A(O   9,Zr  0,O  11)          100.1168         0.431841   
    181. A(Zr  3,Zr  0,O  14)          141.9546         0.344152   
    182. A(Zr  3,Zr  0,O  15)           97.6537         0.346978   
    183. A(O   7,Zr  1,O  16)          138.0263         0.488691   
    184. A(O   7,Zr  1,O   8)           66.9721         0.442144   
    185. A(O   7,Zr  1,O  17)          132.6045         0.478219   
    186. A(Zr  4,Zr  1,O  16)          144.7503         0.348315   
    187. A(O  17,Zr  1,O  19)           82.9038         0.520931   
    188. A(Zr  4,Zr  1,O  10)           35.5176         0.326210   
    189. A(Zr  2,Zr  1,O  10)           93.9598         0.330980   
    190. A(Zr  2,Zr  1,O  19)          105.3867         0.363929   
    191. A(Zr  2,Zr  1,O   7)           36.1510         0.336742   
    192. A(Zr  2,Zr  1,O  16)          107.5016         0.353530   
    193. A(Zr  4,Zr  1,O  18)          128.4237         0.359913   
    194. A(O  10,Zr  1,O  17)           69.2025         0.469166   
    195. A(O  10,Zr  1,O  16)          111.9722         0.479395   
    196. A(O   7,Zr  1,O  10)           66.0513         0.454620   
    197. A(O  10,Zr  1,O  18)          163.7344         0.496855   
    198. A(O  16,Zr  1,O  17)           73.9153         0.504593   
    199. A(O  17,Zr  1,O  18)          124.0907         0.523180   
    200. A(O   8,Zr  1,O  10)           97.2400         0.433930   
    201. A(O   8,Zr  1,O  19)          141.9017         0.480897   
    202. A(Zr  2,Zr  1,O  17)          161.6316         0.346599   
    203. A(O   8,Zr  1,O  17)          134.6988         0.456194   
    204. A(O   7,Zr  1,O  19)           82.9721         0.504404   
    205. A(Zr  2,Zr  1,O  18)           73.8183         0.365361   
    206. A(O  16,Zr  1,O  19)          137.9574         0.532552   
    207. A(O   8,Zr  1,O  16)           72.0060         0.466073   
    208. A(O  16,Zr  1,O  18)           82.4397         0.534862   
    209. A(Zr  2,Zr  1,O   8)           37.1572         0.322723   
    210. A(Zr  4,Zr  1,O  17)           95.9543         0.341521   
    211. A(O  18,Zr  1,O  19)           82.3102         0.552390   
    212. A(Zr  4,Zr  1,O   8)           94.9812         0.318116   
    213. A(O  10,Zr  1,O  19)           90.9133         0.494742   
    214. A(Zr  2,Zr  1,Zr  4)           72.1400         0.249732   
    215. A(Zr  4,Zr  1,O  19)           70.9540         0.358509   
    216. A(Zr  4,Zr  1,O   7)           36.7977         0.331859   
    217. A(O   7,Zr  1,O  18)           98.3249         0.506567   
    218. A(O   8,Zr  1,O  18)           79.6277         0.482938   
    219. A(O   8,Zr  2,O  20)           83.3533         0.501949   
    220. A(Zr  1,Zr  2,O  21)          155.3274         0.354002   
    221. A(O   8,Zr  2,O  22)           88.7553         0.503876   
    222. A(O  11,Zr  2,O  23)          120.1435         0.464187   
    223. A(O  22,Zr  2,O  23)           80.7775         0.516577   
    224. A(Zr  1,Zr  2,O  22)           72.6063         0.366525   
    225. A(O   7,Zr  2,O  22)           89.2466         0.509715   
    226. A(O   8,Zr  2,O  21)          138.8897         0.485156   
    227. A(Zr  1,Zr  2,O   8)           38.3375         0.334113   
    228. A(O   7,Zr  2,O   8)           68.0954         0.460581   
    229. A(O   7,Zr  2,O  11)           88.7853         0.458166   
    230. A(O  21,Zr  2,O  22)          128.0434         0.537539   
    231. A(Zr  5,Zr  2,O  20)           72.1095         0.356769   
    232. A(Zr  1,Zr  2,O  23)           99.1910         0.341617   
    233. A(O  21,Zr  2,O  23)           74.4542         0.497283   
    234. A(O   7,Zr  2,O  20)          150.6696         0.507761   
    235. A(O  20,Zr  2,O  21)           83.6719         0.535456   
    236. A(O   7,Zr  2,O  21)          122.2454         0.490731   
    237. A(O  20,Zr  2,O  23)          135.6469         0.514590   
    238. A(O   8,Zr  2,O  11)           68.9776         0.453042   
    239. A(Zr  5,Zr  2,O  22)          121.4984         0.358019   
    240. A(O  11,Zr  2,O  21)           71.5351         0.482581   
    241. A(Zr  1,Zr  2,Zr  5)           71.5984         0.247939   
    242. A(Zr  5,Zr  2,O   8)           37.4576         0.326601   
    243. A(O   7,Zr  2,O  23)           70.1503         0.471956   
    244. A(Zr  1,Zr  2,O  20)          114.9947         0.365236   
    245. A(Zr  1,Zr  2,O   7)           36.2301         0.337563   
    246. A(Zr  1,Zr  2,O  11)           92.5249         0.332520   
    247. A(Zr  5,Zr  2,O  21)          101.4705         0.345880   
    248. A(O  20,Zr  2,O  22)           83.3616         0.556553   
    249. A(Zr  5,Zr  2,O  11)           35.1810         0.325056   
    250. A(O  11,Zr  2,O  20)           87.0431         0.499265   
    251. A(Zr  5,Zr  2,O  23)          149.3294         0.333874   
    252. A(O   8,Zr  2,O  23)          136.9860         0.466641   
    253. A(O  11,Zr  2,O  22)          156.6569         0.501180   
    254. A(Zr  5,Zr  2,O   7)           88.0767         0.329945   
    255. A(O  10,Zr  3,H  81)          136.8697         0.210061   
    256. A(O   9,Zr  3,O  25)           80.0322         0.505675   
    257. A(Zr  0,Zr  3,O  10)           90.1167         0.336434   
    258. A(Zr  0,Zr  3,O  24)           92.0451         0.347471   
    259. A(Zr  4,Zr  3,O  10)           35.6220         0.336602   
    260. A(O  24,Zr  3,O  27)          132.2647         0.524324   
    261. A(O  24,Zr  3,H  81)           65.0426         0.215461   
    262. A(O   6,Zr  3,O  10)           84.4693         0.469677   
    263. A(Zr  0,Zr  3,O  26)          145.1551         0.351427   
    264. A(O  26,Zr  3,O  27)           83.1552         0.530987   
    265. A(Zr  4,Zr  3,O  25)          108.0331         0.360606   
    266. A(Zr  0,Zr  3,O  25)           74.2747         0.360422   
    267. A(Zr  0,Zr  3,H  81)          131.3481         0.168289   
    268. A(O  25,Zr  3,O  26)          135.9753         0.528531   
    269. A(Zr  0,Zr  3,O  27)          124.3799         0.361939   
    270. A(O   9,Zr  3,O  27)           90.1389         0.508003   
    271. A(O   6,Zr  3,O  27)          155.6183         0.508916   
    272. A(Zr  4,Zr  3,O  27)           72.1036         0.362123   
    273. A(O  10,Zr  3,O  27)           79.8014         0.505736   
    274. A(O   9,Zr  3,O  26)          141.1978         0.491865   
    275. A(O   9,Zr  3,H  81)          135.8664         0.210720   
    276. A(O  24,Zr  3,O  26)           80.3532         0.507558   
    277. A(O  10,Zr  3,O  26)           72.8869         0.489686   
    278. A(Zr  4,Zr  3,O   6)           84.2579         0.338491   
    279. A(Zr  4,Zr  3,O  26)          106.3615         0.351604   
    280. A(O   6,Zr  3,O   9)           66.6467         0.471748   
    281. A(O  10,Zr  3,O  25)          143.2177         0.503420   
    282. A(Zr  4,Zr  3,H  81)          139.0619         0.168342   
    283. A(O   6,Zr  3,O  25)          100.1540         0.506583   
    284. A(O  25,Zr  3,O  27)           82.1049         0.546137   
    285. A(O  10,Zr  3,O  24)          135.1383         0.483646   
    286. A(O   9,Zr  3,O  24)          128.7619         0.485792   
    287. A(Zr  0,Zr  3,O   9)           37.0632         0.337780   
    288. A(O   6,Zr  3,O  26)          109.8878         0.492743   
    289. A(O   6,Zr  3,O  24)           71.5134         0.486657   
    290. A(Zr  4,Zr  3,O  24)          155.6317         0.347646   
    291. A(O   6,Zr  3,H  81)          134.5681         0.210985   
    292. A(O   9,Zr  3,O  10)           68.3112         0.468849   
    293. A(Zr  0,Zr  3,O   6)           36.6900         0.338323   
    294. A(O  26,Zr  3,H  81)           75.8358         0.217397   
    295. A(O  25,Zr  3,H  81)           60.1862         0.221798   
    296. A(Zr  0,Zr  3,Zr  4)           68.8652         0.251165   
    297. A(Zr  4,Zr  3,O   9)           36.2646         0.337948   
    298. A(O  24,Zr  3,O  25)           79.5716         0.521906   
    299. A(O  27,Zr  3,H  81)           67.5602         0.222540   
    300. A(O   9,Zr  4,O  29)           71.3045         0.475683   
    301. A(Zr  1,Zr  4,O  10)           36.3819         0.335051   
    302. A(O  29,Zr  4,O  31)           77.3209         0.507273   
    303. A(O  30,Zr  4,O  31)           81.9734         0.533071   
    304. A(O  28,Zr  4,O  31)          128.8226         0.532794   
    305. A(O   9,Zr  4,O  31)          135.3956         0.488083   
    306. A(Zr  3,Zr  4,O  31)          158.1701         0.353673   
    307. A(O  29,Zr  4,O  30)          138.1437         0.519274   
    308. A(O  10,Zr  4,O  30)           80.4684         0.507954   
    309. A(O   7,Zr  4,O  30)           96.2707         0.489629   
    310. A(Zr  3,Zr  4,O  30)          106.8056         0.361267   
    311. A(O  28,Zr  4,O  29)           83.1570         0.519005   
    312. A(O  10,Zr  4,O  29)          139.2023         0.483614   
    313. A(Zr  1,Zr  4,Zr  3)           69.1224         0.248902   
    314. A(O   7,Zr  4,O  29)          110.8112         0.466354   
    315. A(Zr  3,Zr  4,O  29)          105.8189         0.345449   
    316. A(Zr  1,Zr  4,O  29)          144.4590         0.341699   
    317. A(O   9,Zr  4,O  28)           78.1578         0.499277   
    318. A(O   7,Zr  4,O  28)          158.4396         0.489379   
    319. A(Zr  3,Zr  4,O  28)           72.8027         0.361097   
    320. A(O   7,Zr  4,O   9)           90.5729         0.449042   
    321. A(Zr  3,Zr  4,O   7)           87.2573         0.327781   
    322. A(Zr  3,Zr  4,O   9)           35.8533         0.333684   
    323. A(Zr  1,Zr  4,O   9)           92.2221         0.330106   
    324. A(Zr  1,Zr  4,O   7)           36.0414         0.324289   
    325. A(O   7,Zr  4,O  10)           66.1452         0.456427   
    326. A(Zr  1,Zr  4,O  30)           72.9755         0.357286   
    327. A(O   7,Zr  4,O  31)           71.7278         0.478455   
    328. A(O  10,Zr  4,O  31)          131.8243         0.496268   
    329. A(Zr  1,Zr  4,O  31)           95.5067         0.349803   
    330. A(O  28,Zr  4,O  30)           82.1658         0.545528   
    331. A(O   9,Zr  4,O  10)           68.1126         0.465510   
    332. A(O  10,Zr  4,O  28)           92.4766         0.507692   
    333. A(O   9,Zr  4,O  30)          141.7794         0.499533   
    334. A(Zr  1,Zr  4,O  28)          125.1246         0.357118   
    335. A(Zr  3,Zr  4,O  10)           35.8215         0.338702   
    336. A(O  32,Zr  5,O  35)          130.1050         0.522411   
    337. A(O   6,Zr  5,O  33)          104.5259         0.516193   
    338. A(O   8,Zr  5,O  33)          140.7550         0.481118   
    339. A(O  11,Zr  5,O  32)          126.8946         0.480925   
    340. A(O  32,Zr  5,O  34)           77.2761         0.515439   
    341. A(O  11,Zr  5,O  34)          142.8313         0.506070   
    342. A(O   6,Zr  5,O  34)          102.4280         0.513112   
    343. A(Zr  0,Zr  5,O  34)          139.9872         0.372280   
    344. A(O  32,Zr  5,O  33)           80.4068         0.518537   
    345. A(O  11,Zr  5,O  33)           79.3903         0.509099   
    346. A(Zr  0,Zr  5,Zr  2)           71.0036         0.254059   
    347. A(Zr  0,Zr  5,O  33)           74.7668         0.374338   
    348. A(O   8,Zr  5,O  32)          137.2125         0.454820   
    349. A(O   6,Zr  5,O  32)           70.8775         0.487542   
    350. A(Zr  0,Zr  5,O  32)           88.1711         0.355201   
    351. A(Zr  2,Zr  5,O   6)           84.6453         0.336118   
    352. A(O   6,Zr  5,O  11)           67.6689         0.478786   
    353. A(Zr  0,Zr  5,O   6)           37.7430         0.353749   
    354. A(O   8,Zr  5,O  11)           68.5624         0.446783   
    355. A(O   6,Zr  5,O   8)           84.1070         0.452824   
    356. A(Zr  0,Zr  5,O  11)           39.1202         0.349353   
    357. A(Zr  2,Zr  5,O  11)           35.8574         0.332015   
    358. A(O   8,Zr  5,O  34)           74.9310         0.478290   
    359. A(O  33,Zr  5,O  34)          136.7464         0.546095   
    360. A(Zr  2,Zr  5,O  33)          105.3656         0.355337   
    361. A(Zr  2,Zr  5,O  35)           74.3923         0.357739   
    362. A(Zr  0,Zr  5,O  35)          131.2871         0.376911   
    363. A(O   8,Zr  5,O  35)           78.2932         0.484655   
    364. A(O  11,Zr  5,O  35)           94.9936         0.512889   
    365. A(O   6,Zr  5,O  35)          158.9991         0.520046   
    366. A(O  33,Zr  5,O  35)           82.6965         0.553568   
    367. A(Zr  2,Zr  5,O  32)          155.4909         0.337474   
    368. A(Zr  2,Zr  5,O  34)          110.2954         0.353416   
    369. A(Zr  2,Zr  5,O   8)           36.3412         0.315829   
    370. A(O  34,Zr  5,O  35)           84.0670         0.550217   
    371. A(Zr  0,Zr  5,O   8)           92.6767         0.332011   
    372. A(Zr  3,O   6,Zr  5)          146.6354         0.478923   
    373. A(Zr  0,O   6,Zr  5)          105.7382         0.466268   
    374. A(Zr  0,O   6,Zr  3)          107.4097         0.460133   
    375. A(Zr  2,O   7,Zr  4)          141.8735         0.452861   
    376. A(Zr  1,O   7,Zr  4)          107.1609         0.451659   
    377. A(Zr  1,O   7,Zr  2)          107.6188         0.464566   
    378. A(Zr  1,O   8,Zr  5)          133.3602         0.422556   
    379. A(Zr  2,O   8,Zr  5)          106.2011         0.438811   
    380. A(Zr  1,O   8,Zr  2)          104.5053         0.438396   
    381. A(Zr  3,O   9,Zr  4)          107.8821         0.464373   
    382. A(Zr  0,O   9,Zr  4)          129.3090         0.449286   
    383. A(Zr  0,O   9,Zr  3)          106.8618         0.455565   
    384. A(Zr  3,O  10,Zr  4)          108.5565         0.470000   
    385. A(Zr  1,O  10,Zr  3)          132.1086         0.456310   
    386. A(Zr  1,O  10,Zr  4)          108.1006         0.459426   
    387. A(Zr  0,O  11,Zr  2)          132.7415         0.436604   
    388. A(Zr  2,O  11,Zr  5)          108.9616         0.461338   
    389. A(Zr  0,O  11,Zr  5)          103.5070         0.446851   
    390. A(Zr  0,O  12,C  36)          131.2495         0.510142   
    391. A(Zr  0,O  13,C  37)          129.7140         0.503548   
    392. A(Zr  0,O  14,C  38)          141.1911         0.478241   
    393. A(Zr  0,O  15,C  39)          126.4585         0.482355   
    394. A(Zr  1,O  16,C  40)          139.9886         0.491420   
    395. A(C  40,O  16,H  65)           54.6898         0.138640   
    396. A(Zr  1,O  16,H  65)          116.7462         0.141645   
    397. A(Zr  1,O  17,C  41)          127.9023         0.479607   
    398. A(Zr  1,O  18,C  42)          128.9135         0.507743   
    399. A(Zr  1,O  19,C  43)          129.1201         0.505117   
    400. A(Zr  2,O  20,C  44)          133.1555         0.507834   
    401. A(Zr  2,O  21,C  38)          129.7282         0.491691   
    402. A(Zr  2,O  22,C  42)          131.0539         0.509460   
    403. A(Zr  2,O  23,C  45)          141.2522         0.472581   
    404. A(H  65,O  24,H  66)           51.9748         0.101260   
    405. A(C  46,O  24,H  66)          101.8822         0.153910   
    406. A(C  46,O  24,H  81)          146.7234         0.153938   
    407. A(Zr  3,O  24,H  81)           73.1104         0.156783   
    408. A(Zr  3,O  24,H  65)          100.2153         0.163595   
    409. A(C  46,O  24,H  74)           94.0848         0.138997   
    410. A(H  66,O  24,H  81)           59.9933         0.100140   
    411. A(Zr  3,O  24,H  66)          109.4922         0.156753   
    412. A(H  74,O  24,H  81)           53.1069         0.097581   
    413. A(H  65,O  24,H  74)           91.4493         0.098443   
    414. A(C  46,O  24,H  65)           79.5012         0.160464   
    415. A(H  66,O  24,H  74)           43.7235         0.097577   
    416. A(Zr  3,O  24,H  74)          126.1744         0.141188   
    417. A(Zr  3,O  24,C  46)          139.6183         0.483946   
    418. A(H  65,O  24,H  81)          104.0063         0.101265   
    419. A(Zr  3,O  25,C  37)          125.3094         0.502400   
    420. A(C  37,O  25,H  81)          133.8717         0.164213   
    421. A(Zr  3,O  25,H  81)           78.2767         0.171708   
    422. A(H  65,O  26,H  78)          141.1366         0.102445   
    423. A(C  41,O  26,H  78)           73.7122         0.147872   
    424. A(H  73,O  26,H  81)           37.8646         0.095897   
    425. A(C  41,O  26,H  65)          100.0437         0.174788   
    426. A(Zr  3,O  26,H  65)          108.5457         0.180247   
    427. A(Zr  3,O  26,H  81)           65.2833         0.140326   
    428. A(H  66,O  26,H  73)           45.8170         0.096975   
    429. A(Zr  3,O  26,C  41)          136.4785         0.488542   
    430. A(Zr  3,O  26,H  78)          100.7212         0.151618   
    431. A(Zr  3,O  26,H  73)          102.3531         0.146109   
    432. A(H  73,O  26,H  78)           52.3595         0.097415   
    433. A(H  65,O  26,H  73)           95.8540         0.101262   
    434. A(C  41,O  26,H  66)          119.7337         0.144795   
    435. A(Zr  3,O  26,H  66)          103.7651         0.148345   
    436. A(H  78,O  26,H  81)           69.5523         0.096563   
    437. A(H  66,O  26,H  78)           97.5295         0.097744   
    438. A(C  41,O  26,H  81)          140.8213         0.137256   
    439. A(H  66,O  26,H  81)           54.2347         0.096168   
    440. A(H  65,O  26,H  81)           99.9702         0.100021   
    441. A(H  65,O  26,H  66)           51.4291         0.101742   
    442. A(C  41,O  26,H  73)          106.6704         0.142693   
    443. A(H  78,O  27,H  81)           79.7887         0.102262   
    444. A(Zr  3,O  27,H  81)           72.3976         0.156795   
    445. A(C  47,O  27,H  78)          107.9042         0.170270   
    446. A(Zr  3,O  27,H  78)          116.7024         0.178923   
    447. A(Zr  3,O  27,H  83)          125.6728         0.148238   
    448. A(H  81,O  27,H  83)           53.4854         0.097736   
    449. A(Zr  3,O  27,C  47)          128.5180         0.504455   
    450. A(C  47,O  27,H  81)          142.6421         0.150271   
    451. A(H  78,O  27,H  83)           54.0749         0.100588   
    452. A(C  47,O  27,H  83)          100.6037         0.142537   
    453. A(Zr  4,O  28,C  47)          127.4427         0.502877   
    454. A(Zr  4,O  29,C  39)          137.5367         0.479006   
    455. A(Zr  4,O  30,C  43)          127.0416         0.503438   
    456. A(Zr  4,O  31,C  45)          134.5965         0.493477   
    457. A(Zr  5,O  32,C  46)          136.2344         0.478464   
    458. A(Zr  5,O  33,C  36)          131.2302         0.505653   
    459. A(Zr  5,O  34,C  40)          138.7197         0.503992   
    460. A(C  40,O  34,H  65)           72.7022         0.161307   
    461. A(Zr  5,O  34,H  65)          118.0943         0.168068   
    462. A(Zr  5,O  35,C  44)          129.7782         0.509414   
    463. A(O  12,C  36,O  33)          127.5437         0.466050   
    464. A(O  33,C  36,H  58)          116.2130         0.364846   
    465. A(O  12,C  36,H  58)          116.2428         0.364845   
    466. A(O  13,C  37,O  25)          126.8984         0.464497   
    467. A(O  25,C  37,H  51)          116.5243         0.364098   
    468. A(O  13,C  37,H  51)          116.5709         0.363776   
    469. A(O  14,C  38,O  21)          129.1080         0.466877   
    470. A(O  21,C  38,H  50)          115.4260         0.366226   
    471. A(O  14,C  38,H  50)          115.4654         0.365686   
    472. A(O  15,C  39,O  29)          129.6316         0.465037   
    473. A(O  29,C  39,H  54)          115.2437         0.364761   
    474. A(O  15,C  39,H  54)          115.1227         0.365295   
    475. A(O  16,C  40,O  34)          128.9307         0.468480   
    476. A(H  56,C  40,H  65)           88.4713         0.147213   
    477. A(O  34,C  40,H  65)           78.7768         0.168555   
    478. A(O  16,C  40,H  65)          101.2232         0.168550   
    479. A(O  34,C  40,H  56)          115.5489         0.366694   
    480. A(O  16,C  40,H  56)          115.4999         0.366676   
    481. A(O  17,C  41,O  26)          129.7734         0.465320   
    482. A(H  48,C  41,H  78)           68.3432         0.136715   
    483. A(O  26,C  41,H  78)           80.0723         0.153952   
    484. A(O  17,C  41,H  78)          119.8339         0.154070   
    485. A(H  48,C  41,H  65)           97.2598         0.131502   
    486. A(O  26,C  41,H  48)          115.3341         0.364955   
    487. A(O  17,C  41,H  48)          114.8867         0.365454   
    488. A(H  65,C  41,H  78)          121.1770         0.099004   
    489. A(O  26,C  41,H  65)           54.3675         0.146856   
    490. A(O  17,C  41,H  65)          117.8527         0.146961   
    491. A(O  18,C  42,O  22)          127.1333         0.465395   
    492. A(O  22,C  42,H  49)          116.4311         0.364388   
    493. A(O  18,C  42,H  49)          116.4355         0.364419   
    494. A(O  19,C  43,H  52)          116.4971         0.363966   
    495. A(O  30,C  43,H  52)          116.4249         0.364106   
    496. A(O  19,C  43,O  30)          127.0764         0.464803   
    497. A(O  35,C  44,H  59)          116.2246         0.364825   
    498. A(O  20,C  44,H  59)          116.2062         0.364783   
    499. A(O  20,C  44,O  35)          127.5688         0.465999   
    500. A(O  31,C  45,H  55)          115.1905         0.366655   
    501. A(O  23,C  45,H  55)          115.1631         0.366309   
    502. A(O  23,C  45,O  31)          129.6457         0.467513   
    503. A(H  57,C  46,H  65)          100.9588         0.139997   
    504. A(O  24,C  46,H  65)           72.8724         0.158524   
    505. A(O  24,C  46,H  57)          115.0043         0.366539   
    506. A(O  32,C  46,H  57)          114.9741         0.366592   
    507. A(O  24,C  46,O  32)          130.0212         0.467442   
    508. A(O  32,C  46,H  65)           97.8888         0.158537   
    509. A(H  53,C  47,H  78)           82.5109         0.124887   
    510. A(O  28,C  47,H  53)          116.3134         0.363924   
    511. A(O  27,C  47,H  53)          116.2874         0.363935   
    512. A(O  27,C  47,O  28)          127.3991         0.464460   
    513. A(O  27,C  47,H  78)           49.0671         0.138010   
    514. A(O  28,C  47,H  78)          140.3788         0.138008   
    515. A(Al 61,H  48,H  78)           99.7445         0.100017   
    516. A(H  64,H  48,H  78)          126.5584         0.093041   
    517. A(H  63,H  48,H  64)           62.7546         0.093516   
    518. A(C  41,H  48,H  64)          108.6788         0.115448   
    519. A(H  63,H  48,H  78)           82.4949         0.094289   
    520. A(C  41,H  48,H  78)           89.0401         0.119972   
    521. A(C  41,H  48,H  63)          158.7534         0.123617   
    522. A(Al 61,H  48,H  64)           32.8593         0.098407   
    523. A(Al 61,H  48,H  63)           31.7459         0.101313   
    524. A(C  41,H  48,Al 61)          133.1344         0.161107   
    525. A(C  47,H  53,H  83)          103.9004         0.110364   
    526. A(C  40,H  56,H  65)           68.5524         0.116302   
    527. A(C  46,H  57,H  74)          111.7481         0.113880   
    528. A(C  46,H  57,H  65)           59.2264         0.109243   
    529. A(H  65,H  57,H  74)           86.6533         0.091474   
    530. A(H  71,Al 60,Al 72)           95.2819         0.275270   
    531. A(H  65,Al 60,Al 72)           97.8096         0.275799   
    532. A(H  64,Al 60,Al 72)          107.4524         0.265834   
    533. A(Al 61,Al 60,Al 72)           75.8744         0.296788   
    534. A(H  66,Al 60,H  71)           98.5107         0.361383   
    535. A(H  65,Al 60,H  71)          149.2865         0.378978   
    536. A(H  64,Al 60,H  71)          107.2719         0.363509   
    537. A(Al 61,Al 60,H  71)           92.4823         0.411560   
    538. A(H  65,Al 60,H  66)           93.9087         0.362157   
    539. A(H  64,Al 60,H  66)          108.4024         0.347585   
    540. A(Al 61,Al 60,H  66)           78.0558         0.392850   
    541. A(H  64,Al 60,H  65)           95.0916         0.364289   
    542. A(Al 61,Al 60,H  65)          117.6180         0.412477   
    543. A(Al 61,Al 60,H  64)           36.5932         0.395221   
    544. A(H  67,Al 61,Al 68)          121.5457         0.408664   
    545. A(H  64,Al 61,Al 68)          129.5465         0.390666   
    546. A(H  63,Al 61,Al 68)          111.1385         0.407380   
    547. A(H  62,Al 61,Al 68)           36.1835         0.391019   
    548. A(Al 60,Al 61,Al 68)           95.8156         0.447152   
    549. A(H  64,Al 61,H  67)           84.7361         0.359505   
    550. A(H  63,Al 61,H  67)           81.5207         0.374492   
    551. A(H  62,Al 61,H  67)           86.0957         0.359821   
    552. A(Al 60,Al 61,H  67)          116.7247         0.410155   
    553. A(Al 60,Al 61,H  64)           36.2790         0.392074   
    554. A(H  62,Al 61,H  64)          125.5978         0.344573   
    555. A(H  62,Al 61,H  63)          116.2306         0.358733   
    556. A(Al 60,Al 61,H  63)          132.9312         0.408865   
    557. A(Al 60,Al 61,H  62)          108.3815         0.392428   
    558. A(H  63,Al 61,H  64)          115.1345         0.358418   
    559. A(H  48,Al 61,Al 68)          136.7333         0.184620   
    560. A(H  48,Al 61,H  67)           98.0112         0.174743   
    561. A(H  48,Al 61,H  64)           65.5946         0.169915   
    562. A(H  48,Al 61,H  63)           54.3940         0.174398   
    563. A(H  48,Al 61,H  62)          168.5773         0.170010   
    564. A(H  48,Al 61,Al 60)           79.3705         0.185066   
    565. A(Al 61,H  62,Al 68)          107.4124         0.346745   
    566. A(H  48,H  63,Al 61)           93.8601         0.129998   
    567. A(H  48,H  64,Al 61)           81.5461         0.118679   
    568. A(H  48,H  64,Al 60)          107.7001         0.118987   
    569. A(Al 60,H  64,Al 61)          107.1278         0.346925   
    570. A(C  46,H  65,H  56)          115.6656         0.095846   
    571. A(O  24,H  65,H  56)          131.5410         0.096037   
    572. A(O  34,H  65,H  56)           43.4505         0.096109   
    573. A(O  26,H  65,H  56)          112.8862         0.097478   
    574. A(H  56,H  65,Al 60)          118.5469         0.121661   
    575. A(O  34,H  65,C  46)           73.6505         0.102266   
    576. A(C  40,H  65,C  46)          101.1887         0.103596   
    577. A(O  26,H  65,C  46)           87.9843         0.104820   
    578. A(C  46,H  65,Al 60)          107.2304         0.149950   
    579. A(O  24,H  65,O  34)           88.6783         0.102636   
    580. A(O  24,H  65,C  40)          110.4987         0.104003   
    581. A(O  24,H  65,O  26)           61.7537         0.105262   
    582. A(O  24,H  65,Al 60)          106.7283         0.151651   
    583. A(O  34,H  65,C  40)           28.5210         0.104158   
    584. A(O  26,H  65,O  34)          102.0016         0.105429   
    585. A(O  34,H  65,Al 60)          147.6103         0.152295   
    586. A(O  26,H  65,C  40)           95.9087         0.107076   
    587. A(C  40,H  65,Al 60)          141.4510         0.158640   
    588. A(O  26,H  65,Al 60)          110.3850         0.164481   
    589. A(C  41,H  65,C  46)          111.9411         0.099669   
    590. A(O  16,H  65,H  57)          127.3779         0.092615   
    591. A(C  41,H  65,H  57)          126.2410         0.093235   
    592. A(H  56,H  65,H  57)          122.4652         0.091717   
    593. A(C  46,H  65,H  57)           19.8148         0.094071   
    594. A(O  34,H  65,H  57)           85.8867         0.094266   
    595. A(C  40,H  65,H  57)          114.4073         0.094794   
    596. A(O  26,H  65,H  57)          100.7610         0.095280   
    597. A(H  57,H  65,Al 60)           88.5043         0.113194   
    598. A(O  16,H  65,C  41)           58.4957         0.096607   
    599. A(O  16,H  65,H  56)           39.5204         0.093881   
    600. A(O  16,H  65,C  46)          109.3479         0.098108   
    601. A(O  16,H  65,O  24)          106.8609         0.098362   
    602. A(O  16,H  65,O  34)           46.9580         0.098459   
    603. A(O  16,H  65,C  40)           24.0870         0.099407   
    604. A(O  24,H  65,C  46)           27.6264         0.102131   
    605. A(O  24,H  65,H  57)           39.4574         0.094212   
    606. A(O  16,H  65,O  26)           73.8475         0.100280   
    607. A(O  16,H  65,Al 60)          143.3162         0.132456   
    608. A(C  40,H  65,H  56)           22.9763         0.096822   
    609. A(C  41,H  65,H  56)           93.3728         0.094717   
    610. A(O  24,H  65,C  41)           86.9406         0.099967   
    611. A(O  34,H  65,C  41)           99.5620         0.100080   
    612. A(C  40,H  65,C  41)           82.5714         0.101191   
    613. A(O  26,H  65,C  41)           25.5889         0.102213   
    614. A(C  41,H  65,Al 60)          109.3563         0.139905   
    615. A(O  24,H  66,Al 72)           87.7532         0.142097   
    616. A(O  24,H  66,Al 60)           99.7586         0.142452   
    617. A(Al 60,H  66,Al 72)          172.1633         0.343880   
    618. A(O  24,H  66,O  26)           54.4037         0.098606   
    619. A(O  26,H  66,Al 72)           98.1037         0.134807   
    620. A(O  26,H  66,Al 60)           88.1675         0.135113   
    621. A(Al 72,Al 68,H  75)           93.0802         0.274875   
    622. A(H  70,Al 68,H  75)          155.8082         0.378288   
    623. A(H  69,Al 68,H  75)           92.2753         0.361757   
    624. A(H  62,Al 68,H  75)           96.8333         0.363134   
    625. A(Al 61,Al 68,H  75)          108.8690         0.410223   
    626. A(H  70,Al 68,Al 72)           95.2552         0.274775   
    627. A(H  62,Al 68,Al 72)          110.7501         0.265043   
    628. A(Al 61,Al 68,Al 72)           75.7504         0.295282   
    629. A(H  69,Al 68,H  70)           95.3573         0.361609   
    630. A(H  62,Al 68,H  70)          101.3341         0.362985   
    631. A(Al 61,Al 68,H  70)           95.1970         0.410049   
    632. A(H  62,Al 68,H  69)          112.4966         0.347329   
    633. A(Al 61,Al 68,H  69)           77.5681         0.391703   
    634. A(Al 61,Al 68,H  62)           36.4042         0.393231   
    635. L(Al 68,H  69,Al 72,Al 60, 2) 177.2779         0.344516   
    636. L(Al 68,H  69,Al 72,Al 60, 1) 177.4885         0.344516   
    637. A(H  81,Al 72,H  82)           74.1717         0.340748   
    638. A(Al 79,Al 72,H  82)           37.2474         0.390779   
    639. A(Al 76,Al 72,H  82)           63.4472         0.278200   
    640. A(H  74,Al 72,H  82)          111.8284         0.356183   
    641. A(H  73,Al 72,H  82)           77.7282         0.337078   
    642. A(H  69,Al 72,H  82)           87.7993         0.341276   
    643. A(Al 68,Al 72,H  82)           88.7474         0.261938   
    644. A(H  66,Al 72,H  82)          161.0687         0.340868   
    645. A(Al 60,Al 72,H  82)          158.7526         0.262391   
    646. A(Al 79,Al 72,H  81)           36.9858         0.392216   
    647. A(Al 76,Al 72,H  81)           61.8933         0.279101   
    648. A(H  74,Al 72,H  81)          106.8255         0.357455   
    649. A(H  73,Al 72,H  81)           72.3873         0.338259   
    650. A(H  69,Al 72,H  81)          147.8700         0.342477   
    651. A(Al 68,Al 72,H  81)          147.0997         0.262762   
    652. A(H  66,Al 72,H  81)          111.7092         0.342068   
    653. A(Al 60,Al 72,H  81)          115.4413         0.263217   
    654. A(Al 76,Al 72,Al 79)           53.2333         0.316880   
    655. A(H  74,Al 72,Al 79)          116.1035         0.410806   
    656. A(H  73,Al 72,Al 79)           69.5264         0.387795   
    657. A(H  69,Al 72,Al 79)          119.6901         0.392852   
    658. A(Al 68,Al 72,Al 79)          120.0268         0.297294   
    659. A(H  66,Al 72,Al 79)          144.5541         0.392361   
    660. A(Al 60,Al 72,Al 79)          147.4803         0.297840   
    661. A(H  74,Al 72,Al 76)          168.2663         0.290756   
    662. A(H  73,Al 72,Al 76)           16.5289         0.276329   
    663. A(H  69,Al 72,Al 76)           86.3636         0.279499   
    664. A(Al 68,Al 72,Al 76)           85.3914         0.219589   
    665. A(H  66,Al 72,Al 76)          102.5583         0.279191   
    666. A(Al 60,Al 72,Al 76)          103.1039         0.219932   
    667. A(H  73,Al 72,H  74)          170.0433         0.353541   
    668. A(H  69,Al 72,H  74)          104.5042         0.358018   
    669. A(Al 68,Al 72,H  74)          105.5906         0.273415   
    670. A(H  66,Al 72,H  74)           84.2842         0.357583   
    671. A(Al 60,Al 72,H  74)           84.3794         0.273898   
    672. A(H  69,Al 72,H  73)           77.9820         0.338781   
    673. A(Al 68,Al 72,H  73)           76.6583         0.260228   
    674. A(H  66,Al 72,H  73)           86.8394         0.338378   
    675. A(Al 60,Al 72,H  73)           87.0727         0.260677   
    676. A(H  66,Al 72,H  69)           78.2135         0.342598   
    677. A(Al 60,Al 72,H  69)           74.4387         0.263582   
    678. A(H  66,Al 72,Al 68)           76.9466         0.262844   
    679. A(Al 60,Al 72,Al 68)           73.1971         0.208678   
    680. A(Al 72,H  73,Al 76)          146.7817         0.337895   
    681. A(O  26,H  73,Al 76)           97.6219         0.132996   
    682. A(O  26,H  73,Al 72)           95.9907         0.132417   
    683. A(H  57,H  74,Al 72)          113.6991         0.118434   
    684. A(O  24,H  74,H  57)           39.0161         0.093482   
    685. A(O  24,H  74,Al 72)           78.5687         0.132386   
    686. A(Al 79,Al 76,H  83)           35.9695         0.390366   
    687. A(H  78,Al 76,H  83)          102.3472         0.362242   
    688. A(H  77,Al 76,H  83)          101.4692         0.362350   
    689. A(H  73,Al 76,H  83)          104.7295         0.344117   
    690. A(Al 72,Al 76,H  83)           88.5320         0.281012   
    691. A(H  78,Al 76,Al 79)          116.1673         0.408099   
    692. A(H  77,Al 76,Al 79)          102.8473         0.408225   
    693. A(H  73,Al 76,Al 79)           69.1395         0.386932   
    694. A(Al 72,Al 76,Al 79)           52.6871         0.313236   
    695. A(H  77,Al 76,H  78)          138.7217         0.378435   
    696. A(H  73,Al 76,H  78)          105.0164         0.359128   
    697. A(Al 72,Al 76,H  78)          113.2005         0.292310   
    698. A(H  73,Al 76,H  77)          100.8439         0.359235   
    699. A(Al 72,Al 76,H  77)          100.6035         0.292390   
    700. A(Al 72,Al 76,H  73)           16.6894         0.278824   
    701. A(O  26,H  78,C  41)           26.2155         0.099180   
    702. A(O  26,H  78,H  48)           42.5286         0.095608   
    703. A(O  26,H  78,O  27)           58.5021         0.101740   
    704. A(O  26,H  78,Al 76)          104.1436         0.140667   
    705. A(C  41,H  78,H  48)           22.6167         0.096290   
    706. A(O  27,H  78,C  41)           76.5990         0.103055   
    707. A(C  41,H  78,Al 76)          120.7912         0.146003   
    708. A(O  27,H  78,H  48)           98.5171         0.098123   
    709. A(H  48,H  78,Al 76)          110.0768         0.126000   
    710. A(O  27,H  78,Al 76)          103.9760         0.160339   
    711. A(O  26,H  78,C  47)           78.2403         0.096683   
    712. A(C  41,H  78,C  47)           90.4348         0.097476   
    713. A(C  47,H  78,H  48)          112.9933         0.094502   
    714. A(O  27,H  78,C  47)           23.0287         0.099608   
    715. A(C  47,H  78,Al 76)          112.7376         0.132022   
    716. A(H  82,Al 79,H  83)          109.8707         0.344580   
    717. A(H  81,Al 79,H  83)          104.2397         0.345832   
    718. A(H  80,Al 79,H  83)          121.1099         0.361319   
    719. A(Al 76,Al 79,H  83)           36.0152         0.390826   
    720. A(Al 72,Al 79,H  83)          109.9343         0.395731   
    721. A(H  81,Al 79,H  82)           74.3978         0.342592   
    722. A(H  80,Al 79,H  82)          124.4230         0.357883   
    723. A(Al 76,Al 79,H  82)           79.4793         0.387018   
    724. A(Al 72,Al 79,H  82)           37.3588         0.391862   
    725. A(H  80,Al 79,H  81)          110.2619         0.359201   
    726. A(Al 76,Al 79,H  81)           77.8573         0.388478   
    727. A(Al 72,Al 79,H  81)           37.1007         0.393345   
    728. A(Al 76,Al 79,H  80)          155.7694         0.406536   
    729. A(Al 72,Al 79,H  80)          126.4738         0.411697   
    730. A(Al 72,Al 79,Al 76)           74.0796         0.446663   
    731. A(O  24,H  81,O  27)           81.7601         0.099556   
    732. A(O  25,H  81,O  27)           56.9642         0.101266   
    733. A(O  27,H  81,Al 79)           93.9328         0.139477   
    734. A(O  27,H  81,Al 72)          141.1552         0.139290   
    735. A(O  24,H  81,O  25)           57.2200         0.101950   
    736. A(O  24,H  81,Al 79)          162.0600         0.142293   
    737. A(O  24,H  81,Al 72)           87.7597         0.142095   
    738. A(O  25,H  81,Al 79)          105.8957         0.150924   
    739. A(O  25,H  81,Al 72)          140.9377         0.150695   
    740. A(Al 72,H  81,Al 79)          105.9135         0.342889   
    741. A(Zr  3,H  81,O  26)           38.8809         0.104507   
    742. A(O  26,H  81,O  27)           52.5857         0.096873   
    743. A(O  24,H  81,O  26)           52.3719         0.097312   
    744. A(O  25,H  81,O  26)           80.4018         0.098658   
    745. A(O  26,H  81,Al 79)          136.2875         0.128746   
    746. A(O  26,H  81,Al 72)           91.8416         0.128598   
    747. A(Zr  3,H  81,O  27)           40.0422         0.108694   
    748. A(Zr  3,H  81,O  24)           41.8471         0.109793   
    749. A(Zr  3,H  81,O  25)           41.5371         0.113161   
    750. A(Zr  3,H  81,Al 79)          130.5317         0.188428   
    751. A(Zr  3,H  81,Al 72)          121.6945         0.188059   
    752. A(Al 72,H  82,Al 79)          105.3938         0.340454   
    753. A(Al 76,H  83,Al 79)          108.0154         0.347451   
    754. A(O  27,H  83,H  53)           39.0683         0.093160   
    755. A(H  53,H  83,Al 79)          110.2233         0.113225   
    756. A(H  53,H  83,Al 76)          106.8011         0.113188   
    757. A(O  27,H  83,Al 79)           88.5024         0.133452   
    758. A(O  27,H  83,Al 76)           84.0027         0.133384   
    759. D(O   7,Zr  2,Zr  1,Zr  4)     -9.9082         0.010000   
    760. D(Zr  5,Zr  2,Zr  1,O   7)    113.2169         0.010000   
    761. D(Zr  5,Zr  2,Zr  1,Zr  4)    103.3087         0.010000   
    762. D(Zr  4,Zr  3,Zr  0,O   6)   -109.8329         0.010000   
    763. D(Zr  4,Zr  3,Zr  0,Zr  5)   -107.4293         0.010000   
    764. D(O   6,Zr  3,Zr  0,Zr  5)      2.4036         0.010000   
    765. D(O   7,Zr  4,Zr  1,Zr  2)      9.7566         0.010000   
    766. D(Zr  3,Zr  4,Zr  1,O   7)   -115.9211         0.010000   
    767. D(Zr  1,Zr  4,Zr  3,Zr  0)    103.6105         0.010000   
    768. D(Zr  1,Zr  4,Zr  3,O   6)     69.2165         0.010000   
    769. D(O   7,Zr  4,Zr  3,Zr  0)     71.6196         0.010000   
    770. D(Zr  3,Zr  4,Zr  1,Zr  2)   -106.1645         0.010000   
    771. D(Zr  2,Zr  5,Zr  0,Zr  3)    104.1003         0.010000   
    772. D(Zr  2,Zr  5,Zr  0,O   6)    106.4687         0.010000   
    773. D(O   6,Zr  5,Zr  0,Zr  3)     -2.3684         0.010000   
    774. D(Zr  0,Zr  5,Zr  2,Zr  1)   -101.1214         0.010000   
    775. D(O   6,Zr  5,Zr  2,Zr  1)    -64.9941         0.010000   
    776. D(Zr  0,Zr  5,Zr  2,O   7)    -68.2009         0.010000   
    777. D(Zr  0,O   6,Zr  5,Zr  2)    -65.6053         0.010000   
    778. D(Zr  0,O   6,Zr  3,O   9)     28.9258         0.010000   
    779. D(Zr  5,O   6,Zr  3,Zr  0)   -173.2494         0.010000   
    780. D(Zr  0,O   6,Zr  5,O   8)   -102.1246         0.010000   
    781. D(Zr  3,O   6,Zr  5,Zr  0)    173.3080         0.010000   
    782. D(Zr  5,O   6,Zr  0,Zr  3)    176.1488         0.010000   
    783. D(Zr  3,O   6,Zr  0,O   9)    -28.5784         0.010000   
    784. D(Zr  0,O   6,Zr  3,Zr  4)     61.8645         0.010000   
    785. D(Zr  3,O   6,Zr  0,Zr  5)   -176.1488         0.010000   
    786. D(Zr  1,O   7,Zr  2,O   8)    -28.1630         0.010000   
    787. D(Zr  2,O   7,Zr  1,Zr  4)    164.1319         0.010000   
    788. D(Zr  4,O   7,Zr  1,Zr  2)   -164.1319         0.010000   
    789. D(Zr  2,O   7,Zr  1,O   8)     27.6021         0.010000   
    790. D(Zr  1,O   7,Zr  2,Zr  5)    -60.7526         0.010000   
    791. D(Zr  2,O   7,Zr  4,Zr  1)   -155.0335         0.010000   
    792. D(Zr  1,O   7,Zr  4,Zr  3)     57.2787         0.010000   
    793. D(Zr  1,O   7,Zr  4,O   9)     92.9900         0.010000   
    794. D(Zr  4,O   7,Zr  2,Zr  1)    154.9666         0.010000   
    795. D(Zr  5,O   8,Zr  2,Zr  1)   -144.4577         0.010000   
    796. D(Zr  2,O   8,Zr  5,Zr  0)     52.1609         0.010000   
    797. D(Zr  2,O   8,Zr  1,O   7)    -26.9056         0.010000   
    798. D(Zr  5,O   8,Zr  1,Zr  2)    129.8445         0.010000   
    799. D(Zr  1,O   8,Zr  5,Zr  2)   -129.2809         0.010000   
    800. D(Zr  1,O   8,Zr  5,Zr  0)    -77.1200         0.010000   
    801. D(Zr  1,O   8,Zr  2,O   7)     26.7254         0.010000   
    802. D(Zr  2,O   8,Zr  1,Zr  4)    -51.3403         0.010000   
    803. D(Zr  1,O   8,Zr  2,Zr  5)    144.4577         0.010000   
    804. D(Zr  3,O   9,Zr  4,Zr  1)    -48.5017         0.010000   
    805. D(Zr  0,O   9,Zr  4,Zr  3)    131.1537         0.010000   
    806. D(Zr  0,O   9,Zr  4,Zr  1)     82.6519         0.010000   
    807. D(Zr  4,O   9,Zr  3,Zr  0)    142.5002         0.010000   
    808. D(Zr  0,O   9,Zr  3,O   6)    -28.6524         0.010000   
    809. D(Zr  0,O   9,Zr  3,Zr  4)   -142.5002         0.010000   
    810. D(Zr  3,O   9,Zr  0,O   6)     28.4478         0.010000   
    811. D(Zr  3,O   9,Zr  0,Zr  5)     47.1911         0.010000   
    812. D(Zr  4,O   9,Zr  0,Zr  3)   -131.5165         0.010000   
    813. D(Zr  1,O  10,Zr  4,Zr  3)   -148.6341         0.010000   
    814. D(Zr  3,O  10,Zr  4,Zr  1)    148.6341         0.010000   
    815. D(Zr  4,O  10,Zr  3,Zr  0)    -51.5445         0.010000   
    816. D(Zr  1,O  10,Zr  3,Zr  4)    138.1731         0.010000   
    817. D(Zr  3,O  10,Zr  1,Zr  2)    -87.0753         0.010000   
    818. D(Zr  1,O  10,Zr  4,O   7)    -27.0843         0.010000   
    819. D(Zr  1,O  10,Zr  3,Zr  0)     86.6286         0.010000   
    820. D(Zr  3,O  10,Zr  1,Zr  4)   -138.3080         0.010000   
    821. D(Zr  4,O  10,Zr  1,Zr  2)     51.2327         0.010000   
    822. D(Zr  2,O  11,Zr  5,Zr  0)   -145.1427         0.010000   
    823. D(Zr  0,O  11,Zr  5,Zr  2)    145.1427         0.010000   
    824. D(Zr  5,O  11,Zr  2,Zr  1)     52.3394         0.010000   
    825. D(Zr  0,O  11,Zr  2,Zr  5)   -130.8271         0.010000   
    826. D(Zr  0,O  11,Zr  2,Zr  1)    -78.4877         0.010000   
    827. D(Zr  5,O  11,Zr  0,Zr  3)    -51.7588         0.010000   
    828. D(Zr  0,O  11,Zr  5,O   6)     31.8075         0.010000   
    829. D(Zr  2,O  11,Zr  0,Zr  5)    132.6098         0.010000   
    830. D(Zr  2,O  11,Zr  0,Zr  3)     80.8510         0.010000   
    831. D(C  36,O  12,Zr  0,Zr  5)     -0.6839         0.010000   
    832. D(C  36,O  12,Zr  0,Zr  3)     48.8875         0.010000   
    833. D(C  37,O  13,Zr  0,Zr  5)    -99.9001         0.010000   
    834. D(C  37,O  13,Zr  0,Zr  3)    -34.2383         0.010000   
    835. D(C  38,O  14,Zr  0,Zr  5)      5.0214         0.010000   
    836. D(C  38,O  14,Zr  0,Zr  3)    -77.3344         0.010000   
    837. D(C  39,O  15,Zr  0,Zr  3)    -74.4686         0.010000   
    838. D(C  39,O  15,Zr  0,Zr  5)    -25.8633         0.010000   
    839. D(H  65,O  16,Zr  1,Zr  2)    102.2941         0.010000   
    840. D(C  40,O  16,Zr  1,Zr  4)    -47.3565         0.010000   
    841. D(C  40,O  16,Zr  1,Zr  2)     36.2702         0.010000   
    842. D(C  41,O  17,Zr  1,Zr  4)    -74.4976         0.010000   
    843. D(C  41,O  17,Zr  1,Zr  2)    -26.1343         0.010000   
    844. D(C  42,O  18,Zr  1,Zr  4)     28.9918         0.010000   
    845. D(C  42,O  18,Zr  1,Zr  2)    -21.3796         0.010000   
    846. D(C  43,O  19,Zr  1,Zr  4)    -31.3500         0.010000   
    847. D(C  43,O  19,Zr  1,Zr  2)    -95.7859         0.010000   
    848. D(C  44,O  20,Zr  2,Zr  5)     13.8891         0.010000   
    849. D(C  44,O  20,Zr  2,Zr  1)    -45.0142         0.010000   
    850. D(C  38,O  21,Zr  2,Zr  5)    -65.2177         0.010000   
    851. D(C  38,O  21,Zr  2,Zr  1)      5.5185         0.010000   
    852. D(C  42,O  22,Zr  2,Zr  5)     33.5521         0.010000   
    853. D(C  42,O  22,Zr  2,Zr  1)    -21.0028         0.010000   
    854. D(C  45,O  23,Zr  2,Zr  5)    -44.5350         0.010000   
    855. D(C  45,O  23,Zr  2,Zr  1)     24.7284         0.010000   
    856. D(H  65,O  24,Zr  3,Zr  0)   -122.8883         0.010000   
    857. D(C  46,O  24,Zr  3,Zr  0)    -37.1266         0.010000   
    858. D(C  46,O  24,Zr  3,Zr  4)      0.1612         0.010000   
    859. D(H  81,O  25,Zr  3,Zr  0)   -162.2427         0.010000   
    860. D(C  37,O  25,Zr  3,Zr  4)    -87.1042         0.010000   
    861. D(C  37,O  25,Zr  3,Zr  0)    -26.1560         0.010000   
    862. D(H  65,O  26,Zr  3,Zr  0)     53.4262         0.010000   
    863. D(C  41,O  26,Zr  3,Zr  0)    -74.9182         0.010000   
    864. D(C  41,O  26,Zr  3,Zr  4)      1.4317         0.010000   
    865. D(H  78,O  27,Zr  3,Zr  0)    165.8830         0.010000   
    866. D(C  47,O  27,Zr  3,Zr  4)    -28.4306         0.010000   
    867. D(C  47,O  27,Zr  3,Zr  0)     18.7228         0.010000   
    868. D(C  47,O  28,Zr  4,Zr  3)    -27.6971         0.010000   
    869. D(C  47,O  28,Zr  4,Zr  1)     19.9399         0.010000   
    870. D(C  39,O  29,Zr  4,Zr  3)      1.4813         0.010000   
    871. D(C  39,O  29,Zr  4,Zr  1)    -74.5968         0.010000   
    872. D(C  43,O  30,Zr  4,Zr  3)    -88.3368         0.010000   
    873. D(C  43,O  30,Zr  4,Zr  1)    -27.1406         0.010000   
    874. D(C  45,O  31,Zr  4,Zr  1)    -62.7584         0.010000   
    875. D(C  45,O  31,Zr  4,Zr  3)    -18.9901         0.010000   
    876. D(C  46,O  32,Zr  5,Zr  0)     63.1672         0.010000   
    877. D(C  46,O  32,Zr  5,Zr  2)     31.9382         0.010000   
    878. D(C  36,O  33,Zr  5,Zr  2)     66.1105         0.010000   
    879. D(C  36,O  33,Zr  5,Zr  0)      1.2423         0.010000   
    880. D(H  65,O  34,Zr  5,Zr  0)    -30.3368         0.010000   
    881. D(C  40,O  34,Zr  5,Zr  2)    -19.0647         0.010000   
    882. D(C  40,O  34,Zr  5,Zr  0)     65.2397         0.010000   
    883. D(C  44,O  35,Zr  5,Zr  2)     15.1260         0.010000   
    884. D(C  44,O  35,Zr  5,Zr  0)    -30.8400         0.010000   
    885. D(O  33,C  36,O  12,Zr  0)      1.9031         0.046899   
    886. D(H  58,C  36,O  33,Zr  5)    177.9569         0.046901   
    887. D(O  12,C  36,O  33,Zr  5)     -2.3089         0.046901   
    888. D(H  58,C  36,O  12,Zr  0)   -178.3628         0.046899   
    889. D(H  51,C  37,O  25,Zr  3)   -164.6965         0.051120   
    890. D(O  13,C  37,O  25,H  81)    123.9456         0.051120   
    891. D(O  13,C  37,O  25,Zr  3)     14.3404         0.051120   
    892. D(H  51,C  37,O  13,Zr  0)   -151.0025         0.045693   
    893. D(O  25,C  37,O  13,Zr  0)     29.9610         0.045693   
    894. D(O  14,C  38,O  21,Zr  2)     15.5660         0.047867   
    895. D(H  50,C  38,O  14,Zr  0)   -154.7775         0.046956   
    896. D(O  21,C  38,O  14,Zr  0)     25.5121         0.046956   
    897. D(H  50,C  38,O  21,Zr  2)   -164.1445         0.047867   
    898. D(H  54,C  39,O  29,Zr  4)   -149.3159         0.045845   
    899. D(O  15,C  39,O  29,Zr  4)     31.2360         0.045845   
    900. D(H  54,C  39,O  15,Zr  0)   -162.5750         0.046725   
    901. D(O  29,C  39,O  15,Zr  0)     16.8736         0.046725   
    902. D(H  56,C  40,O  34,Zr  5)    164.0469         0.058347   
    903. D(O  16,C  40,O  34,H  65)     95.4393         0.058347   
    904. D(O  16,C  40,O  34,Zr  5)    -17.6944         0.058347   
    905. D(H  56,C  40,O  16,Zr  1)   -175.4999         0.058310   
    906. D(O  34,C  40,O  16,H  65)    -84.5607         0.058310   
    907. D(O  34,C  40,O  16,Zr  1)      6.2407         0.058310   
    908. D(H  48,C  41,O  26,Zr  3)   -148.6699         0.074867   
    909. D(O  17,C  41,O  26,H  65)    -98.7001         0.074867   
    910. D(O  17,C  41,O  26,Zr  3)     32.2623         0.074867   
    911. D(O  26,C  41,O  17,Zr  1)     16.7195         0.056463   
    912. D(H  48,C  41,O  17,Zr  1)   -162.3518         0.056463   
    913. D(H  49,C  42,O  22,Zr  2)   -165.2415         0.046475   
    914. D(O  18,C  42,O  22,Zr  2)     14.7851         0.046475   
    915. D(H  49,C  42,O  18,Zr  1)   -163.6315         0.046526   
[...]
freq.      79.67  E(vib)   ...       0.49 
freq.      81.07  E(vib)   ...       0.48 
freq.      85.98  E(vib)   ...       0.48 
freq.      90.66  E(vib)   ...       0.47 
freq.      93.50  E(vib)   ...       0.47 
freq.      96.34  E(vib)   ...       0.47 
freq.      98.22  E(vib)   ...       0.46 
freq.     102.91  E(vib)   ...       0.46 
freq.     105.03  E(vib)   ...       0.45 
freq.     106.13  E(vib)   ...       0.45 
freq.     107.74  E(vib)   ...       0.45 
freq.     111.64  E(vib)   ...       0.45 
freq.     113.62  E(vib)   ...       0.44 
freq.     119.03  E(vib)   ...       0.44 
freq.     120.62  E(vib)   ...       0.44 
freq.     128.14  E(vib)   ...       0.43 
freq.     130.88  E(vib)   ...       0.42 
freq.     142.58  E(vib)   ...       0.41 
freq.     148.52  E(vib)   ...       0.41 
freq.     150.94  E(vib)   ...       0.40 
freq.     152.73  E(vib)   ...       0.40 
freq.     153.35  E(vib)   ...       0.40 
freq.     154.61  E(vib)   ...       0.40 
freq.     156.14  E(vib)   ...       0.40 
freq.     158.50  E(vib)   ...       0.39 
freq.     159.94  E(vib)   ...       0.39 
freq.     164.66  E(vib)   ...       0.39 
freq.     166.11  E(vib)   ...       0.39 
freq.     167.79  E(vib)   ...       0.38 
freq.     171.55  E(vib)   ...       0.38 
freq.     172.73  E(vib)   ...       0.38 
freq.     175.59  E(vib)   ...       0.38 
freq.     177.25  E(vib)   ...       0.37 
freq.     185.10  E(vib)   ...       0.37 
freq.     187.76  E(vib)   ...       0.36 
freq.     190.08  E(vib)   ...       0.36 
freq.     191.29  E(vib)   ...       0.36 
freq.     196.96  E(vib)   ...       0.35 
freq.     199.67  E(vib)   ...       0.35 
freq.     202.27  E(vib)   ...       0.35 
freq.     205.03  E(vib)   ...       0.35 
freq.     209.78  E(vib)   ...       0.34 
freq.     213.61  E(vib)   ...       0.34 
freq.     214.79  E(vib)   ...       0.34 
freq.     218.64  E(vib)   ...       0.33 
freq.     227.47  E(vib)   ...       0.33 
freq.     229.03  E(vib)   ...       0.32 
freq.     230.49  E(vib)   ...       0.32 
freq.     232.35  E(vib)   ...       0.32 
freq.     237.19  E(vib)   ...       0.32 
freq.     244.71  E(vib)   ...       0.31 
freq.     256.24  E(vib)   ...       0.30 
freq.     258.83  E(vib)   ...       0.30 
freq.     261.34  E(vib)   ...       0.30 
freq.     263.29  E(vib)   ...       0.29 
freq.     264.40  E(vib)   ...       0.29 
freq.     265.18  E(vib)   ...       0.29 
freq.     266.39  E(vib)   ...       0.29 
freq.     269.97  E(vib)   ...       0.29 
freq.     271.85  E(vib)   ...       0.29 
freq.     272.29  E(vib)   ...       0.29 
freq.     273.01  E(vib)   ...       0.29 
freq.     277.31  E(vib)   ...       0.28 
freq.     278.69  E(vib)   ...       0.28 
freq.     282.08  E(vib)   ...       0.28 
freq.     282.73  E(vib)   ...       0.28 
freq.     284.79  E(vib)   ...       0.28 
freq.     286.52  E(vib)   ...       0.27 
freq.     291.44  E(vib)   ...       0.27 
freq.     294.62  E(vib)   ...       0.27 
freq.     295.44  E(vib)   ...       0.27 
freq.     296.51  E(vib)   ...       0.27 
freq.     299.47  E(vib)   ...       0.26 
freq.     302.05  E(vib)   ...       0.26 
freq.     307.26  E(vib)   ...       0.26 
freq.     310.54  E(vib)   ...       0.26 
freq.     310.94  E(vib)   ...       0.26 
freq.     312.84  E(vib)   ...       0.25 
freq.     314.54  E(vib)   ...       0.25 
freq.     315.93  E(vib)   ...       0.25 
freq.     319.01  E(vib)   ...       0.25 
freq.     320.95  E(vib)   ...       0.25 
freq.     324.46  E(vib)   ...       0.25 
freq.     326.71  E(vib)   ...       0.24 
freq.     330.31  E(vib)   ...       0.24 
freq.     339.08  E(vib)   ...       0.23 
freq.     340.60  E(vib)   ...       0.23 
freq.     345.64  E(vib)   ...       0.23 
freq.     348.86  E(vib)   ...       0.23 
freq.     352.18  E(vib)   ...       0.23 
freq.     361.89  E(vib)   ...       0.22 
freq.     370.10  E(vib)   ...       0.21 
freq.     380.51  E(vib)   ...       0.21 
freq.     384.38  E(vib)   ...       0.20 
freq.     393.37  E(vib)   ...       0.20 
freq.     394.85  E(vib)   ...       0.20 
freq.     400.62  E(vib)   ...       0.19 
freq.     402.04  E(vib)   ...       0.19 
freq.     403.88  E(vib)   ...       0.19 
freq.     412.10  E(vib)   ...       0.19 
freq.     416.82  E(vib)   ...       0.18 
freq.     419.94  E(vib)   ...       0.18 
freq.     421.30  E(vib)   ...       0.18 
freq.     424.09  E(vib)   ...       0.18 
freq.     455.34  E(vib)   ...       0.16 
freq.     459.12  E(vib)   ...       0.16 
freq.     476.66  E(vib)   ...       0.15 
freq.     480.17  E(vib)   ...       0.15 
freq.     483.35  E(vib)   ...       0.15 
freq.     484.39  E(vib)   ...       0.15 
freq.     495.96  E(vib)   ...       0.14 
freq.     519.91  E(vib)   ...       0.13 
freq.     528.72  E(vib)   ...       0.13 
freq.     542.61  E(vib)   ...       0.12 
freq.     567.56  E(vib)   ...       0.11 
freq.     614.23  E(vib)   ...       0.10 
freq.     625.09  E(vib)   ...       0.09 
freq.     627.45  E(vib)   ...       0.09 
freq.     640.55  E(vib)   ...       0.09 
freq.     653.02  E(vib)   ...       0.08 
freq.     658.47  E(vib)   ...       0.08 
freq.     679.36  E(vib)   ...       0.08 
freq.     680.56  E(vib)   ...       0.08 
freq.     683.79  E(vib)   ...       0.07 
freq.     689.23  E(vib)   ...       0.07 
freq.     691.28  E(vib)   ...       0.07 
freq.     697.19  E(vib)   ...       0.07 
freq.     707.33  E(vib)   ...       0.07 
freq.     725.31  E(vib)   ...       0.06 
freq.     731.13  E(vib)   ...       0.06 
freq.     733.24  E(vib)   ...       0.06 
freq.     734.63  E(vib)   ...       0.06 
freq.     735.75  E(vib)   ...       0.06 
freq.     736.27  E(vib)   ...       0.06 
freq.     737.01  E(vib)   ...       0.06 
freq.     738.49  E(vib)   ...       0.06 
freq.     738.55  E(vib)   ...       0.06 
freq.     739.44  E(vib)   ...       0.06 
freq.     739.54  E(vib)   ...       0.06 
freq.     740.05  E(vib)   ...       0.06 
freq.     741.22  E(vib)   ...       0.06 
freq.     742.24  E(vib)   ...       0.06 
freq.     744.51  E(vib)   ...       0.06 
freq.     753.31  E(vib)   ...       0.06 
freq.     778.08  E(vib)   ...       0.05 
freq.     792.05  E(vib)   ...       0.05 
freq.     814.27  E(vib)   ...       0.05 
freq.     825.70  E(vib)   ...       0.04 
freq.     889.66  E(vib)   ...       0.04 
freq.     944.88  E(vib)   ...       0.03 
freq.     992.73  E(vib)   ...       0.02 
freq.     999.26  E(vib)   ...       0.02 
freq.     999.96  E(vib)   ...       0.02 
freq.    1000.51  E(vib)   ...       0.02 
freq.    1000.82  E(vib)   ...       0.02 
freq.    1002.13  E(vib)   ...       0.02 
freq.    1002.19  E(vib)   ...       0.02 
freq.    1004.22  E(vib)   ...       0.02 
freq.    1005.75  E(vib)   ...       0.02 
freq.    1006.02  E(vib)   ...       0.02 
freq.    1006.26  E(vib)   ...       0.02 
freq.    1006.96  E(vib)   ...       0.02 
freq.    1007.89  E(vib)   ...       0.02 
freq.    1053.86  E(vib)   ...       0.02 
freq.    1146.38  E(vib)   ...       0.01 
freq.    1341.40  E(vib)   ...       0.01 
freq.    1344.04  E(vib)   ...       0.01 
freq.    1346.42  E(vib)   ...       0.01 
freq.    1349.75  E(vib)   ...       0.01 
freq.    1350.15  E(vib)   ...       0.01 
freq.    1354.42  E(vib)   ...       0.01 
freq.    1355.34  E(vib)   ...       0.01 
freq.    1355.53  E(vib)   ...       0.01 
freq.    1356.44  E(vib)   ...       0.01 
freq.    1356.94  E(vib)   ...       0.01 
freq.    1358.19  E(vib)   ...       0.01 
freq.    1358.46  E(vib)   ...       0.01 
freq.    1361.22  E(vib)   ...       0.01 
freq.    1362.23  E(vib)   ...       0.01 
freq.    1362.54  E(vib)   ...       0.01 
freq.    1363.35  E(vib)   ...       0.01 
freq.    1363.86  E(vib)   ...       0.01 
freq.    1364.56  E(vib)   ...       0.01 
freq.    1364.78  E(vib)   ...       0.01 
freq.    1365.73  E(vib)   ...       0.01 
freq.    1365.81  E(vib)   ...       0.01 
freq.    1369.75  E(vib)   ...       0.01 
freq.    1369.86  E(vib)   ...       0.01 
freq.    1377.64  E(vib)   ...       0.01 
freq.    1539.57  E(vib)   ...       0.00 
freq.    1547.87  E(vib)   ...       0.00 
freq.    1550.67  E(vib)   ...       0.00 
freq.    1561.49  E(vib)   ...       0.00 
freq.    1562.24  E(vib)   ...       0.00 
freq.    1567.26  E(vib)   ...       0.00 
freq.    1574.70  E(vib)   ...       0.00 
freq.    1576.35  E(vib)   ...       0.00 
freq.    1625.82  E(vib)   ...       0.00 
freq.    1629.64  E(vib)   ...       0.00 
freq.    1633.11  E(vib)   ...       0.00 
freq.    1635.37  E(vib)   ...       0.00 
freq.    1637.08  E(vib)   ...       0.00 
freq.    1655.46  E(vib)   ...       0.00 
freq.    1708.04  E(vib)   ...       0.00 
freq.    1713.70  E(vib)   ...       0.00 
freq.    1749.97  E(vib)   ...       0.00 
freq.    1802.64  E(vib)   ...       0.00 
freq.    1829.39  E(vib)   ...       0.00 
freq.    1846.23  E(vib)   ...       0.00 
freq.    1857.28  E(vib)   ...       0.00 
freq.    1880.13  E(vib)   ...       0.00 
freq.    1888.88  E(vib)   ...       0.00 
freq.    1889.92  E(vib)   ...       0.00 
freq.    1901.09  E(vib)   ...       0.00 
freq.    1904.12  E(vib)   ...       0.00 
freq.    1906.66  E(vib)   ...       0.00 
freq.    1913.57  E(vib)   ...       0.00 
freq.    1918.53  E(vib)   ...       0.00 
freq.    1971.78  E(vib)   ...       0.00 
freq.    2874.45  E(vib)   ...       0.00 
freq.    2889.65  E(vib)   ...       0.00 
freq.    2891.56  E(vib)   ...       0.00 
freq.    2895.64  E(vib)   ...       0.00 
freq.    2895.99  E(vib)   ...       0.00 
freq.    2902.83  E(vib)   ...       0.00 
freq.    2906.73  E(vib)   ...       0.00 
freq.    2907.72  E(vib)   ...       0.00 
freq.    2908.26  E(vib)   ...       0.00 
freq.    2908.63  E(vib)   ...       0.00 
freq.    2909.33  E(vib)   ...       0.00 
freq.    2910.34  E(vib)   ...       0.00 

------------
INNER ENERGY
------------

The inner energy is: U= E(el) + E(ZPE) + E(vib) + E(rot) + E(trans)
    E(el)   - is the total energy from the electronic structure calculation
              = E(kin-el) + E(nuc-el) + E(el-el) + E(nuc-nuc)
    E(ZPE)  - the the zero temperature vibrational energy from the frequency calculation
    E(vib)  - the the finite temperature correction to E(ZPE) due to population
              of excited vibrational states
    E(rot)  - is the rotational thermal energy
    E(trans)- is the translational thermal energy

Summary of contributions to the inner energy U:
Electronic energy                ...  -4464.48194761 Eh
Zero point energy                ...      0.43649859 Eh     273.91 kcal/mol
Thermal vibrational correction   ...      0.06995360 Eh      43.90 kcal/mol
Thermal rotational correction    ...      0.00141627 Eh       0.89 kcal/mol
Thermal translational correction ...      0.00141627 Eh       0.89 kcal/mol
-----------------------------------------------------------------------
Total thermal energy                  -4463.97266287 Eh


Summary of corrections to the electronic energy:
(perhaps to be used in another calculation)
Total thermal correction                  0.07278615 Eh      45.67 kcal/mol
Non-thermal (ZPE) correction              0.43649859 Eh     273.91 kcal/mol
-----------------------------------------------------------------------
Total correction                          0.50928474 Eh     319.58 kcal/mol


--------
ENTHALPY
--------

The enthalpy is H = U + kB*T
                kB is Boltzmann's constant
Total thermal energy              ...  -4463.97266287 Eh 
Thermal Enthalpy correction       ...      0.00094421 Eh       0.59 kcal/mol
-----------------------------------------------------------------------
Total Enthalpy                    ...  -4463.97171867 Eh


Note: Only C1 symmetry has been detected, increase convergence thresholds 
      if your molecule has a higher symmetry. Symmetry factor of 1.0 is   
      used for the rotational entropy correction. 
 

Note: Rotational entropy computed according to Herzberg 
Infrared and Raman Spectra, Chapter V,1, Van Nostrand Reinhold, 1945 
Point Group:  C1, Symmetry Number:   1  
Rotational constants in cm-1:     0.001626     0.000934     0.000922 

Vibrational entropy computed according to the QRRHO of S. Grimme
Chem.Eur.J. 2012 18 9955 using a reference frequency of 100.0 cm-1


-------
ENTROPY
-------

The entropy contributions are T*S = T*(S(el)+S(vib)+S(rot)+S(trans))
     S(el)   - electronic entropy
     S(vib)  - vibrational entropy
     S(rot)  - rotational entropy
     S(trans)- translational entropy
The entropies will be listed as multiplied by the temperature to get
units of energy

Electronic entropy                ...      0.00000000 Eh      0.00 kcal/mol
Vibrational entropy               ...      0.12489827 Eh     78.37 kcal/mol
Rotational entropy                ...      0.01913477 Eh     12.01 kcal/mol
Translational entropy             ...      0.02257151 Eh     14.16 kcal/mol
-----------------------------------------------------------------------
Final entropy term                ...      0.16660454 Eh    104.55 kcal/mol

In case the symmetry of your molecule has not been determined correctly
or in case you have a reason to use a different symmetry number we print 
out the resulting rotational entropy values for sn=1,12:

 non-linear molecules -----------------------------------
|  sn= 1 | S(rot)=       0.01913477 Eh     12.01 kcal/mol|
|  sn= 2 | S(rot)=       0.01848032 Eh     11.60 kcal/mol|
|  sn= 3 | S(rot)=       0.01809748 Eh     11.36 kcal/mol|
|  sn= 4 | S(rot)=       0.01782586 Eh     11.19 kcal/mol|
|  sn= 5 | S(rot)=       0.01761517 Eh     11.05 kcal/mol|
|  sn= 6 | S(rot)=       0.01744303 Eh     10.95 kcal/mol|
|  sn= 7 | S(rot)=       0.01729748 Eh     10.85 kcal/mol|
|  sn= 8 | S(rot)=       0.01717140 Eh     10.78 kcal/mol|
|  sn= 9 | S(rot)=       0.01706020 Eh     10.71 kcal/mol|
|  sn=10 | S(rot)=       0.01696072 Eh     10.64 kcal/mol|
|  sn=11 | S(rot)=       0.01687073 Eh     10.59 kcal/mol|
|  sn=12 | S(rot)=       0.01678857 Eh     10.53 kcal/mol|
 linear molecules ---------------------------------------
|  Dinfh | S(rot)=       0.01192431 Eh      7.48 kcal/mol|
|  Cinfv | S(rot)=       0.01257876 Eh      7.89 kcal/mol|
 --------------------------------------------------------


-------------------
GIBBS FREE ENERGY
-------------------

The Gibbs free energy is G = H - T*S

Total enthalpy                    ...  -4463.97171867 Eh 
Total entropy correction          ...     -0.16660454 Eh   -104.55 kcal/mol
-----------------------------------------------------------------------
Final Gibbs free energy         ...  -4464.13832321 Eh

For completeness - the Gibbs free energy minus the electronic energy
G-E(el)                           ...      0.34362440 Eh    215.63 kcal/mol


Maximum memory used throughout the entire PROP-calculation: 165.2 MB

--------------------------------
SUGGESTED CITATIONS FOR THIS RUN
--------------------------------

Below you find a list of papers that are relevant to this ORCA run
We neither can nor want to force you to cite these papers, but we appreciate if you do
You receive ORCA, which is the product of decades of hard work by many enthusiastic individuals, for free
The only thing we kindly ask in return is that you cite our papers,
We deeply appreciate it, if you show your appreciation for ORCA by not just citing the generic ORCA reference.

Please note that relegating all ORCA citations to the supporting information does *not* help us.
SI sections are not indexed - citations you put there will not count into any citation statistics
But we need these citations in order to attract the funding resources that allow us to do what we are doing

Therefore, if you are a happy ORCA user, please consider citing a few of the papers listed below in the main body of your paper

In addition to the list printed below, the program has created the file run.bibtex that contains the list in bibtex format
You can import this file easily into all common literature databanks and citation aid programs


List of essential papers. We consider these as the minimum necessary citations

  1. Neese, F.
     Software update: the ORCA program system, version 6.0
     WIRES Comput. Molec. Sci. 2025 15(1), e70019
     doi.org/10.1002/wcms.7019

List of papers to cite with high priority. The work reported in these papers was absolutely
necessary for this run to complete.
Our perspective: the developers of density functionals and basis sets usually get cited in chemistry papers
Good! But without the algorithms to do something with them, the functionals or basis sets would not do anything.
Hence, in our opinion, the algorithm design and method developments papers are equally worthy of getting cited

  1. Neese, F.
     An improvement of the resolution of the identity approximation for the formation of the Coulomb matrix
     J. Comp. Chem. 2003 24(14), 1740-1747
     doi.org/10.1002/jcc.10318
  2. Grimme, S.; Antony, J.; Ehrlich, S.; Krieg, H.
     A consistent and accurate ab initio parametrization of density functional dispersion correction (DFT-D) for the 94 elements H-Pu
     J. Chem. Phys. 2010 132 , 154104
     doi.org/10.1063/1.3382344
  3. Grimme, S.; Ehrlich, S.; Goerigk, L.
     Effect of the damping function in dispersion corrected density functional theory
     J. Comput. Chem. 2011 32(7), 1456-1465
     doi.org/10.1002/jcc.21759
  4. Bykov, D.; Petrenko, T.; Izsak, R.; Kossmann, S.; Becker, U.; Valeev, E.; Neese, F.
     Efficient implementation of the analytic second derivatives of Hartree-Fock and hybrid DFT energies: a detailed analysis of different approximations
     Molec. Phys. 2015 113 , 1961-1977
     doi.org/10.1080/00268976.2015.1025114
  5. Helmich-Paris, B.
     A trust-region augmented Hessian implementation for restricted and unrestricted Hartree–Fock and Kohn–Sham methods
     J. Chem. Phys. 2021 154 , 164104
     doi.org/10.1063/5.0040798
  6. Neese, F.
     The SHARK Integral Generation and Digestion System
     J. Comp. Chem. 2022 44(3), 381
     doi.org/10.1002/jcc.26942

List of suggested additional citations. These are papers that are important in the 'surrounding' of 
of this run, or papers that preceded the highly important papers. If you like your results we are grateful for a citation.

  1. Neese, F.
     The ORCA program system
     WIRES Comput. Molec. Sci. 2012 2(1), 73-78
     doi.org/10.1002/wcms.81
  2. Neese, F.
     Software update: the ORCA program system, version 4.0
     WIRES Comput. Molec. Sci. 2018 8(1), 1-6
     doi.org/10.1002/wcms.1327
  3. Neese, F.; Wennmohs, F.; Becker, U.; Riplinger, C.
     The ORCA quantum chemistry program package
     J. Chem. Phys. 2020 152(22), 224108
     doi.org/10.1063/5.0004608
  4. Neese, F.
     Software update: The ORCA program system—Version 5.0
     WIRES Comput. Molec. Sci. 2022 12(1), e1606
     doi.org/10.1002/wcms.1606

List of optional additional citations

  1. Neese, F.
     Approximate second-order SCF convergence for spin unrestricted wavefunctions
     Chem. Phys. Lett. 2000 325(1-3), 93-98
     doi.org/10.1016/s0009-2614(00)00662-x

Timings for individual modules:

Sum of individual times          ...     9698.990 sec (= 161.650 min)
Startup calculation              ...      317.135 sec (=   5.286 min)   3.3 %
SCF iterations                   ...     2713.007 sec (=  45.217 min)  28.0 %
Property integrals               ...     2099.893 sec (=  34.998 min)  21.7 %
SCF Response                     ...     1821.372 sec (=  30.356 min)  18.8 %
Property calculations            ...     1793.454 sec (=  29.891 min)  18.5 %
SCF Gradient evaluation          ...      890.136 sec (=  14.836 min)   9.2 %
Geometry relaxation              ...       63.993 sec (=   1.067 min)   0.7 %
                             ****ORCA TERMINATED NORMALLY****
TOTAL RUN TIME: 0 days 2 hours 41 minutes 59 seconds 131 msec
