
                                 *****************
                                 * O   R   C   A *
                                 *****************

                                            #,                                       
                                            ###                                      
                                            ####                                     
                                            #####                                    
                                            ######                                   
                                           ########,                                 
                                     ,,################,,,,,                         
                               ,,#################################,,                 
                          ,,##########################################,,             
                       ,#########################################, ''#####,          
                    ,#############################################,,   '####,        
                  ,##################################################,,,,####,       
                ,###########''''           ''''###############################       
              ,#####''   ,,,,##########,,,,          '''####'''          '####       
            ,##' ,,,,###########################,,,                        '##       
           ' ,,###''''                  '''############,,,                           
         ,,##''                                '''############,,,,        ,,,,,,###''
      ,#''                                            '''#######################'''  
     '                                                          ''''####''''         
             ,#######,   #######,   ,#######,      ##                                
            ,#'     '#,  ##    ##  ,#'     '#,    #''#        ,####,    ,#,          
            ##       ##  ##   ,#'  ##            #'  '#       #'       ,# #          
            ##       ##  #######   ##           ,######,      #####,      #          
            '#,     ,#'  ##    ##  '#,     ,#' ,#      #,     #,   #      #          
             '#######'   ##     ##  '#######'  #'      '#     '####' #    #          



                #########################################################
                #                        -***-                          #
                #          Department of theory and spectroscopy        #
                #                                                       #
                #                      Frank Neese                      #
                #                                                       #
                #     Directorship, Architecture, Infrastructure        #
                #                    SHARK, DRIVERS                     #
                #        Core code/Algorithms in most modules           #
                #                                                       #
                #        Max Planck Institute fuer Kohlenforschung      #
                #                Kaiser Wilhelm Platz 1                 #
                #                 D-45470 Muelheim/Ruhr                 #
                #                      Germany                          #
                #                                                       #
                #                  All rights reserved                  #
                #                        -***-                          #
                #########################################################


                         Program Version 6.1.0  -  RELEASE   -
                                (GIT: $679e74b$)
                          ($2025-06-10 18:02:51 +0200$)


 With contributions from (in alphabetic order):
[Max-Planck-Institut fuer Kohlenforschung]                               
  Daniel Aravena         : Magnetic Suceptibility                        
  Michael Atanasov       : Ab Initio Ligand Field Theory (pilot matlab implementation)
  Alexander A. Auer      : GIAO ZORA, VPT2 properties, NMR spectrum      
  Ute Becker             : All parallelization in ORCA, NUMFREQ, NUMCALC 
  Giovanni Bistoni       : ED, misc. LED, open-shell LED, HFLD           
  Dmytro Bykov           : pre 5.0 version of the SCF Hessian            
  Marcos Casanova-Páez   : Triplet and SCS-CIS(D). UHF-(DLPNO)-IP/EA/STEOM-CCSD. UHF-CVS-IP/STEOM-CCSD   
  Vijay G. Chilkuri      : MRCI spin determinant printing, contributions to CSF-ICE 
  Pauline Colinet        : FMM embedding                                 
  Dipayan Datta          : RHF DLPNO-CCSD density                        
  Achintya Kumar Dutta   : EOM-CC, STEOM-CC                              
  Nicolas Foglia         : Exact transition moments, OPA infrastructure, MCD improvements    
  Dmitry Ganyushin       : Spin-Orbit,Spin-Spin,Magnetic field MRCI      
  Miquel Garcia-Rates    : C-PCM and meta-GGA Hessian, CCSD/C-PCM, Gaussian charge scheme 
  Tiago L. C. Gouveia    : GS-ROHF, GS-ROCIS                             
  Yang Guo               : DLPNO-NEVPT2, F12-NEVPT2, CIM, IAO-localization        
  Andreas Hansen         : Spin unrestricted coupled pair/coupled cluster methods 
  Ingolf Harden          : AUTO-CI MPn and infrastructure                
  Benjamin Helmich-Paris : MC-RPA, TRAH-(SCF,CASSCF), AVAS, COSX integrals, SCF dyn. polar., MC-PDFT, srDFT 
  Lee Huntington         : MR-EOM, pCC                                   
  Robert Izsak           : Overlap fitted RIJCOSX, COSX-SCS-MP3, EOM     
  Riya Kayal             : Wick's Theorem for AUTO-CI, AUTO-CI UHF-CCSDT 
  Emily Kempfer          : AUTO-CI RHF CISDT and CCSDT, approximate NEVPT4
  Christian Kollmar      : KDIIS, OOCD, Brueckner-CCSD(T), CCSD density, CASPT2, CASPT2-K, improved NEVPT2 
  Axel Koslowski         : Symmetry handling                             
  Simone Kossmann        : meta-GGA functionals, TD-DFT gradient, OOMP2, (MP2 Hessian; deprecated post 5.0) 
  Lucas Lang             : DCDCAS, Hyperfine gauge corrections, ICE-SOC+SSC
  Marvin Lechner         : AUTO-CI (C++ implementation), FIC-MRCC        
  Spencer Leger          : CASSCF response                               
  Dagmar Lenk            : GEPOL surface, SMD, ORCA-2-JSON               
  Dimitrios Liakos       : Extrapolation schemes; Compound Job, Property file
  Dimitrios Manganas     : Further ROCIS development; embedding schemes. LFT, Crystal Embedding 
  Dimitrios Pantazis     : SARC Basis sets                               
  Anastasios Papadopoulos: AUTO-CI, single reference methods and gradients 
  Taras Petrenko         : pre 6.0 DFT Hessian and TD-DFT gradient,  ECA, NRVS 
  Petra Pikulova         : Analytic Raman intensities                    
  Peter Pinski           : DLPNO-MP2, DLPNO-MP2 Gradient                 
  Shashank Vittal Rao    : ES-AILFT, MagRelax                            
  Christoph Reimann      : Effective Core Potentials                     
  Marius Retegan         : Local ZFS, SOC                                
  Christoph Riplinger    : Optimizer, TS searches, QM/MM, DLPNO-CCSD(T), (RO)-DLPNO pert. Triples 
  Michael Roemelt        : Original ROCIS implementation, recursive CI coupling coefficients
  Masaaki Saitow         : Open-shell DLPNO-CCSD energy and density      
  Barbara Sandhoefer     : DKH picture change effects                    
  Yorick L. A. Schmerwitz: GMF and freeze-and-release deltaSCF, NEB S-IDPP initial path                    
  Kantharuban Sivalingam : CASSCF convergence/infrastructure, NEVPT2, NEVPT3, NEVPT4(SD), FIC-MRCI and CEPA variants
  Bernardo de Souza      : ESD, SOC TD-DFT                               
  Georgi L. Stoychev     : AutoAux, RI-MP2 NMR, DLPNO-MP2 response, X2C  
  Van Anh Tran           : RI-MP2 g-tensors                              
  Willem Van den Heuvel  : Paramagnetic NMR                              
  Zikuan Wang            : NOTCH, Electric field optimization            
  Frank Wennmohs         : Technical directorship and infrastructure     
  Hang Xu                : AUTO-CI-Response properties                   
                                                                         
[FACCTs GmbH]                                                            
  Markus Bursch, Nicolas Foglia, Miquel Garcia-Rates, Ingolf Harden, Hagen Neugebauer, Anastasios Papadopoulos, 
  Christoph Riplinger, Bernardo de Souza, Georgi L. Stoychev                                                    
                                                                 
  APM, various basis sets, CI-OPT, improved COSX, DLPNO-Multilevel,           
  DOCKER, DRACO, updates on ESD, Fragmentator, GOAT, IRC, LR-CPCM, L-BFGS, MBIS, meta-GGA TD-DFT gradient, ML-optimized integration grids, 
  MM, NACMEs, nearIR, NEB, NEB-TS, NL-DFT gradient (VV10), 2- and 3-layer-ONIOM, interface openCOSMO-RS, QMMM,   
  Crystal-QMMM, RESP, rigid body optimization, SF, symmetry and pop. for TD-DFT, various functionals, SOLVATOR                                   
                                                                         
[Other institutions]                                                     
  V. Asgeirsson          : NEB                                           
  Christoph Bannwarth    : sTDA-DFT, sTD-DFT, PBEh-3c, B97-3c, D3        
  Giovanni Bistoni       : ETS/NOCV, ADLD/ADEX, COVALED                  
  Martin Brehm           : Molecular dynamics                            
  Ronald Cardenas        : ETS/NOCV                                      
  Martina Colucci        : COVALED                                       
  Sebastian Ehlert       : rSCAN, r2SCAN, r2SCAN-3c, D4, dhf basis sets  
  Marvin Friede          : D4 for Fr, Ra, Ac-Lr                          
  Lars Goerigk           : TD-DFT with DH, B97 family of functionals     
  Stefan Grimme          : VdW corrections, initial TS optimization, DFT functionals, gCP, sTDA/sTD-DF 
  Waldemar Hujo          : DFT-NL                                        
  H. Jonsson             : NEB                                           
  Holger Kruse           : gCP                                           
  Marcel Mueller         : wB97X-3c, vDZP basis set                      
  Hagen Neugebauer       : wr2SCAN, Native XTB                           
  Gianluca Regni         : ADLD/ADEX                                     
  Tobias Risthaus        : pre 6.0 range-separated hybrid DFT and stability analysis
  Lukas Wittmann         : regularized MP2, r2SCAN double-hybrids, wr2SCAN        
                                                                         
We gratefully acknowledge several colleagues who have allowed us to      
interface, adapt or use parts of their codes:                            
  Ed Valeev, F. Pavosevic, A. Kumar             : LibInt (2-el integral package), F12 methods 
  Garnet Chan, S. Sharma, J. Yang, R. Olivares  : DMRG                   
  Ulf Ekstrom                                   : XCFun DFT Library      
  Mihaly Kallay                                 : mrcc  (arbitrary order and MRCC methods)
  Frank Weinhold                                : gennbo (NPA and NBO analysis)           
  Simon Mueller                                 : openCOSMO-RS                            
  Christopher J. Cramer and Donald G. Truhlar   : smd solvation model                     
  S Lehtola, MJT Oliveira, MAL Marques          : LibXC Library                           
  Liviu Ungur et al                             : ANISO software                          


 Your calculation uses the libint2 library for the computation of 2-el integrals
 For citations please refer to: http://libint.valeyev.net

 Your ORCA version has been built with support for libXC version: 7.0.0
 For citations please refer to: https://libxc.gitlab.io

 This ORCA versions uses:
   CBLAS   interface :  Fast vector & matrix operations
   LAPACKE interface :  Fast linear algebra routines
   SCALAPACK package :  Parallel linear algebra routines
   Shared memory     :  Shared parallel matrices
   BLAS/LAPACK       :  OpenBLAS 0.3.29  USE64BITINT DYNAMIC_ARCH NO_AFFINITY Bulldozer SINGLE_THREADED
        Core in use  :  Bulldozer
   Copyright (c) 2011-2014, The OpenBLAS Project


  ***********************************
  * Starting time: Fri Aug  8 17:31:02 2025
  * Host name:     chromium09
  * Process ID:    139544
  * Working dir.:  /local/scratch/mehlhorn/61806
  ***********************************



***************************************
The coordinates will be read from file: start.xyz
***************************************


Your calculation utilizes the geometrical counterpoise correction gCP
Please cite in your paper:
H.Kruse, S. Grimme J.Chem.Phys., 136, (2012), 154101 
   

Your calculation utilizes the atom-pairwise dispersion correction
with the Becke-Johnson damping scheme (D3BJ)


Warning: RI is on but no J-basis has been assigned. Assigning Def2/J (nothing to worry about!)
================================================================================

cite the ECPs for Zr [Def2-ECP] as follows:
Ce-Yb(ecp-28): M. Dolg, H. Stoll, H.Preuss, J. Chem. Phys., 1989, 90, 1730-1734.
Y-Cd(ecp-28), Hf-Hg(ecp-46): D. Andrae,U. Haeussermann, M. Dolg, H. Stoll, H. Preuss, Theor. Chim. Acta, 1990, 77, 123-141.
In-Sb(ecp-28), Tl-Bi(ecp-46): B. Metz, H. Stoll, M. Dolg, J. Chem. Phys., 2000, 113, 2563-2569.
Te-Xe(ecp-28), Po-Rn(ecp-46): K. A. Peterson, D. Figgen, E. Goll, H. Stoll, M. Dolg, J. Chem. Phys., 2003, 119, 11113-11123.
Rb(ecp-28), Cs(ecp-46): T. Leininger, A. Nicklass, W. Kuechle, H. Stoll, M. Dolg, A. Bergner, Chem. Phys. Lett., 1996, 255, 274-280.
Sr(ecp-28), Ba(ecp-46): M. Kaupp, P. V. Schleyer, H. Stoll and H. Preuss, J. Chem. Phys., 1991, 94, 1360-1366.
La(ecp-46): M. Dolg, H. Stoll, A. Savin, H. Preuss, Theor. Chim. Acta, 1989, 75, 173-194.
Lu(ecp-28): X. Cao, M. Dolg, J. Chem. Phys., 2001, 115, 7348-7355.

ECP parameters for Zr [Def2-ECP] have been obtained from:
TURBOMOLE (7.0.2)

----- Orbital basis set information -----
Your calculation utilizes the basis: def2-SV(P)
   F. Weigend and R. Ahlrichs, Phys. Chem. Chem. Phys. 7, 3297 (2005).

----- AuxJ basis set information -----
Your calculation utilizes the auxiliary basis: def2/J
   H-Rn: F. Weigend, Phys. Chem. Chem. Phys. 8, 1057 (2006).
   Fr-Lr: K. Eichkorn, F. Weigend, O. Treutler, R. Ahlrichs; Theor. Chem. Acc. 97, 119 (1997).

================================================================================
                                        WARNINGS
                       Please study these warnings very carefully!
================================================================================


WARNING: Gradients are needed
  ===> : At least TightSCF should be used for SCF convergence

WARNING: Geometry Optimization
  ===> : Switching off AutoStart
         For restart on a previous wavefunction, please use MOREAD

================================================================================
                                       INPUT FILE
================================================================================
NAME = run.inp
|  1> # Geometry optimization for (AlH3)n cluster
|  2> 
|  3> %pal nprocs 24  end
|  4> 
|  5> %geom MaxIter 500 end
|  6> 
|  7> 
|  8> ! PBE def2-SV(P)
|  9> ! RKS	# closed shell for AlH3
| 10> ! D3    #  dispersion correction
| 11> ! gCP(DFT/SV(P))
| 12> ! Freq 	# Frequency analysis to check the stabiltity of the structures
| 13> 
| 14> ! NoPop # population analysis not necessary	
| 15> 
| 16> ! DEFGRID2
| 17> ! NormalSCF
| 18> ! SloppyOpt
| 19> 
| 20> ! SmallPrint
| 21> 
| 22> 
| 23> * xyzFile 0 1 start.xyz # only maingroup elements H and Al so there should be no net spin
| 24> 
| 25>                          ****END OF INPUT****
================================================================================

                       *****************************
                       * Geometry Optimization Run *
                       *****************************

Geometry optimization settings:
Update method            Update   .... BFGS
Choice of coordinates    CoordSys .... (2022) Redundant Internals
Initial Hessian          InHess   .... Almloef's Model
Max. no of cycles        MaxIter  .... 500

Convergence Tolerances:
Energy Change            TolE     ....  8.0000e-05 Eh
Max. Gradient            TolMAXG  ....  5.0000e-03 Eh/bohr
RMS Gradient             TolRMSG  ....  1.0000e-03 Eh/bohr
Max. Displacement        TolMAXD  ....  3.0000e-02 bohr
RMS Displacement         TolRMSD  ....  2.0000e-02 bohr
Strict Convergence                .... False

------------------------------------------------------------------------------
                        ORCA OPTIMIZATION COORDINATE SETUP
------------------------------------------------------------------------------

The optimization will be done in redundant internal coordinates (2022)
Making redundant internal coordinates   ...  (2022 redundants) done
Evaluating the initial hessian          ...  (Almloef) done
Evaluating the coordinates              ...  done
Calculating the B-matrix                .... done
Calculating the G-matrix                .... done
The number of degrees of freedom        ....  862

    -----------------------------------------------------------------
                    Redundant Internal Coordinates


    -----------------------------------------------------------------
         Definition                    Initial Value    Approx d2E/dq
    -----------------------------------------------------------------
      1. B(Zr  2,Zr  1)                  3.4182         0.037168   
      2. B(Zr  3,Zr  0)                  3.4257         0.036160   
      3. B(Zr  4,Zr  1)                  3.4282         0.035818   
      4. B(Zr  4,Zr  3)                  3.3725         0.043954   
      5. B(Zr  5,Zr  2)                  3.3711         0.044183   
      6. B(Zr  5,Zr  0)                  3.4287         0.035758   
      7. B(O   6,Zr  0)                  2.1560         0.339527   
      8. B(O   6,Zr  3)                  2.1745         0.317205   
      9. B(O   6,Zr  5)                  2.1726         0.319495   
     10. B(O   7,Zr  1)                  2.1555         0.340155   
     11. B(O   7,Zr  2)                  2.1803         0.310599   
     12. B(O   7,Zr  4)                  2.1762         0.315313   
     13. B(O   8,Zr  1)                  2.0707         0.464416   
     14. B(O   8,Zr  2)                  2.0982         0.419905   
     15. B(O   8,Zr  5)                  2.1340         0.368153   
     16. B(O   9,Zr  4)                  2.1358         0.365637   
     17. B(O   9,Zr  3)                  2.0950         0.424783   
     18. B(O   9,Zr  0)                  2.0779         0.452421   
     19. B(O  10,Zr  4)                  2.0859         0.439194   
     20. B(O  10,Zr  3)                  2.1483         0.349227   
     21. B(O  10,Zr  1)                  2.0858         0.439413   
     22. B(O  11,Zr  2)                  2.1394         0.360886   
     23. B(O  11,Zr  5)                  2.0879         0.436066   
     24. B(O  11,Zr  0)                  2.0765         0.454779   
     25. B(O  12,Zr  0)                  1.9762         0.657287   
     26. B(O  13,Zr  0)                  1.9718         0.668006   
     27. B(O  14,Zr  0)                  2.0716         0.462984   
     28. B(O  15,Zr  0)                  2.0697         0.466164   
     29. B(O  16,Zr  1)                  2.0704         0.464931   
     30. B(O  17,Zr  1)                  2.0684         0.468358   
     31. B(O  18,Zr  1)                  1.9717         0.668190   
     32. B(O  19,Zr  1)                  1.9731         0.664831   
     33. B(O  20,Zr  2)                  1.9958         0.611672   
     34. B(O  21,Zr  2)                  2.0778         0.452551   
     35. B(O  22,Zr  2)                  1.9748         0.660776   
     36. B(O  23,Zr  2)                  1.9986         0.605345   
     37. B(O  24,Zr  3)                  2.0071         0.586843   
     38. B(O  25,Zr  3)                  1.9791         0.650314   
     39. B(O  26,Zr  3)                  2.0713         0.463413   
     40. B(O  27,Zr  3)                  1.9918         0.620631   
     41. B(O  28,Zr  4)                  1.9948         0.613805   
     42. B(O  29,Zr  4)                  2.0767         0.454333   
     43. B(O  30,Zr  4)                  1.9808         0.646196   
     44. B(O  31,Zr  4)                  1.9897         0.625456   
     45. B(O  32,Zr  5)                  1.9944         0.614795   
     46. B(O  33,Zr  5)                  1.9809         0.646077   
     47. B(O  34,Zr  5)                  2.0721         0.462063   
     48. B(O  35,Zr  5)                  1.9960         0.611152   
     49. B(C  36,O  33)                  1.2999         0.779046   
     50. B(C  36,O  12)                  1.3002         0.778347   
     51. B(C  37,O  25)                  1.2993         0.780930   
     52. B(C  37,O  13)                  1.2995         0.780356   
     53. B(C  38,O  21)                  1.2978         0.785286   
     54. B(C  38,O  14)                  1.2993         0.780961   
     55. B(C  39,O  15)                  1.2985         0.783299   
     56. B(C  39,O  29)                  1.2972         0.786810   
     57. B(C  40,O  34)                  1.2970         0.787520   
     58. B(C  40,O  16)                  1.2979         0.784941   
     59. B(C  41,O  26)                  1.2976         0.785793   
     60. B(C  41,O  17)                  1.2991         0.781503   
     61. B(C  42,O  22)                  1.2997         0.779827   
     62. B(C  42,O  18)                  1.2996         0.780100   
     63. B(C  43,O  19)                  1.3004         0.777673   
     64. B(C  43,O  30)                  1.3007         0.776858   
     65. B(C  44,O  35)                  1.3023         0.772393   
     66. B(C  44,O  20)                  1.3025         0.771804   
     67. B(C  45,O  31)                  1.2947         0.794327   
     68. B(C  45,O  23)                  1.2949         0.793496   
     69. B(C  46,O  32)                  1.2950         0.793278   
     70. B(C  46,O  24)                  1.2950         0.793271   
     71. B(C  47,O  28)                  1.3021         0.772926   
     72. B(C  47,O  27)                  1.3021         0.772835   
     73. B(H  48,C  41)                  1.0860         0.365418   
     74. B(H  49,C  42)                  1.0907         0.359177   
     75. B(H  50,C  38)                  1.0859         0.365596   
     76. B(H  51,C  37)                  1.0904         0.359575   
     77. B(H  52,C  43)                  1.0913         0.358347   
     78. B(H  53,C  47)                  1.0925         0.356818   
     79. B(H  54,C  39)                  1.0854         0.366208   
     80. B(H  55,C  45)                  1.0863         0.365021   
     81. B(H  56,C  40)                  1.0852         0.366456   
     82. B(H  57,C  46)                  1.0862         0.365145   
     83. B(H  58,C  36)                  1.0907         0.359119   
     84. B(H  59,C  44)                  1.0926         0.356633   
     85. B(Al 61,Al 60)                  2.7330         0.220908   
     86. B(H  62,O  30)                  2.8530         0.010000   
     87. B(H  62,C  43)                  2.8505         0.010000   
     88. B(H  62,H  52)                  2.5960         0.010000   
     89. B(H  62,Al 61)                  1.6732         0.296123   
     90. B(H  63,Al 61)                  1.6110         0.372261   
     91. B(H  64,O  22)                  2.9407         0.010000   
     92. B(H  64,C  42)                  2.7757         0.010000   
     93. B(H  64,H  49)                  2.5100         0.010000   
     94. B(H  64,Al 61)                  1.6721         0.297363   
     95. B(H  64,Al 60)                  1.6716         0.297883   
     96. B(H  65,Al 60)                  1.6110         0.372211   
     97. B(H  66,O  31)                  3.1348         0.010000   
     98. B(H  66,C  45)                  2.7045         0.010000   
     99. B(H  66,H  55)                  2.4693         0.010000   
    100. B(H  66,Al 60)                  1.6712         0.298376   
    101. B(H  67,C  42)                  2.9437         0.010000   
    102. B(H  67,H  49)                  2.9219         0.010000   
    103. B(H  67,C  43)                  2.8344         0.010000   
    104. B(H  67,O  19)                  2.8142         0.010000   
    105. B(H  67,H  52)                  2.8111         0.010000   
    106. B(H  67,O  18)                  2.7561         0.010000   
    107. B(H  67,Al 61)                  1.6079         0.376431   
    108. B(Al 68,H  66)                  1.6718         0.297722   
    109. B(Al 68,H  62)                  1.6724         0.297099   
    110. B(Al 68,Al 61)                  2.7322         0.221598   
    111. B(Al 68,Al 60)                  2.7385         0.216493   
    112. B(H  69,O  31)                  2.5841         0.010000   
    113. B(H  69,O  30)                  2.5694         0.010000   
    114. B(H  69,Al 68)                  1.6094         0.374407   
    115. B(H  70,Al 68)                  1.6109         0.372344   
    116. B(H  71,H  55)                  3.1641         0.010000   
    117. B(H  71,C  45)                  3.1149         0.010000   
    118. B(H  71,O  22)                  2.5944         0.010000   
    119. B(H  71,O  23)                  2.5903         0.010000   
    120. B(H  71,Al 60)                  1.6089         0.375113   
    121. A(O   6,Zr  0,O  13)           84.1834         0.492712   
    122. A(O   9,Zr  0,O  14)          119.7003         0.485509   
    123. A(O   9,Zr  0,O  15)           70.8993         0.486124   
    124. A(O  12,Zr  0,O  15)          133.7998         0.521156   
    125. A(Zr  3,Zr  0,O   9)           34.9863         0.338260   
    126. A(Zr  3,Zr  0,O  14)          150.3562         0.339565   
    127. A(O   6,Zr  0,O  11)           68.0417         0.459065   
    128. A(O  11,Zr  0,O  15)          122.9803         0.486591   
    129. A(O   6,Zr  0,O  14)          137.4151         0.460566   
    130. A(Zr  3,Zr  0,O  12)          118.8730         0.360248   
    131. A(O   9,Zr  0,O  12)          152.8987         0.518239   
    132. A(Zr  3,Zr  0,O  13)           72.6439         0.361243   
    133. A(O  11,Zr  0,O  12)           86.9136         0.518744   
    134. A(O  11,Zr  0,O  13)          151.4397         0.520320   
    135. A(O   6,Zr  0,O  12)           85.2093         0.491237   
    136. A(Zr  5,Zr  0,O  14)           99.7554         0.338933   
    137. A(O  14,Zr  0,O  15)           77.3236         0.488203   
    138. A(Zr  3,Zr  0,Zr  5)           70.3535         0.246117   
    139. A(O   9,Zr  0,O  13)           90.2378         0.519813   
    140. A(Zr  5,Zr  0,O  13)          116.9961         0.360556   
    141. A(Zr  5,Zr  0,O  15)          151.8624         0.339320   
    142. A(O  13,Zr  0,O  14)          133.9887         0.522070   
    143. A(O  12,Zr  0,O  14)           81.8359         0.520487   
    144. A(Zr  5,Zr  0,O  12)           72.0081         0.359563   
    145. A(O  12,Zr  0,O  13)           84.1716         0.557817   
    146. A(O   9,Zr  0,O  11)           85.4707         0.483907   
    147. A(O  13,Zr  0,O  15)           81.5941         0.522741   
    148. A(O   6,Zr  0,O  15)          136.0755         0.461142   
    149. A(Zr  3,Zr  0,O  11)           88.2815         0.338553   
    150. A(O  11,Zr  0,O  14)           70.8847         0.485976   
    151. A(Zr  5,Zr  0,O  11)           34.6875         0.337923   
    152. A(Zr  5,Zr  0,O   9)           87.2547         0.337631   
    153. A(O   6,Zr  0,O   9)           67.8233         0.458630   
    154. A(Zr  3,Zr  0,O  15)           98.1910         0.339954   
    155. A(Zr  3,Zr  0,O   6)           37.9064         0.322580   
    156. A(Zr  5,Zr  0,O   6)           37.7863         0.321990   
    157. A(O  17,Zr  1,O  18)          135.0994         0.523229   
    158. A(O  10,Zr  1,O  18)          150.4332         0.517005   
    159. A(Zr  4,Zr  1,O   8)           87.0918         0.339202   
    160. A(O  16,Zr  1,O  17)           76.9776         0.489008   
    161. A(O   8,Zr  1,O  10)           84.7544         0.483175   
    162. A(O   8,Zr  1,O  17)          116.7432         0.488907   
    163. A(O   8,Zr  1,O  19)          154.9513         0.521905   
    164. A(O   8,Zr  1,O  16)           70.9175         0.488243   
    165. A(Zr  2,Zr  1,O  16)           97.2063         0.341370   
    166. A(Zr  4,Zr  1,O  19)           72.1665         0.360366   
    167. A(O  10,Zr  1,O  16)          124.5917         0.483274   
    168. A(O   7,Zr  1,O  17)          138.1488         0.461694   
    169. A(Zr  4,Zr  1,O  17)          100.5594         0.339681   
    170. A(O   7,Zr  1,O   8)           68.1156         0.460981   
    171. A(Zr  4,Zr  1,O  16)          153.0587         0.339265   
    172. A(O  16,Zr  1,O  18)           81.0257         0.522508   
    173. A(O   8,Zr  1,O  18)           91.5099         0.522399   
    174. A(Zr  4,Zr  1,O   7)           37.8913         0.322176   
    175. A(O   7,Zr  1,O  18)           83.2210         0.492906   
    176. A(O   7,Zr  1,O  16)          135.4280         0.461075   
    177. A(O   7,Zr  1,O  19)           86.8358         0.492446   
    178. A(O  10,Zr  1,O  17)           70.9678         0.483930   
    179. A(Zr  2,Zr  1,O  17)          148.3761         0.341790   
    180. A(Zr  2,Zr  1,O  18)           72.5914         0.362961   
    181. A(Zr  2,Zr  1,O   7)           38.2228         0.324137   
    182. A(Zr  2,Zr  1,O  19)          121.4191         0.362648   
    183. A(Zr  4,Zr  1,O  18)          115.8993         0.360676   
    184. A(Zr  2,Zr  1,Zr  4)           70.6155         0.247158   
    185. A(Zr  2,Zr  1,O  10)           88.2662         0.338166   
    186. A(Zr  2,Zr  1,O   8)           35.1876         0.341307   
    187. A(O   7,Zr  1,O  10)           68.1480         0.456351   
    188. A(Zr  4,Zr  1,O  10)           34.7386         0.336088   
    189. A(O  18,Zr  1,O  19)           85.3631         0.559059   
    190. A(O  17,Zr  1,O  19)           81.6498         0.522734   
    191. A(O  16,Zr  1,O  19)          132.6264         0.522014   
    192. A(O  10,Zr  1,O  19)           85.8289         0.516517   
    193. A(Zr  5,Zr  2,O   8)           37.5679         0.345460   
    194. A(O   8,Zr  2,O  22)           98.1940         0.511560   
    195. A(Zr  5,Zr  2,O  23)          141.5847         0.367596   
    196. A(O   7,Zr  2,O   8)           67.1754         0.445190   
    197. A(Zr  1,Zr  2,O  23)          111.1788         0.356904   
    198. A(O   8,Zr  2,O  21)          129.2057         0.476865   
    199. A(Zr  5,Zr  2,O  20)           71.3992         0.368252   
    200. A(O  11,Zr  2,O  23)          105.9174         0.489301   
    201. A(Zr  5,Zr  2,O  22)          128.9362         0.373176   
    202. A(Zr  5,Zr  2,O   7)           96.6570         0.328542   
    203. A(Zr  5,Zr  2,O  11)           36.5866         0.336817   
    204. A(O  21,Zr  2,O  23)           74.4677         0.510342   
    205. A(O   8,Zr  2,O  23)          138.7141         0.503262   
    206. A(Zr  5,Zr  2,O  21)           91.7019         0.349843   
    207. A(O  22,Zr  2,O  23)           86.1330         0.548031   
    208. A(O  11,Zr  2,O  20)           96.0326         0.490244   
    209. A(O  20,Zr  2,O  23)          137.7510         0.540078   
    210. A(Zr  1,Zr  2,O  22)           74.3896         0.362270   
    211. A(O   8,Zr  2,O  20)           83.2304         0.504238   
    212. A(Zr  1,Zr  2,O   7)           37.7125         0.319349   
    213. A(O  21,Zr  2,O  22)          126.2215         0.518781   
    214. A(O  11,Zr  2,O  22)          163.4156         0.497319   
    215. A(Zr  1,Zr  2,Zr  5)           71.4850         0.254853   
    216. A(O   7,Zr  2,O  20)          140.3235         0.476845   
    217. A(O   7,Zr  2,O  22)           77.2951         0.483683   
    218. A(O   7,Zr  2,O  11)           94.8324         0.433186   
    219. A(O   8,Zr  2,O  11)           65.2261         0.457496   
    220. A(O   7,Zr  2,O  21)          138.5689         0.451278   
    221. A(Zr  1,Zr  2,O  11)           90.4035         0.327307   
    222. A(O   7,Zr  2,O  23)           73.9712         0.475934   
    223. A(O  20,Zr  2,O  21)           80.6554         0.511335   
    224. A(Zr  1,Zr  2,O  21)          159.3770         0.339833   
    225. A(O  20,Zr  2,O  22)           81.6786         0.549113   
    226. A(Zr  1,Zr  2,O   8)           34.6612         0.335618   
    227. A(Zr  1,Zr  2,O  20)          104.1538         0.357535   
    228. A(O  11,Zr  2,O  21)           69.0526         0.463794   
    229. A(O   9,Zr  3,O  10)           65.2788         0.455725   
    230. A(Zr  4,Zr  3,O   6)           96.4062         0.329402   
    231. A(O  10,Zr  3,O  24)          108.9241         0.483555   
    232. A(O  26,Zr  3,O  27)           81.1796         0.515008   
    233. A(Zr  0,Zr  3,O   9)           34.6585         0.334729   
    234. A(Zr  0,Zr  3,O  24)          110.3470         0.353377   
    235. A(O  10,Zr  3,O  26)           69.0971         0.463021   
    236. A(O  24,Zr  3,O  26)           74.7711         0.509645   
    237. A(O   6,Zr  3,O  10)           94.4240         0.432269   
    238. A(Zr  4,Zr  3,O  27)           71.5636         0.368843   
    239. A(O   6,Zr  3,O  26)          136.8538         0.454967   
    240. A(Zr  4,Zr  3,O  26)           92.4558         0.350939   
    241. A(O   6,Zr  3,O   9)           67.1797         0.447828   
    242. A(Zr  0,Zr  3,O  27)          105.4169         0.356748   
    243. A(Zr  4,Zr  3,O  10)           36.5686         0.334693   
    244. A(O   6,Zr  3,O  25)           77.4658         0.484138   
    245. A(Zr  4,Zr  3,O   9)           37.5647         0.345829   
    246. A(Zr  0,Zr  3,O  25)           73.9717         0.359594   
    247. A(O   9,Zr  3,O  26)          129.9027         0.479974   
    248. A(O   9,Zr  3,O  24)          139.4920         0.501439   
    249. A(O  25,Zr  3,O  26)          127.1866         0.519537   
    250. A(Zr  4,Zr  3,O  24)          144.4711         0.365320   
    251. A(O  10,Zr  3,O  27)           95.7356         0.488586   
    252. A(O   9,Zr  3,O  27)           83.7894         0.506698   
    253. A(O  25,Zr  3,O  27)           81.9040         0.548965   
    254. A(O  24,Zr  3,O  27)          135.9260         0.538396   
    255. A(O  24,Zr  3,O  25)           84.0075         0.543174   
    256. A(Zr  4,Zr  3,O  25)          127.9693         0.371818   
    257. A(Zr  0,Zr  3,Zr  4)           71.3597         0.253630   
    258. A(O   6,Zr  3,O  27)          141.4982         0.479982   
    259. A(Zr  0,Zr  3,O   6)           37.5275         0.319012   
    260. A(O  10,Zr  3,O  25)          162.4263         0.492834   
    261. A(Zr  0,Zr  3,O  10)           90.0460         0.324074   
    262. A(O   9,Zr  3,O  25)           97.1492         0.511138   
    263. A(Zr  0,Zr  3,O  26)          158.8201         0.339618   
    264. A(O   6,Zr  3,O  24)           73.7007         0.475059   
    265. A(O   9,Zr  4,O  10)           65.6562         0.462364   
    266. A(O   7,Zr  4,O  10)           67.7550         0.450059   
    267. A(Zr  3,Zr  4,O  31)          142.3674         0.369334   
    268. A(Zr  3,Zr  4,O  10)           37.8507         0.347776   
    269. A(O   9,Zr  4,O  29)           69.3556         0.465239   
    270. A(Zr  3,Zr  4,O  30)          127.6866         0.371412   
    271. A(O  30,Zr  4,O  31)           86.3865         0.549110   
    272. A(O  29,Zr  4,O  31)           75.0801         0.513849   
    273. A(O  28,Zr  4,O  31)          136.1826         0.543785   
    274. A(O  28,Zr  4,O  29)           80.4182         0.512044   
    275. A(O  29,Zr  4,O  30)          128.7769         0.516997   
    276. A(O   9,Zr  4,O  30)          160.9292         0.496466   
    277. A(Zr  1,Zr  4,O  30)           73.2534         0.358625   
    278. A(O   7,Zr  4,O  29)          138.1342         0.452839   
    279. A(Zr  3,Zr  4,O  29)           90.7342         0.349769   
    280. A(O   7,Zr  4,O   9)           92.3699         0.435386   
    281. A(O   7,Zr  4,O  31)           74.6417         0.480138   
    282. A(Zr  3,Zr  4,O  28)           72.3342         0.368144   
    283. A(Zr  1,Zr  4,O  28)          104.8941         0.355505   
    284. A(O   7,Zr  4,O  30)           76.9787         0.483036   
    285. A(Zr  3,Zr  4,O   7)           95.9606         0.329077   
    286. A(O  10,Zr  4,O  31)          140.7822         0.510602   
    287. A(Zr  1,Zr  4,O  29)          157.9420         0.337962   
    288. A(Zr  1,Zr  4,O   7)           37.4695         0.318208   
    289. A(Zr  3,Zr  4,O   9)           36.7273         0.337260   
    290. A(Zr  1,Zr  4,O  31)          111.4662         0.356642   
    291. A(Zr  1,Zr  4,Zr  3)           71.1812         0.253276   
    292. A(O   9,Zr  4,O  31)          106.2379         0.493469   
    293. A(O  10,Zr  4,O  30)           95.4850         0.513727   
    294. A(O   7,Zr  4,O  28)          140.8223         0.478477   
    295. A(Zr  1,Zr  4,O   9)           88.6271         0.326020   
    296. A(O   9,Zr  4,O  28)           98.0812         0.491751   
    297. A(O  10,Zr  4,O  28)           82.4640         0.508812   
    298. A(O  10,Zr  4,O  29)          128.5839         0.481177   
    299. A(Zr  1,Zr  4,O  10)           34.7360         0.336060   
    300. A(O  28,Zr  4,O  30)           81.3600         0.547156   
    301. A(O  11,Zr  5,O  35)           82.2494         0.507722   
    302. A(O  34,Zr  5,O  35)           80.3688         0.513247   
    303. A(O  33,Zr  5,O  35)           82.0296         0.546688   
    304. A(O  32,Zr  5,O  35)          136.3696         0.541575   
    305. A(O   8,Zr  5,O  35)           98.1002         0.491981   
    306. A(O   6,Zr  5,O  35)          140.5936         0.479257   
    307. A(Zr  2,Zr  5,O  35)           72.1611         0.368198   
    308. A(Zr  0,Zr  5,O  35)          104.6356         0.355143   
    309. A(O  33,Zr  5,O  34)          128.3269         0.518617   
    310. A(O  32,Zr  5,O  34)           75.6794         0.513818   
    311. A(O  11,Zr  5,O  34)          128.5721         0.482041   
    312. A(Zr  0,Zr  5,Zr  2)           70.7000         0.253408   
    313. A(Zr  0,Zr  5,O  34)          157.7725         0.338820   
    314. A(O  32,Zr  5,O  33)           84.9586         0.547304   
    315. A(Zr  2,Zr  5,O   6)           95.5648         0.330078   
    316. A(Zr  0,Zr  5,O  33)           73.8753         0.358512   
    317. A(Zr  2,Zr  5,O  32)          142.9424         0.368574   
    318. A(Zr  0,Zr  5,O  32)          111.3288         0.355502   
    319. A(O   8,Zr  5,O  32)          106.7605         0.492524   
    320. A(O   6,Zr  5,O  32)           74.5774         0.479782   
    321. A(O   8,Zr  5,O  34)           69.6538         0.467266   
    322. A(Zr  0,Zr  5,O   6)           37.4486         0.318805   
    323. A(Zr  2,Zr  5,O  33)          128.3285         0.371732   
    324. A(O  11,Zr  5,O  32)          140.6792         0.508286   
    325. A(O   6,Zr  5,O  33)           76.9538         0.484197   
    326. A(O  11,Zr  5,O  33)           96.1635         0.513023   
    327. A(O   8,Zr  5,O  33)          161.3262         0.497082   
    328. A(O   6,Zr  5,O  34)          138.3318         0.455322   
    329. A(Zr  2,Zr  5,O  34)           90.9293         0.351074   
    330. A(O   8,Zr  5,O  11)           65.4970         0.462340   
    331. A(O   6,Zr  5,O  11)           67.5301         0.450552   
    332. A(Zr  2,Zr  5,O  11)           37.6432         0.347662   
    333. A(Zr  0,Zr  5,O  11)           34.4706         0.335567   
    334. A(O   6,Zr  5,O   8)           91.9303         0.436960   
    335. A(Zr  2,Zr  5,O   8)           36.8321         0.337938   
    336. A(Zr  0,Zr  5,O   8)           88.1425         0.326298   
    337. A(Zr  3,O   6,Zr  5)          130.5643         0.425425   
    338. A(Zr  0,O   6,Zr  5)          104.7651         0.430643   
    339. A(Zr  0,O   6,Zr  3)          104.5661         0.430087   
    340. A(Zr  2,O   7,Zr  4)          130.5486         0.422829   
    341. A(Zr  1,O   7,Zr  4)          104.6392         0.429768   
    342. A(Zr  1,O   7,Zr  2)          104.0648         0.428608   
    343. A(Zr  1,O   8,Zr  2)          110.1511         0.479144   
    344. A(Zr  2,O   8,Zr  5)          105.6000         0.459163   
    345. A(Zr  1,O   8,Zr  5)          141.2036         0.467701   
    346. A(Zr  0,O   9,Zr  4)          140.4528         0.464880   
    347. A(Zr  3,O   9,Zr  4)          105.7081         0.459556   
    348. A(Zr  0,O   9,Zr  3)          110.3552         0.477855   
    349. A(Zr  3,O  10,Zr  4)          105.5807         0.458504   
    350. A(Zr  1,O  10,Zr  4)          110.5254         0.478224   
    351. A(Zr  1,O  10,Zr  3)          138.3977         0.458546   
    352. A(Zr  2,O  11,Zr  5)          105.7702         0.460659   
    353. A(Zr  0,O  11,Zr  5)          110.8418         0.480630   
    354. A(Zr  0,O  11,Zr  2)          137.8886         0.464211   
    355. A(Zr  0,O  12,C  36)          131.7683         0.508206   
    356. A(Zr  0,O  13,C  37)          132.2121         0.509989   
    357. A(Zr  0,O  14,C  38)          138.3473         0.476535   
    358. A(Zr  0,O  15,C  39)          139.0407         0.477399   
    359. A(Zr  1,O  16,C  40)          139.3283         0.477350   
    360. A(Zr  1,O  17,C  41)          138.6004         0.477610   
    361. A(Zr  1,O  18,C  42)          132.7847         0.509984   
    362. A(Zr  1,O  18,H  67)          108.8272         0.163349   
    363. A(C  42,O  18,H  67)           85.0389         0.155511   
    364. A(C  43,O  19,H  67)           77.5596         0.152330   
    365. A(Zr  1,O  19,H  67)          106.6306         0.159762   
    366. A(Zr  1,O  19,C  43)          131.3367         0.509208   
    367. A(Zr  2,O  20,C  44)          125.8334         0.500650   
    368. A(Zr  2,O  21,C  38)          130.2464         0.475023   
    369. A(Zr  2,O  22,C  42)          129.1123         0.508889   
    370. A(C  42,O  22,H  64)           69.8574         0.146042   
    371. A(Zr  2,O  22,H  64)          140.7788         0.152608   
    372. A(H  64,O  22,H  71)           53.1657         0.100525   
    373. A(C  42,O  22,H  71)          122.5059         0.165076   
    374. A(Zr  2,O  22,H  71)          102.3500         0.173834   
    375. A(C  45,O  23,H  71)          101.3169         0.165636   
    376. A(Zr  2,O  23,H  71)          101.8036         0.172451   
    377. A(Zr  2,O  23,C  45)          140.3283         0.502267   
    378. A(Zr  3,O  24,C  46)          139.1378         0.499347   
    379. A(Zr  3,O  25,C  37)          129.7859         0.507509   
    380. A(Zr  3,O  26,C  41)          130.4138         0.477158   
    381. A(Zr  3,O  27,C  47)          126.4208         0.502131   
    382. A(Zr  4,O  28,C  47)          125.4894         0.501110   
    383. A(Zr  4,O  29,C  39)          131.8414         0.475536   
    384. A(H  62,O  30,H  69)           54.3681         0.101657   
    385. A(Zr  4,O  30,H  62)          143.1522         0.157073   
    386. A(C  43,O  30,H  62)           76.7120         0.150302   
    387. A(C  43,O  30,H  69)          129.9087         0.166608   
    388. A(Zr  4,O  30,H  69)          100.1773         0.175180   
    389. A(Zr  4,O  30,C  43)          128.0537         0.506414   
    390. A(H  66,O  31,H  69)           50.3915         0.098891   
    391. A(Zr  4,O  31,H  66)          131.8747         0.142458   
    392. A(C  45,O  31,H  69)          108.3858         0.166050   
    393. A(Zr  4,O  31,H  69)           99.4446         0.173505   
    394. A(C  45,O  31,H  66)           58.9337         0.137742   
    395. A(Zr  4,O  31,C  45)          138.6512         0.505434   
    396. A(Zr  5,O  32,C  46)          139.1565         0.503692   
    397. A(Zr  5,O  33,C  36)          128.6102         0.506662   
    398. A(Zr  5,O  34,C  40)          133.0595         0.477094   
    399. A(Zr  5,O  35,C  44)          125.2171         0.500641   
    400. A(O  12,C  36,O  33)          127.5395         0.465296   
    401. A(O  33,C  36,H  58)          116.2253         0.364451   
    402. A(O  12,C  36,H  58)          116.2351         0.364395   
    403. A(O  13,C  37,O  25)          127.5160         0.465721   
    404. A(O  25,C  37,H  51)          116.2293         0.364680   
    405. A(O  13,C  37,H  51)          116.2546         0.364635   
    406. A(O  14,C  38,O  21)          129.9599         0.466262   
    407. A(O  21,C  38,H  50)          115.0188         0.366067   
    408. A(O  14,C  38,H  50)          115.0212         0.365721   
    409. A(O  15,C  39,O  29)          129.9460         0.466683   
    410. A(O  29,C  39,H  54)          115.0278         0.366294   
    411. A(O  15,C  39,H  54)          115.0261         0.366013   
    412. A(O  16,C  40,O  34)          130.0104         0.466940   
    413. A(O  34,C  40,H  56)          115.0200         0.366393   
    414. A(O  16,C  40,H  56)          114.9677         0.366187   
    415. A(O  17,C  41,O  26)          129.8458         0.466377   
    416. A(O  26,C  41,H  48)          115.0831         0.366077   
    417. A(O  17,C  41,H  48)          115.0711         0.365734   
    418. A(O  18,C  42,O  22)          127.5218         0.465573   
    419. A(O  22,C  42,H  67)          122.7561         0.148025   
    420. A(O  18,C  42,H  67)           68.8685         0.148029   
    421. A(H  49,C  42,H  64)           64.6330         0.138663   
    422. A(O  22,C  42,H  64)           84.0647         0.156872   
    423. A(O  18,C  42,H  64)          118.8156         0.156878   
    424. A(H  49,C  42,H  67)           78.1629         0.132189   
    425. A(H  64,C  42,H  67)           50.8478         0.099639   
    426. A(O  22,C  42,H  49)          116.2857         0.364523   
    427. A(O  18,C  42,H  49)          116.1924         0.364545   
    428. A(H  52,C  43,H  62)           65.5254         0.135642   
    429. A(H  62,C  43,H  67)           51.2763         0.099948   
    430. A(O  30,C  43,H  62)           76.9233         0.152722   
    431. A(O  19,C  43,H  62)          126.2979         0.152737   
    432. A(H  52,C  43,H  67)           77.6544         0.136272   
    433. A(O  30,C  43,H  67)          115.5796         0.153583   
    434. A(O  19,C  43,H  67)           75.8234         0.153598   
    435. A(O  30,C  43,H  52)          116.3781         0.364141   
    436. A(O  19,C  43,H  52)          116.2452         0.364206   
    437. A(O  19,C  43,O  30)          127.3765         0.464983   
    438. A(O  35,C  44,H  59)          116.7024         0.363485   
    439. A(O  20,C  44,H  59)          116.7384         0.363437   
    440. A(O  20,C  44,O  35)          126.5592         0.463849   
    441. A(H  66,C  45,H  71)           50.0029         0.098790   
    442. A(H  55,C  45,H  71)           82.6016         0.126594   
    443. A(O  31,C  45,H  71)          133.7889         0.140405   
    444. A(O  23,C  45,H  71)           54.6268         0.140392   
    445. A(H  55,C  45,H  66)           65.9252         0.141883   
    446. A(O  31,C  45,H  66)           96.8591         0.161310   
    447. A(O  23,C  45,H  66)          103.6260         0.161293   
    448. A(O  31,C  45,H  55)          115.5959         0.366687   
    449. A(O  23,C  45,H  55)          115.5572         0.366621   
    450. A(O  23,C  45,O  31)          128.8466         0.468607   
    451. A(O  32,C  46,H  57)          115.5497         0.366625   
    452. A(O  24,C  46,H  57)          115.5791         0.366625   
    453. A(O  24,C  46,O  32)          128.8650         0.468469   
    454. A(O  28,C  47,H  53)          116.6847         0.363560   
    455. A(O  27,C  47,H  53)          116.7000         0.363552   
    456. A(O  27,C  47,O  28)          126.6153         0.464021   
    457. A(H  64,H  49,H  67)           53.2037         0.093088   
    458. A(C  42,H  49,H  67)           80.4084         0.113189   
    459. A(C  42,H  49,H  64)           92.2479         0.123069   
    460. A(H  62,H  52,H  67)           53.9435         0.093173   
    461. A(C  43,H  52,H  67)           80.0586         0.115510   
    462. A(C  43,H  52,H  62)           91.9785         0.120702   
    463. A(H  66,H  55,H  71)           50.5867         0.092457   
    464. A(C  45,H  55,H  71)           77.4932         0.108850   
    465. A(C  45,H  55,H  66)           90.3933         0.124370   
    466. A(Al 68,Al 60,H  71)          127.6215         0.397924   
    467. A(H  66,Al 60,H  71)           98.6244         0.361328   
    468. A(H  65,Al 60,H  71)          123.5498         0.375304   
    469. A(H  64,Al 60,H  71)           99.0708         0.361226   
    470. A(Al 61,Al 60,H  71)          127.5655         0.399339   
    471. A(H  66,Al 60,Al 68)           35.0038         0.382329   
    472. A(H  65,Al 60,Al 68)           99.7829         0.397382   
    473. A(H  64,Al 60,Al 68)           93.0428         0.382219   
    474. A(Al 61,Al 60,Al 68)           59.9129         0.423271   
    475. A(H  65,Al 60,H  66)          108.0856         0.360850   
    476. A(H  64,Al 60,H  66)          120.2645         0.347483   
    477. A(Al 61,Al 60,H  66)           92.4331         0.383672   
    478. A(H  64,Al 60,H  65)          108.0016         0.360748   
    479. A(Al 61,Al 60,H  65)          100.4367         0.398794   
    480. A(Al 61,Al 60,H  64)           35.1852         0.383562   
    481. A(H  67,Al 61,Al 68)          123.5209         0.399805   
    482. A(H  64,Al 61,Al 68)           93.2570         0.383653   
    483. A(H  63,Al 61,Al 68)          101.3171         0.399022   
    484. A(H  62,Al 61,Al 68)           35.2389         0.383375   
    485. A(Al 60,Al 61,Al 68)           60.1434         0.425039   
    486. A(H  64,Al 61,H  67)           97.1643         0.361335   
    487. A(H  63,Al 61,H  67)          127.2245         0.375540   
    488. A(H  62,Al 61,H  67)           97.1062         0.361077   
    489. A(Al 60,Al 61,H  67)          124.0412         0.399585   
    490. A(H  63,Al 61,H  64)          107.3601         0.360649   
    491. A(H  62,Al 61,H  64)          122.3123         0.346938   
    492. A(Al 60,Al 61,H  64)           35.1737         0.383445   
    493. A(H  62,Al 61,H  63)          107.0805         0.360392   
    494. A(Al 60,Al 61,H  63)          100.7860         0.398803   
    495. A(Al 60,Al 61,H  62)           93.7023         0.383167   
    496. A(O  30,H  62,C  43)           26.3647         0.099392   
    497. A(O  30,H  62,H  52)           43.5572         0.096063   
    498. A(O  30,H  62,Al 68)           93.0028         0.139795   
    499. A(O  30,H  62,Al 61)          118.4704         0.139757   
    500. A(C  43,H  62,H  52)           22.4961         0.096342   
    501. A(C  43,H  62,Al 68)          119.1896         0.141800   
    502. A(C  43,H  62,Al 61)          103.2513         0.141761   
    503. A(H  52,H  62,Al 68)          133.2515         0.124888   
    504. A(H  52,H  62,Al 61)          107.4780         0.124861   
    505. A(Al 61,H  62,Al 68)          109.5005         0.346886   
    506. A(O  22,H  64,C  42)           26.0779         0.099282   
    507. A(O  22,H  64,H  49)           42.9030         0.096053   
    508. A(O  22,H  64,Al 61)          124.0384         0.136234   
    509. A(O  22,H  64,Al 60)           93.2191         0.136252   
    510. A(C  42,H  64,H  49)           23.1191         0.097393   
    511. A(C  42,H  64,Al 61)          107.6662         0.145202   
    512. A(C  42,H  64,Al 60)          119.0948         0.145224   
    513. A(H  49,H  64,Al 61)          111.6505         0.127554   
    514. A(H  49,H  64,Al 60)          132.1005         0.127569   
    515. A(Al 60,H  64,Al 61)          109.6410         0.347284   
    516. A(O  31,H  66,C  45)           24.2072         0.098283   
    517. A(O  31,H  66,H  55)           40.0372         0.095208   
    518. A(O  31,H  66,Al 68)           89.9519         0.129204   
    519. A(O  31,H  66,Al 60)          124.3921         0.129224   
    520. A(C  45,H  66,H  55)           23.6814         0.098210   
    521. A(C  45,H  66,Al 68)          114.0887         0.148644   
    522. A(C  45,H  66,Al 60)          110.6536         0.148673   
    523. A(H  55,H  66,Al 68)          123.7256         0.128891   
    524. A(H  55,H  66,Al 60)          119.0625         0.128911   
    525. A(Al 60,H  66,Al 68)          110.0067         0.347452   
    526. A(C  42,H  67,H  49)           21.4287         0.094182   
    527. A(C  42,H  67,C  43)           94.4048         0.099132   
    528. A(O  19,H  67,C  42)           79.2024         0.098933   
    529. A(C  42,H  67,H  52)          116.6470         0.094682   
    530. A(O  18,H  67,C  42)           26.0927         0.099425   
    531. A(C  42,H  67,Al 61)          102.6107         0.140554   
    532. A(C  43,H  67,H  49)          115.8051         0.094675   
    533. A(O  19,H  67,H  49)           98.7095         0.094563   
    534. A(H  49,H  67,H  52)          137.9963         0.092182   
    535. A(O  18,H  67,H  49)           41.8155         0.094839   
    536. A(H  49,H  67,Al 61)           96.5378         0.117873   
    537. A(O  19,H  67,C  43)           26.6170         0.099878   
    538. A(C  43,H  67,H  52)           22.2871         0.095223   
    539. A(O  18,H  67,C  43)           78.6860         0.100417   
    540. A(C  43,H  67,Al 61)          105.8710         0.145458   
    541. A(O  19,H  67,H  52)           42.3956         0.095100   
    542. A(O  18,H  67,O  19)           57.3729         0.100192   
    543. A(O  19,H  67,Al 61)          130.3988         0.144349   
    544. A(O  18,H  67,H  52)           99.0375         0.095402   
    545. A(H  52,H  67,Al 61)          100.5834         0.120661   
    546. A(O  18,H  67,Al 61)          126.8546         0.147089   
    547. A(H  69,Al 68,H  70)          123.9968         0.375205   
    548. A(H  66,Al 68,H  70)          107.8658         0.360737   
    549. A(H  62,Al 68,H  70)          107.6239         0.360608   
    550. A(Al 61,Al 68,H  70)          101.4085         0.399038   
    551. A(Al 60,Al 68,H  70)          100.1560         0.397407   
    552. A(H  66,Al 68,H  69)           98.4486         0.361077   
    553. A(H  62,Al 68,H  69)           98.6902         0.360948   
    554. A(Al 61,Al 68,H  69)          126.3006         0.399426   
    555. A(Al 60,Al 68,H  69)          126.9590         0.397793   
    556. A(H  62,Al 68,H  66)          121.1541         0.347201   
    557. A(Al 61,Al 68,H  66)           92.4496         0.383734   
    558. A(Al 60,Al 68,H  66)           34.9895         0.382183   
    559. A(Al 61,Al 68,H  62)           35.2606         0.383594   
    560. A(Al 60,Al 68,H  62)           93.5272         0.382044   
    561. A(Al 60,Al 68,Al 61)           59.9437         0.423507   
    562. A(O  30,H  69,O  31)           63.6531         0.104828   
    563. A(O  31,H  69,Al 68)          113.7162         0.155937   
    564. A(O  30,H  69,Al 68)          105.7479         0.156762   
    565. A(C  45,H  71,H  55)           19.9052         0.092674   
    566. A(O  22,H  71,H  55)           99.3300         0.094461   
    567. A(O  23,H  71,H  55)           39.4885         0.094479   
    568. A(H  55,H  71,Al 60)           91.6871         0.112589   
    569. A(O  22,H  71,C  45)           79.5684         0.099342   
    570. A(O  23,H  71,C  45)           24.0563         0.099378   
    571. A(C  45,H  71,Al 60)           95.7514         0.133676   
    572. A(O  22,H  71,O  23)           63.1110         0.104423   
    573. A(O  22,H  71,Al 60)          108.6873         0.155395   
    574. A(O  23,H  71,Al 60)          116.7808         0.155621   
    575. D(Zr  5,Zr  2,Zr  1,Zr  4)    104.1444         0.010000   
    576. D(O   7,Zr  2,Zr  1,Zr  4)    -25.1241         0.010000   
    577. D(Zr  5,Zr  2,Zr  1,O   7)    129.2685         0.010000   
    578. D(Zr  4,Zr  3,Zr  0,O   6)   -129.2332         0.010000   
    579. D(Zr  4,Zr  3,Zr  0,Zr  5)   -104.3803         0.010000   
    580. D(O   6,Zr  3,Zr  0,Zr  5)     24.8529         0.010000   
    581. D(Zr  3,Zr  4,Zr  1,Zr  2)   -103.3560         0.010000   
    582. D(Zr  1,Zr  4,Zr  3,O   6)     76.3100         0.010000   
    583. D(O   7,Zr  4,Zr  1,Zr  2)     25.3236         0.010000   
    584. D(O   7,Zr  4,Zr  3,Zr  0)     76.1348         0.010000   
    585. D(Zr  3,Zr  4,Zr  1,O   7)   -128.6796         0.010000   
    586. D(Zr  1,Zr  4,Zr  3,Zr  0)    104.6559         0.010000   
    587. D(Zr  2,Zr  5,Zr  0,Zr  3)    103.8464         0.010000   
    588. D(Zr  2,Zr  5,Zr  0,O   6)    128.7710         0.010000   
    589. D(O   6,Zr  5,Zr  0,Zr  3)    -24.9246         0.010000   
    590. D(O   6,Zr  5,Zr  2,Zr  1)    -76.6520         0.010000   
    591. D(Zr  0,Zr  5,Zr  2,Zr  1)   -105.0969         0.010000   
    592. D(Zr  0,Zr  5,Zr  2,O   7)    -76.6213         0.010000   
    593. D(Zr  0,O   6,Zr  3,O   9)     23.4798         0.010000   
    594. D(Zr  0,O   6,Zr  5,O   8)    -84.4138         0.010000   
    595. D(Zr  0,O   6,Zr  5,Zr  2)    -47.6738         0.010000   
    596. D(Zr  5,O   6,Zr  3,Zr  0)   -124.6846         0.010000   
    597. D(Zr  3,O   6,Zr  0,Zr  5)   -139.7585         0.010000   
    598. D(Zr  5,O   6,Zr  0,Zr  3)    139.7585         0.010000   
    599. D(Zr  3,O   6,Zr  5,Zr  0)    124.6093         0.010000   
    600. D(Zr  0,O   6,Zr  3,Zr  4)     47.6088         0.010000   
    601. D(Zr  3,O   6,Zr  0,O   9)    -23.5689         0.010000   
    602. D(Zr  4,O   7,Zr  1,Zr  2)   -139.2980         0.010000   
    603. D(Zr  2,O   7,Zr  1,Zr  4)    139.2980         0.010000   
    604. D(Zr  1,O   7,Zr  2,O   8)    -23.8501         0.010000   
    605. D(Zr  1,O   7,Zr  2,Zr  5)    -47.6548         0.010000   
    606. D(Zr  4,O   7,Zr  2,Zr  1)    123.8640         0.010000   
    607. D(Zr  2,O   7,Zr  4,Zr  1)   -123.6441         0.010000   
    608. D(Zr  1,O   7,Zr  4,O   9)     84.6400         0.010000   
    609. D(Zr  1,O   7,Zr  4,Zr  3)     47.9823         0.010000   
    610. D(Zr  2,O   7,Zr  1,O   8)     24.0131         0.010000   
    611. D(Zr  2,O   8,Zr  5,Zr  0)     59.4473         0.010000   
    612. D(Zr  1,O   8,Zr  5,Zr  2)   -156.6591         0.010000   
    613. D(Zr  1,O   8,Zr  5,Zr  0)    -97.2118         0.010000   
    614. D(Zr  5,O   8,Zr  2,Zr  1)   -164.6670         0.010000   
    615. D(Zr  1,O   8,Zr  2,O   7)     25.7789         0.010000   
    616. D(Zr  1,O   8,Zr  2,Zr  5)    164.6670         0.010000   
    617. D(Zr  5,O   8,Zr  1,Zr  2)    156.0155         0.010000   
    618. D(Zr  2,O   8,Zr  1,Zr  4)    -59.6909         0.010000   
    619. D(Zr  2,O   8,Zr  1,O   7)    -25.9084         0.010000   
    620. D(Zr  3,O   9,Zr  4,Zr  1)    -59.5057         0.010000   
    621. D(Zr  0,O   9,Zr  4,Zr  3)    155.2436         0.010000   
    622. D(Zr  0,O   9,Zr  3,Zr  4)   -163.4776         0.010000   
    623. D(Zr  4,O   9,Zr  3,Zr  0)    163.4776         0.010000   
    624. D(Zr  0,O   9,Zr  3,O   6)    -25.2629         0.010000   
    625. D(Zr  3,O   9,Zr  0,O   6)     25.3685         0.010000   
    626. D(Zr  3,O   9,Zr  0,Zr  5)     58.7662         0.010000   
    627. D(Zr  4,O   9,Zr  0,Zr  3)   -154.5342         0.010000   
    628. D(Zr  0,O   9,Zr  4,Zr  1)     95.7379         0.010000   
    629. D(Zr  3,O  10,Zr  4,Zr  1)    158.9578         0.010000   
    630. D(Zr  1,O  10,Zr  4,Zr  3)   -158.9578         0.010000   
    631. D(Zr  4,O  10,Zr  3,Zr  0)    -57.4824         0.010000   
    632. D(Zr  1,O  10,Zr  4,O   7)    -23.7901         0.010000   
    633. D(Zr  1,O  10,Zr  3,Zr  0)     92.0899         0.010000   
    634. D(Zr  3,O  10,Zr  1,Zr  4)   -148.6067         0.010000   
    635. D(Zr  3,O  10,Zr  1,Zr  2)    -91.2275         0.010000   
    636. D(Zr  1,O  10,Zr  3,Zr  4)    149.5722         0.010000   
    637. D(Zr  4,O  10,Zr  1,Zr  2)     57.3791         0.010000   
    638. D(Zr  5,O  11,Zr  2,Zr  1)     57.1615         0.010000   
    639. D(Zr  2,O  11,Zr  5,Zr  0)   -158.8030         0.010000   
    640. D(Zr  0,O  11,Zr  5,O   6)     23.7262         0.010000   
    641. D(Zr  0,O  11,Zr  2,Zr  1)    -92.5788         0.010000   
    642. D(Zr  0,O  11,Zr  5,Zr  2)    158.8030         0.010000   
    643. D(Zr  0,O  11,Zr  2,Zr  5)   -149.7402         0.010000   
    644. D(Zr  5,O  11,Zr  0,Zr  3)    -56.7907         0.010000   
    645. D(Zr  2,O  11,Zr  0,Zr  5)    148.7410         0.010000   
    646. D(Zr  2,O  11,Zr  0,Zr  3)     91.9503         0.010000   
    647. D(C  36,O  12,Zr  0,Zr  5)    -20.4229         0.010000   
    648. D(C  36,O  12,Zr  0,Zr  3)     33.9320         0.010000   
    649. D(C  37,O  13,Zr  0,Zr  5)    -40.1334         0.010000   
    650. D(C  37,O  13,Zr  0,Zr  3)     16.1868         0.010000   
    651. D(C  38,O  14,Zr  0,Zr  5)     14.1396         0.010000   
    652. D(C  38,O  14,Zr  0,Zr  3)    -53.0534         0.010000   
    653. D(C  39,O  15,Zr  0,Zr  5)     44.0803         0.010000   
    654. D(C  39,O  15,Zr  0,Zr  3)    -19.1033         0.010000   
    655. D(C  40,O  16,Zr  1,Zr  4)    -34.8852         0.010000   
    656. D(C  40,O  16,Zr  1,Zr  2)     25.7999         0.010000   
    657. D(C  41,O  17,Zr  1,Zr  4)    -11.5337         0.010000   
    658. D(C  41,O  17,Zr  1,Zr  2)     58.5176         0.010000   
    659. D(H  67,O  18,Zr  1,Zr  2)   -113.4260         0.010000   
    660. D(C  42,O  18,Zr  1,Zr  4)     44.9789         0.010000   
    661. D(C  42,O  18,Zr  1,Zr  2)    -12.4110         0.010000   
    662. D(H  67,O  19,Zr  1,Zr  2)     55.1519         0.010000   
    663. D(C  43,O  19,Zr  1,Zr  4)     20.0194         0.010000   
    664. D(C  43,O  19,Zr  1,Zr  2)    -32.7457         0.010000   
    665. D(C  44,O  20,Zr  2,Zr  5)    -35.7274         0.010000   
    666. D(C  44,O  20,Zr  2,Zr  1)   -100.2334         0.010000   
    667. D(C  38,O  21,Zr  2,Zr  5)    -74.3552         0.010000   
    668. D(C  38,O  21,Zr  2,Zr  1)    -39.7444         0.010000   
    669. D(H  71,O  22,Zr  2,Zr  1)    134.4303         0.010000   
    670. D(C  42,O  22,Zr  2,Zr  5)     31.4175         0.010000   
    671. D(C  42,O  22,Zr  2,Zr  1)    -18.0694         0.010000   
    672. D(H  71,O  23,Zr  2,Zr  1)    -92.7757         0.010000   
    673. D(C  45,O  23,Zr  2,Zr  5)    -54.8923         0.010000   
    674. D(C  45,O  23,Zr  2,Zr  1)     31.6960         0.010000   
    675. D(C  46,O  24,Zr  3,Zr  4)     53.9820         0.010000   
    676. D(C  46,O  24,Zr  3,Zr  0)    -32.1605         0.010000   
    677. D(C  37,O  25,Zr  3,Zr  4)    -32.9745         0.010000   
    678. D(C  37,O  25,Zr  3,Zr  0)     16.7818         0.010000   
    679. D(C  41,O  26,Zr  3,Zr  4)     74.5379         0.010000   
    680. D(C  41,O  26,Zr  3,Zr  0)     35.3235         0.010000   
    681. D(C  47,O  27,Zr  3,Zr  4)     34.4639         0.010000   
    682. D(C  47,O  27,Zr  3,Zr  0)     98.2692         0.010000   
    683. D(C  47,O  28,Zr  4,Zr  3)     33.3527         0.010000   
    684. D(C  47,O  28,Zr  4,Zr  1)     97.5662         0.010000   
    685. D(C  39,O  29,Zr  4,Zr  3)     72.7686         0.010000   
    686. D(C  39,O  29,Zr  4,Zr  1)     38.6012         0.010000   
    687. D(C  43,O  30,Zr  4,Zr  1)     25.4182         0.010000   
    688. D(C  43,O  30,Zr  4,Zr  3)    -23.4249         0.010000   
    689. D(H  69,O  30,Zr  4,Zr  1)   -140.1187         0.010000   
    690. D(H  69,O  31,Zr  4,Zr  1)     96.6191         0.010000   
    691. D(C  45,O  31,Zr  4,Zr  3)     51.0128         0.010000   
    692. D(C  45,O  31,Zr  4,Zr  1)    -35.6818         0.010000   
    693. D(C  46,O  32,Zr  5,Zr  2)    -59.7629         0.010000   
    694. D(C  46,O  32,Zr  5,Zr  0)     26.1247         0.010000   
    695. D(C  36,O  33,Zr  5,Zr  0)    -21.0030         0.010000   
    696. D(C  36,O  33,Zr  5,Zr  2)     27.1510         0.010000   
    697. D(C  40,O  34,Zr  5,Zr  2)    -70.3567         0.010000   
    698. D(C  40,O  34,Zr  5,Zr  0)    -36.8831         0.010000   
    699. D(C  44,O  35,Zr  5,Zr  2)    -34.2325         0.010000   
    700. D(C  44,O  35,Zr  5,Zr  0)    -97.9440         0.010000   
    701. D(O  33,C  36,O  12,Zr  0)     14.1432         0.046394   
    702. D(H  58,C  36,O  33,Zr  5)   -163.6131         0.046487   
    703. D(O  12,C  36,O  33,Zr  5)     16.4713         0.046487   
    704. D(H  58,C  36,O  12,Zr  0)   -165.7724         0.046394   
    705. D(H  51,C  37,O  25,Zr  3)    166.9147         0.046738   
    706. D(O  13,C  37,O  25,Zr  3)    -13.1926         0.046738   
    707. D(H  51,C  37,O  13,Zr  0)    168.6809         0.046661   
    708. D(O  25,C  37,O  13,Zr  0)    -11.2118         0.046661   
    709. D(H  50,C  38,O  21,Zr  2)   -162.4603         0.047321   
    710. D(O  14,C  38,O  21,Zr  2)     17.5910         0.047321   
    711. D(H  50,C  38,O  14,Zr  0)   -156.8211         0.046742   
    712. D(O  21,C  38,O  14,Zr  0)     23.1275         0.046742   
    713. D(O  15,C  39,O  29,Zr  4)    -17.7588         0.047527   
    714. D(H  54,C  39,O  29,Zr  4)    162.3543         0.047527   
    715. D(H  54,C  39,O  15,Zr  0)    160.8936         0.047054   
    716. D(O  29,C  39,O  15,Zr  0)    -18.9934         0.047054   
    717. D(H  56,C  40,O  34,Zr  5)   -162.8024         0.047622   
    718. D(O  16,C  40,O  34,Zr  5)     17.7397         0.047622   
    719. D(H  56,C  40,O  16,Zr  1)   -166.6384         0.047275   
    720. D(O  34,C  40,O  16,Zr  1)     12.8197         0.047275   
    721. D(H  48,C  41,O  26,Zr  3)    161.2399         0.047390   
    722. D(O  17,C  41,O  26,Zr  3)    -18.7619         0.047390   
    723. D(H  48,C  41,O  17,Zr  1)    156.0529         0.046814   
    724. D(O  26,C  41,O  17,Zr  1)    -23.9454         0.046814   
    725. D(H  49,C  42,O  22,Zr  2)   -162.1913         0.064536   
    726. D(O  18,C  42,O  22,H  71)   -129.8165         0.064536   
    727. D(O  18,C  42,O  22,Zr  2)     17.8489         0.064536   
    728. D(H  49,C  42,O  18,Zr  1)   -175.3656         0.060491   
    729. D(O  22,C  42,O  18,H  67)    115.7579         0.060491   
    730. D(O  22,C  42,O  18,Zr  1)      4.5942         0.060491   
    731. D(H  52,C  43,O  30,Zr  4)    156.9107         0.063985   
    732. D(O  19,C  43,O  30,H  69)    138.0347         0.063985   
    733. D(O  19,C  43,O  30,Zr  4)    -23.2736         0.063985   
    734. D(H  52,C  43,O  19,Zr  1)    169.5784         0.060069   
    735. D(O  30,C  43,O  19,H  67)   -111.5571         0.060069   
    736. D(O  30,C  43,O  19,Zr  1)    -10.2375         0.060069   
    737. D(H  59,C  44,O  35,Zr  5)   -156.3836         0.045607   
    738. D(O  20,C  44,O  35,Zr  5)     23.6417         0.045607   
    739. D(H  59,C  44,O  20,Zr  2)   -153.3703         0.045529   
    740. D(O  35,C  44,O  20,Zr  2)     26.6043         0.045529   
    741. D(H  55,C  45,O  31,Zr  4)   -173.7799         0.067271   
    742. D(O  23,C  45,O  31,H  69)   -123.7542         0.067271   
    743. D(O  23,C  45,O  31,Zr  4)      5.9959         0.067271   
    744. D(H  55,C  45,O  23,Zr  2)    176.3512         0.062852   
    745. D(O  31,C  45,O  23,H  71)    121.1916         0.062852   
    746. D(O  31,C  45,O  23,Zr  2)     -3.4247         0.062852   
    747. D(H  57,C  46,O  32,Zr  5)   -171.3173         0.048404   
    748. D(O  24,C  46,O  32,Zr  5)      9.6338         0.048404   
    749. D(H  57,C  46,O  24,Zr  3)    175.3810         0.048403   
    750. D(O  32,C  46,O  24,Zr  3)     -5.5703         0.048403   
    751. D(H  53,C  47,O  28,Zr  4)    156.5654         0.045677   
    752. D(O  27,C  47,O  28,Zr  4)    -23.4352         0.045677   
    753. D(H  53,C  47,O  27,Zr  3)    154.6315         0.045665   
    754. D(O  28,C  47,O  27,Zr  3)    -25.3679         0.045665   
    755. D(H  67,H  49,C  42,O  18)     59.0968         0.141956   
    756. D(H  64,H  49,C  42,O  22)    -68.7880         0.141956   
    757. D(H  64,H  49,C  42,O  18)    111.1765         0.141956   
    758. D(H  67,H  52,C  43,O  19)    -67.2049         0.141157   
    759. D(H  62,H  52,C  43,O  30)     59.7864         0.141157   
    760. D(H  62,H  52,C  43,O  19)   -120.0503         0.141157   
    761. D(H  71,H  55,C  45,O  23)     44.8328         0.147659   
    762. D(H  66,H  55,C  45,O  31)    -86.0442         0.147659   
    763. D(H  66,H  55,C  45,O  23)     94.1493         0.147659   
    764. D(H  63,Al 61,Al 60,H  64)   -104.8894         0.010000   
    765. D(H  62,Al 61,Al 60,H  65)   -106.5616         0.010000   
    766. D(H  62,Al 61,Al 60,H  64)    146.9338         0.010000   
    767. D(H  52,H  62,Al 61,Al 60)   -133.8603         0.010000   
    768. D(Al 68,H  62,Al 61,Al 60)     17.0180         0.010000   
    769. D(Al 68,H  62,H  52,C  43)    -58.5603         0.010000   
    770. D(Al 61,H  62,H  52,H  67)      6.2183         0.010000   
    771. D(Al 61,H  62,H  52,C  43)     82.4009         0.010000   
    772. D(Al 68,H  62,C  43,O  19)   -119.8073         0.010000   
    773. D(Al 61,H  62,C  43,O  30)    128.8797         0.010000   
    774. D(Al 61,H  62,C  43,O  19)      1.8198         0.010000   
    775. D(Al 68,H  62,O  30,Zr  4)    -35.8476         0.010000   
    776. D(Al 68,H  62,Al 61,H  63)    -85.4602         0.010000   
    777. D(Al 61,H  62,O  30,C  43)    -59.5399         0.010000   
    778. D(Al 61,H  62,O  30,Zr  4)     78.2761         0.010000   
    779. D(Al 60,H  64,Al 61,H  63)     84.0752         0.010000   
    780. D(Al 60,H  64,Al 61,H  62)    -40.1080         0.010000   
    781. D(H  49,H  64,Al 60,Al 61)   -148.2606         0.010000   
    782. D(Al 61,H  64,Al 60,H  65)    -82.5106         0.010000   
    783. D(Al 61,H  64,H  49,C  42)    -84.3636         0.010000   
    784. D(Al 60,H  64,H  49,H  67)    139.6792         0.010000   
    785. D(Al 60,H  64,H  49,C  42)     63.4242         0.010000   
    786. D(Al 61,H  64,C  42,O  18)     -3.3644         0.010000   
    787. D(Al 60,H  64,C  42,O  22)     -7.7664         0.010000   
    788. D(Al 61,H  64,Al 60,H  66)     42.0683         0.010000   
    789. D(Al 60,H  64,C  42,O  18)    122.1519         0.010000   
    790. D(Al 61,H  64,O  22,Zr  2)    -70.9946         0.010000   
    791. D(Al 60,H  64,O  22,C  42)    173.2078         0.010000   
    792. D(H  49,H  64,Al 61,Al 60)    155.1689         0.010000   
    793. D(Al 60,H  64,O  22,Zr  2)     45.3812         0.010000   
    794. D(Al 68,H  66,Al 60,H  64)    -43.4399         0.010000   
    795. D(Al 68,H  66,Al 60,Al 61)    -20.7075         0.010000   
    796. D(Al 68,H  66,H  55,C  45)     72.5252         0.010000   
    797. D(Al 60,H  66,H  55,H  71)     -1.3998         0.010000   
    798. D(Al 60,H  66,H  55,C  45)    -74.7844         0.010000   
    799. D(Al 68,H  66,C  45,O  23)    128.1394         0.010000   
    800. D(Al 60,H  66,C  45,O  31)   -129.3257         0.010000   
    801. D(Al 60,H  66,C  45,O  23)      3.4566         0.010000   
    802. D(Al 68,H  66,O  31,Zr  4)     46.1976         0.010000   
    803. D(Al 60,H  66,O  31,C  45)     61.3039         0.010000   
    804. D(H  55,H  66,Al 60,Al 61)    130.7341         0.010000   
    805. D(Al 60,H  66,O  31,Zr  4)    -68.2608         0.010000   
    806. D(H  52,H  67,Al 61,Al 60)    107.3127         0.010110   
    807. D(O  18,H  67,Al 61,Al 60)     -2.5498         0.010110   
    808. D(O  18,H  67,H  52,C  43)     24.2343         0.010000   
    809. D(Al 61,H  67,H  52,H  62)     -6.2792         0.010000   
    810. D(O  18,H  67,H  49,C  42)    -32.9916         0.010000   
    811. D(Al 61,H  67,H  49,H  64)      7.8873         0.010000   
    812. D(Al 61,H  67,H  49,C  42)    108.0287         0.010000   
    813. D(O  18,H  67,C  43,O  19)    -34.1018         0.010000   
    814. D(Al 61,H  67,C  43,O  30)    -34.5080         0.010000   
    815. D(Al 61,H  67,C  43,O  19)   -159.4843         0.010000   
    816. D(O  18,H  67,C  42,O  22)   -121.8554         0.010000   
    817. D(Al 61,H  67,C  42,O  22)     38.2949         0.010000   
    818. D(Al 61,H  67,C  42,O  18)    160.1503         0.010000   
    819. D(O  18,H  67,O  19,Zr  1)      9.4569         0.010000   
    820. D(Al 61,H  67,H  52,C  43)   -106.1232         0.010000   
    821. D(Al 61,H  67,O  19,C  43)     26.2734         0.010000   
    822. D(Al 61,H  67,O  19,Zr  1)   -103.5182         0.010000   
    823. D(H  52,H  67,O  18,Zr  1)     -1.3630         0.010000   
    824. D(O  18,H  67,Al 61,H  62)   -101.9163         0.010110   
    825. D(Al 61,H  67,O  18,C  42)    -24.4639         0.010000   
    826. D(Al 61,H  67,O  18,Zr  1)    109.2251         0.010000   
    827. D(H  62,Al 68,Al 60,Al 61)     11.2318         0.010000   
    828. D(Al 61,Al 68,Al 60,H  65)     96.4623         0.010000   
    829. D(Al 61,Al 68,Al 60,H  64)    -12.3950         0.010000   
    830. D(Al 61,Al 68,H  66,Al 60)     20.7145         0.010000   
    831. D(Al 60,Al 68,H  66,C  45)   -125.0270         0.010000   
    832. D(Al 60,Al 68,H  66,H  55)   -149.8401         0.010000   
    833. D(Al 61,Al 68,H  62,H  52)    140.4073         0.010000   
    834. D(Al 60,Al 68,H  62,H  52)    123.4278         0.010000   
    835. D(Al 60,Al 68,H  62,Al 61)    -16.9794         0.010000   
    836. D(H  62,Al 68,Al 61,Al 60)   -160.3205         0.010000   
    837. D(Al 60,Al 68,Al 61,H  63)    -96.0376         0.010000   
    838. D(Al 60,Al 68,Al 61,H  62)    160.3205         0.010000   
    839. D(O  31,H  69,Al 68,Al 60)     -6.0433         0.010000   
    840. D(O  30,H  69,Al 68,Al 61)      3.2725         0.010000   
    841. D(O  30,H  69,Al 68,Al 60)    -73.7242         0.010000   
    842. D(O  30,H  69,O  31,Zr  4)    -22.2730         0.010000   
    843. D(Al 68,H  69,O  31,C  45)     30.2339         0.010000   
    844. D(Al 68,H  69,O  31,Zr  4)   -118.7749         0.010000   
    845. D(O  31,H  69,O  30,Zr  4)     22.4304         0.010000   
    846. D(Al 68,H  69,O  30,C  43)    -33.6465         0.010000   
    847. D(Al 68,H  69,O  30,Zr  4)    131.4977         0.010000   
    848. D(O  22,H  71,Al 60,Al 61)     -0.8657         0.010000   
    849. D(O  23,H  71,Al 60,Al 61)    -69.5145         0.010000   
    850. D(O  23,H  71,H  55,C  45)    -30.0016         0.010000   
    851. D(Al 60,H  71,H  55,H  66)      1.2715         0.010000   
    852. D(Al 60,H  71,H  55,C  45)    102.3055         0.010000   
    853. D(O  23,H  71,C  45,O  31)   -112.6452         0.010000   
    854. D(Al 60,H  71,C  45,O  31)     39.6459         0.010000   
    855. D(Al 60,H  71,C  45,O  23)    152.2910         0.010000   
    856. D(O  22,H  71,O  23,Zr  2)     17.9031         0.010000   
    857. D(Al 60,H  71,O  23,C  45)    -31.2134         0.010000   
    858. D(Al 60,H  71,O  23,Zr  2)    116.3256         0.010000   
    859. D(O  23,H  71,O  22,Zr  2)    -18.1651         0.010000   
    860. D(O  23,H  71,Al 60,H  64)    -92.3912         0.010000   
    861. D(Al 60,H  71,O  22,C  42)     25.4839         0.010000   
    862. D(Al 60,H  71,O  22,Zr  2)   -129.3758         0.010000   
    -----------------------------------------------------------------

Number of atoms                         .... 72
Number of degrees of freedom            .... 862


         *************************************************************
         *                GEOMETRY OPTIMIZATION CYCLE   1            *
         *************************************************************
---------------------------------
CARTESIAN COORDINATES (ANGSTROEM)
---------------------------------
  Zr    -0.048798    2.089245    1.582609
  Zr     0.330811   -2.117647   -1.568122
  Zr     1.756679   -1.404164    1.455409
  Zr    -1.497023    1.391030   -1.442335
  Zr     1.836322    0.958703   -1.717680
  Zr    -1.577055   -0.977101    1.716558
  O     -1.626930    0.931055    0.679010
  O      1.904039   -0.948308   -0.671559
  O     -0.045824   -1.719172    0.428718
  O      0.308470    1.712016   -0.429259
  O      0.026461   -0.071626   -1.836062
  O      0.236410    0.049449    1.846366
  O     -1.167019    2.035153    3.211113
  O     -1.178407    3.632035    1.101189
  O      1.462453    1.789026    2.967339
  O      1.442040    3.357635    0.910031
  O     -1.104281   -3.438433   -0.873290
  O     -1.238716   -1.836009   -2.885600
  O      1.505982   -3.629674   -1.098615
  O      1.372723   -2.035518   -3.241673
  O      1.029737   -2.802476    2.679914
  O      2.082768   -0.459825    3.277254
  O      2.757893   -2.952238    0.747797
  O      3.454330   -0.374241    1.228078
  O     -3.249694    0.449933   -1.176313
  O     -2.466062    2.958871   -0.721441
  O     -1.862051    0.405875   -3.227458
  O     -0.785615    2.762728   -2.699194
  O      1.187503    1.764699   -3.423188
  O      2.158497    2.966429   -1.295749
  O      2.804639   -0.212966   -2.987818
  O      3.522624    0.996196   -0.662248
  O     -3.270653   -0.990142    0.663393
  O     -2.571644    0.188597    2.971881
  O     -1.900812   -2.979136    1.291386
  O     -0.929294   -1.789426    3.420844
  C     -2.177795    1.287819    3.543226
  C     -2.130700    3.778562    0.229227
  C      2.023720    0.797757    3.592214
  C      2.059148    3.646211   -0.195361
  C     -1.768512   -3.688142    0.213426
  C     -1.820006   -0.858951   -3.514147
  C      2.421638   -3.786950   -0.189923
  C      2.360258   -1.269958   -3.601923
  C      0.048518   -2.643621    3.521597
  C      3.994409    0.494462    0.434019
  C     -3.801682   -0.375955   -0.345485
  C      0.201987    2.608486   -3.533677
  H     -2.351709   -1.144285   -4.417083
  H      2.971590   -4.728415   -0.218533
  H      2.519126    1.062159    4.521618
  H     -2.717334    4.694579    0.304994
  H      2.875738   -1.548404   -4.522655
  H      0.204030    3.252398   -4.416237
  H      2.568985    4.604430   -0.199942
  H      4.975960    0.853509    0.730163
  H     -2.287051   -4.641417    0.224536
  H     -4.849969   -0.594256   -0.527955
  H     -2.764121    1.622658    4.399861
  H      0.045429   -3.291952    4.401088
  Al     6.057893   -2.449531   -0.174853
  Al     5.140843   -3.354737   -2.585034
  H      5.136059   -1.831633   -3.277773
  H      6.446455   -4.120981   -3.135882
  H      5.089273   -3.583835   -0.929497
  H      7.577589   -2.982068   -0.222154
  H      6.049223   -0.859228   -0.688383
  H      3.602748   -3.714653   -2.885290
  Al     6.075582   -0.797434   -2.358813
  H      5.220051    0.550939   -2.559079
  H      7.604129   -0.973523   -2.835812
  H      5.221416   -2.267732    1.187407

----------------------------
CARTESIAN COORDINATES (A.U.)
----------------------------
[...]
215:   2906.65   0.008560   43.26  0.000919  ( 0.013763 -0.026664  0.004319)

* The epsilon (eps) is given for a Dirac delta lineshape.
** The dipole moment derivative (T) already includes vibrational overlap.

The first frequency considered to be a vibration is 9
The total number of vibrations considered is 207


--------------------------
THERMOCHEMISTRY AT 298.15K
--------------------------

Temperature         ...   298.15 K
Pressure            ...     1.00 atm
Total Mass          ...  1273.54 AMU
Quasi RRHO          ...     True
Cut-Off Frequency   ...     1.00 cm^-1

Throughout the following assumptions are being made:
  (1) The electronic state is orbitally nondegenerate
  (2) There are no thermally accessible electronically excited states
  (3) Hindered rotations indicated by low frequency modes are not
      treated as such but are treated as vibrations and this may
      cause some error
  (4) All equations used are the standard statistical mechanics
      equations for an ideal gas
  (5) All vibrations are strictly harmonic

freq.       4.71  E(vib)   ...       0.59 
freq.      13.84  E(vib)   ...       0.57 
freq.      24.07  E(vib)   ...       0.56 
freq.      27.87  E(vib)   ...       0.55 
freq.      31.92  E(vib)   ...       0.55 
freq.      32.74  E(vib)   ...       0.55 
freq.      46.03  E(vib)   ...       0.53 
freq.      51.06  E(vib)   ...       0.52 
freq.      58.90  E(vib)   ...       0.51 
freq.      70.44  E(vib)   ...       0.50 
freq.      78.91  E(vib)   ...       0.49 
freq.      80.58  E(vib)   ...       0.48 
freq.      90.44  E(vib)   ...       0.47 
freq.      93.60  E(vib)   ...       0.47 
freq.      94.89  E(vib)   ...       0.47 
freq.      97.26  E(vib)   ...       0.46 
freq.     100.47  E(vib)   ...       0.46 
freq.     105.25  E(vib)   ...       0.45 
freq.     106.50  E(vib)   ...       0.45 
freq.     109.04  E(vib)   ...       0.45 
freq.     110.13  E(vib)   ...       0.45 
freq.     116.34  E(vib)   ...       0.44 
freq.     117.85  E(vib)   ...       0.44 
freq.     128.07  E(vib)   ...       0.43 
freq.     143.70  E(vib)   ...       0.41 
freq.     145.12  E(vib)   ...       0.41 
freq.     150.10  E(vib)   ...       0.40 
freq.     151.59  E(vib)   ...       0.40 
freq.     152.12  E(vib)   ...       0.40 
freq.     152.33  E(vib)   ...       0.40 
freq.     154.78  E(vib)   ...       0.40 
freq.     158.73  E(vib)   ...       0.39 
freq.     160.21  E(vib)   ...       0.39 
freq.     161.26  E(vib)   ...       0.39 
freq.     164.00  E(vib)   ...       0.39 
freq.     167.20  E(vib)   ...       0.39 
freq.     168.33  E(vib)   ...       0.38 
freq.     171.12  E(vib)   ...       0.38 
freq.     171.68  E(vib)   ...       0.38 
freq.     186.85  E(vib)   ...       0.36 
freq.     187.87  E(vib)   ...       0.36 
freq.     188.79  E(vib)   ...       0.36 
freq.     193.17  E(vib)   ...       0.36 
freq.     195.03  E(vib)   ...       0.36 
freq.     195.85  E(vib)   ...       0.36 
freq.     203.31  E(vib)   ...       0.35 
freq.     208.20  E(vib)   ...       0.34 
freq.     213.32  E(vib)   ...       0.34 
freq.     215.08  E(vib)   ...       0.34 
freq.     229.25  E(vib)   ...       0.32 
freq.     231.52  E(vib)   ...       0.32 
freq.     233.55  E(vib)   ...       0.32 
freq.     238.62  E(vib)   ...       0.32 
freq.     243.75  E(vib)   ...       0.31 
freq.     258.84  E(vib)   ...       0.30 
freq.     261.01  E(vib)   ...       0.30 
freq.     261.59  E(vib)   ...       0.30 
freq.     262.45  E(vib)   ...       0.29 
freq.     263.30  E(vib)   ...       0.29 
freq.     263.87  E(vib)   ...       0.29 
freq.     266.00  E(vib)   ...       0.29 
freq.     266.45  E(vib)   ...       0.29 
freq.     268.84  E(vib)   ...       0.29 
freq.     272.29  E(vib)   ...       0.29 
freq.     273.45  E(vib)   ...       0.29 
freq.     275.02  E(vib)   ...       0.28 
freq.     275.79  E(vib)   ...       0.28 
freq.     278.00  E(vib)   ...       0.28 
freq.     278.92  E(vib)   ...       0.28 
freq.     282.42  E(vib)   ...       0.28 
freq.     289.65  E(vib)   ...       0.27 
freq.     290.66  E(vib)   ...       0.27 
freq.     292.51  E(vib)   ...       0.27 
freq.     294.42  E(vib)   ...       0.27 
freq.     300.58  E(vib)   ...       0.26 
freq.     302.41  E(vib)   ...       0.26 
freq.     305.90  E(vib)   ...       0.26 
freq.     306.97  E(vib)   ...       0.26 
freq.     309.80  E(vib)   ...       0.26 
freq.     313.37  E(vib)   ...       0.25 
freq.     314.40  E(vib)   ...       0.25 
freq.     315.67  E(vib)   ...       0.25 
freq.     316.84  E(vib)   ...       0.25 
freq.     319.18  E(vib)   ...       0.25 
freq.     321.71  E(vib)   ...       0.25 
freq.     326.06  E(vib)   ...       0.24 
freq.     339.66  E(vib)   ...       0.23 
freq.     340.53  E(vib)   ...       0.23 
freq.     350.85  E(vib)   ...       0.23 
freq.     351.98  E(vib)   ...       0.23 
freq.     359.03  E(vib)   ...       0.22 
freq.     368.64  E(vib)   ...       0.21 
freq.     383.85  E(vib)   ...       0.20 
freq.     394.09  E(vib)   ...       0.20 
freq.     398.36  E(vib)   ...       0.20 
freq.     399.56  E(vib)   ...       0.19 
freq.     402.10  E(vib)   ...       0.19 
freq.     409.61  E(vib)   ...       0.19 
freq.     413.22  E(vib)   ...       0.19 
freq.     414.16  E(vib)   ...       0.19 
freq.     414.57  E(vib)   ...       0.19 
freq.     418.00  E(vib)   ...       0.18 
freq.     420.72  E(vib)   ...       0.18 
freq.     421.75  E(vib)   ...       0.18 
freq.     469.11  E(vib)   ...       0.16 
freq.     475.92  E(vib)   ...       0.15 
freq.     479.12  E(vib)   ...       0.15 
freq.     485.47  E(vib)   ...       0.15 
freq.     492.69  E(vib)   ...       0.14 
freq.     509.93  E(vib)   ...       0.14 
freq.     530.38  E(vib)   ...       0.13 
freq.     540.28  E(vib)   ...       0.12 
freq.     618.32  E(vib)   ...       0.09 
freq.     653.86  E(vib)   ...       0.08 
freq.     656.53  E(vib)   ...       0.08 
freq.     670.81  E(vib)   ...       0.08 
freq.     673.40  E(vib)   ...       0.08 
freq.     680.25  E(vib)   ...       0.08 
freq.     684.79  E(vib)   ...       0.07 
freq.     692.64  E(vib)   ...       0.07 
freq.     726.70  E(vib)   ...       0.06 
freq.     727.49  E(vib)   ...       0.06 
freq.     734.03  E(vib)   ...       0.06 
freq.     734.46  E(vib)   ...       0.06 
freq.     734.88  E(vib)   ...       0.06 
freq.     736.03  E(vib)   ...       0.06 
freq.     736.19  E(vib)   ...       0.06 
freq.     738.29  E(vib)   ...       0.06 
freq.     738.53  E(vib)   ...       0.06 
freq.     738.83  E(vib)   ...       0.06 
freq.     739.10  E(vib)   ...       0.06 
freq.     739.28  E(vib)   ...       0.06 
freq.     742.37  E(vib)   ...       0.06 
freq.     743.38  E(vib)   ...       0.06 
freq.     801.53  E(vib)   ...       0.05 
freq.     975.59  E(vib)   ...       0.03 
freq.     990.41  E(vib)   ...       0.02 
freq.     998.84  E(vib)   ...       0.02 
freq.     999.45  E(vib)   ...       0.02 
freq.     999.51  E(vib)   ...       0.02 
freq.     999.64  E(vib)   ...       0.02 
freq.    1001.30  E(vib)   ...       0.02 
freq.    1001.44  E(vib)   ...       0.02 
freq.    1002.76  E(vib)   ...       0.02 
freq.    1004.43  E(vib)   ...       0.02 
freq.    1005.17  E(vib)   ...       0.02 
freq.    1005.65  E(vib)   ...       0.02 
freq.    1006.13  E(vib)   ...       0.02 
freq.    1006.48  E(vib)   ...       0.02 
freq.    1047.41  E(vib)   ...       0.02 
freq.    1350.54  E(vib)   ...       0.01 
freq.    1352.45  E(vib)   ...       0.01 
freq.    1352.50  E(vib)   ...       0.01 
freq.    1352.90  E(vib)   ...       0.01 
freq.    1353.60  E(vib)   ...       0.01 
freq.    1355.08  E(vib)   ...       0.01 
freq.    1356.35  E(vib)   ...       0.01 
freq.    1356.48  E(vib)   ...       0.01 
freq.    1356.86  E(vib)   ...       0.01 
freq.    1357.99  E(vib)   ...       0.01 
freq.    1358.45  E(vib)   ...       0.01 
freq.    1358.63  E(vib)   ...       0.01 
freq.    1360.87  E(vib)   ...       0.01 
freq.    1361.03  E(vib)   ...       0.01 
freq.    1361.61  E(vib)   ...       0.01 
freq.    1361.66  E(vib)   ...       0.01 
freq.    1365.74  E(vib)   ...       0.01 
freq.    1366.47  E(vib)   ...       0.01 
freq.    1366.60  E(vib)   ...       0.01 
freq.    1368.44  E(vib)   ...       0.01 
freq.    1368.68  E(vib)   ...       0.01 
freq.    1372.67  E(vib)   ...       0.01 
freq.    1373.03  E(vib)   ...       0.01 
freq.    1381.88  E(vib)   ...       0.01 
freq.    1540.51  E(vib)   ...       0.00 
freq.    1549.10  E(vib)   ...       0.00 
freq.    1564.79  E(vib)   ...       0.00 
freq.    1566.11  E(vib)   ...       0.00 
freq.    1570.01  E(vib)   ...       0.00 
freq.    1578.07  E(vib)   ...       0.00 
freq.    1579.81  E(vib)   ...       0.00 
freq.    1634.03  E(vib)   ...       0.00 
freq.    1634.86  E(vib)   ...       0.00 
freq.    1635.94  E(vib)   ...       0.00 
freq.    1639.02  E(vib)   ...       0.00 
freq.    1640.36  E(vib)   ...       0.00 
freq.    1661.97  E(vib)   ...       0.00 
freq.    1743.50  E(vib)   ...       0.00 
freq.    1746.73  E(vib)   ...       0.00 
freq.    1891.79  E(vib)   ...       0.00 
freq.    1892.17  E(vib)   ...       0.00 
freq.    1893.15  E(vib)   ...       0.00 
freq.    1910.49  E(vib)   ...       0.00 
freq.    1912.39  E(vib)   ...       0.00 
freq.    1918.02  E(vib)   ...       0.00 
freq.    2886.53  E(vib)   ...       0.00 
freq.    2886.70  E(vib)   ...       0.00 
freq.    2887.49  E(vib)   ...       0.00 
freq.    2888.47  E(vib)   ...       0.00 
freq.    2891.77  E(vib)   ...       0.00 
freq.    2892.58  E(vib)   ...       0.00 
freq.    2902.36  E(vib)   ...       0.00 
freq.    2903.57  E(vib)   ...       0.00 
freq.    2903.98  E(vib)   ...       0.00 
freq.    2905.28  E(vib)   ...       0.00 
freq.    2905.35  E(vib)   ...       0.00 
freq.    2906.65  E(vib)   ...       0.00 

------------
INNER ENERGY
------------

The inner energy is: U= E(el) + E(ZPE) + E(vib) + E(rot) + E(trans)
    E(el)   - is the total energy from the electronic structure calculation
              = E(kin-el) + E(nuc-el) + E(el-el) + E(nuc-nuc)
    E(ZPE)  - the the zero temperature vibrational energy from the frequency calculation
    E(vib)  - the the finite temperature correction to E(ZPE) due to population
              of excited vibrational states
    E(rot)  - is the rotational thermal energy
    E(trans)- is the translational thermal energy

Summary of contributions to the inner energy U:
Electronic energy                ...  -3732.51078038 Eh
Zero point energy                ...      0.36942603 Eh     231.82 kcal/mol
Thermal vibrational correction   ...      0.06131330 Eh      38.47 kcal/mol
Thermal rotational correction    ...      0.00141627 Eh       0.89 kcal/mol
Thermal translational correction ...      0.00141627 Eh       0.89 kcal/mol
-----------------------------------------------------------------------
Total thermal energy                  -3732.07720851 Eh


Summary of corrections to the electronic energy:
(perhaps to be used in another calculation)
Total thermal correction                  0.06414584 Eh      40.25 kcal/mol
Non-thermal (ZPE) correction              0.36942603 Eh     231.82 kcal/mol
-----------------------------------------------------------------------
Total correction                          0.43357187 Eh     272.07 kcal/mol


--------
ENTHALPY
--------

The enthalpy is H = U + kB*T
                kB is Boltzmann's constant
Total thermal energy              ...  -3732.07720851 Eh 
Thermal Enthalpy correction       ...      0.00094421 Eh       0.59 kcal/mol
-----------------------------------------------------------------------
Total Enthalpy                    ...  -3732.07626430 Eh


Note: Only C1 symmetry has been detected, increase convergence thresholds 
      if your molecule has a higher symmetry. Symmetry factor of 1.0 is   
      used for the rotational entropy correction. 
 

Note: Rotational entropy computed according to Herzberg 
Infrared and Raman Spectra, Chapter V,1, Van Nostrand Reinhold, 1945 
Point Group:  C1, Symmetry Number:   1  
Rotational constants in cm-1:     0.001791     0.001225     0.001188 

Vibrational entropy computed according to the QRRHO of S. Grimme
Chem.Eur.J. 2012 18 9955 using a reference frequency of 100.0 cm-1


-------
ENTROPY
-------

The entropy contributions are T*S = T*(S(el)+S(vib)+S(rot)+S(trans))
     S(el)   - electronic entropy
     S(vib)  - vibrational entropy
     S(rot)  - rotational entropy
     S(trans)- translational entropy
The entropies will be listed as multiplied by the temperature to get
units of energy

Electronic entropy                ...      0.00000000 Eh      0.00 kcal/mol
Vibrational entropy               ...      0.11125789 Eh     69.82 kcal/mol
Rotational entropy                ...      0.01884174 Eh     11.82 kcal/mol
Translational entropy             ...      0.02247478 Eh     14.10 kcal/mol
-----------------------------------------------------------------------
Final entropy term                ...      0.15257441 Eh     95.74 kcal/mol

In case the symmetry of your molecule has not been determined correctly
or in case you have a reason to use a different symmetry number we print 
out the resulting rotational entropy values for sn=1,12:

 non-linear molecules -----------------------------------
|  sn= 1 | S(rot)=       0.01884174 Eh     11.82 kcal/mol|
|  sn= 2 | S(rot)=       0.01818729 Eh     11.41 kcal/mol|
|  sn= 3 | S(rot)=       0.01780445 Eh     11.17 kcal/mol|
|  sn= 4 | S(rot)=       0.01753283 Eh     11.00 kcal/mol|
|  sn= 5 | S(rot)=       0.01732214 Eh     10.87 kcal/mol|
|  sn= 6 | S(rot)=       0.01715000 Eh     10.76 kcal/mol|
|  sn= 7 | S(rot)=       0.01700445 Eh     10.67 kcal/mol|
|  sn= 8 | S(rot)=       0.01687837 Eh     10.59 kcal/mol|
|  sn= 9 | S(rot)=       0.01676716 Eh     10.52 kcal/mol|
|  sn=10 | S(rot)=       0.01666769 Eh     10.46 kcal/mol|
|  sn=11 | S(rot)=       0.01657770 Eh     10.40 kcal/mol|
|  sn=12 | S(rot)=       0.01649554 Eh     10.35 kcal/mol|
 linear molecules ---------------------------------------
|  Dinfh | S(rot)=       0.01168528 Eh      7.33 kcal/mol|
|  Cinfv | S(rot)=       0.01233974 Eh      7.74 kcal/mol|
 --------------------------------------------------------


-------------------
GIBBS FREE ENERGY
-------------------

The Gibbs free energy is G = H - T*S

Total enthalpy                    ...  -3732.07626430 Eh 
Total entropy correction          ...     -0.15257441 Eh    -95.74 kcal/mol
-----------------------------------------------------------------------
Final Gibbs free energy         ...  -3732.22883871 Eh

For completeness - the Gibbs free energy minus the electronic energy
G-E(el)                           ...      0.28194168 Eh    176.92 kcal/mol


Maximum memory used throughout the entire PROP-calculation: 142.2 MB

--------------------------------
SUGGESTED CITATIONS FOR THIS RUN
--------------------------------

Below you find a list of papers that are relevant to this ORCA run
We neither can nor want to force you to cite these papers, but we appreciate if you do
You receive ORCA, which is the product of decades of hard work by many enthusiastic individuals, for free
The only thing we kindly ask in return is that you cite our papers,
We deeply appreciate it, if you show your appreciation for ORCA by not just citing the generic ORCA reference.

Please note that relegating all ORCA citations to the supporting information does *not* help us.
SI sections are not indexed - citations you put there will not count into any citation statistics
But we need these citations in order to attract the funding resources that allow us to do what we are doing

Therefore, if you are a happy ORCA user, please consider citing a few of the papers listed below in the main body of your paper

In addition to the list printed below, the program has created the file run.bibtex that contains the list in bibtex format
You can import this file easily into all common literature databanks and citation aid programs


List of essential papers. We consider these as the minimum necessary citations

  1. Neese, F.
     Software update: the ORCA program system, version 6.0
     WIRES Comput. Molec. Sci. 2025 15(1), e70019
     doi.org/10.1002/wcms.7019

List of papers to cite with high priority. The work reported in these papers was absolutely
necessary for this run to complete.
Our perspective: the developers of density functionals and basis sets usually get cited in chemistry papers
Good! But without the algorithms to do something with them, the functionals or basis sets would not do anything.
Hence, in our opinion, the algorithm design and method developments papers are equally worthy of getting cited

  1. Neese, F.
     An improvement of the resolution of the identity approximation for the formation of the Coulomb matrix
     J. Comp. Chem. 2003 24(14), 1740-1747
     doi.org/10.1002/jcc.10318
  2. Grimme, S.; Antony, J.; Ehrlich, S.; Krieg, H.
     A consistent and accurate ab initio parametrization of density functional dispersion correction (DFT-D) for the 94 elements H-Pu
     J. Chem. Phys. 2010 132 , 154104
     doi.org/10.1063/1.3382344
  3. Grimme, S.; Ehrlich, S.; Goerigk, L.
     Effect of the damping function in dispersion corrected density functional theory
     J. Comput. Chem. 2011 32(7), 1456-1465
     doi.org/10.1002/jcc.21759
  4. Bykov, D.; Petrenko, T.; Izsak, R.; Kossmann, S.; Becker, U.; Valeev, E.; Neese, F.
     Efficient implementation of the analytic second derivatives of Hartree-Fock and hybrid DFT energies: a detailed analysis of different approximations
     Molec. Phys. 2015 113 , 1961-1977
     doi.org/10.1080/00268976.2015.1025114
  5. Helmich-Paris, B.
     A trust-region augmented Hessian implementation for restricted and unrestricted Hartree–Fock and Kohn–Sham methods
     J. Chem. Phys. 2021 154 , 164104
     doi.org/10.1063/5.0040798
  6. Neese, F.
     The SHARK Integral Generation and Digestion System
     J. Comp. Chem. 2022 44(3), 381
     doi.org/10.1002/jcc.26942

List of suggested additional citations. These are papers that are important in the 'surrounding' of 
of this run, or papers that preceded the highly important papers. If you like your results we are grateful for a citation.

  1. Neese, F.
     The ORCA program system
     WIRES Comput. Molec. Sci. 2012 2(1), 73-78
     doi.org/10.1002/wcms.81
  2. Neese, F.
     Software update: the ORCA program system, version 4.0
     WIRES Comput. Molec. Sci. 2018 8(1), 1-6
     doi.org/10.1002/wcms.1327
  3. Neese, F.; Wennmohs, F.; Becker, U.; Riplinger, C.
     The ORCA quantum chemistry program package
     J. Chem. Phys. 2020 152(22), 224108
     doi.org/10.1063/5.0004608
  4. Neese, F.
     Software update: The ORCA program system—Version 5.0
     WIRES Comput. Molec. Sci. 2022 12(1), e1606
     doi.org/10.1002/wcms.1606

List of optional additional citations

  1. Neese, F.
     Approximate second-order SCF convergence for spin unrestricted wavefunctions
     Chem. Phys. Lett. 2000 325(1-3), 93-98
     doi.org/10.1016/s0009-2614(00)00662-x

Timings for individual modules:

Sum of individual times          ...     9097.377 sec (= 151.623 min)
Startup calculation              ...      429.461 sec (=   7.158 min)   4.7 %
SCF iterations                   ...     2428.176 sec (=  40.470 min)  26.7 %
Property integrals               ...     2052.774 sec (=  34.213 min)  22.6 %
SCF Response                     ...     1381.723 sec (=  23.029 min)  15.2 %
Property calculations            ...     1739.882 sec (=  28.998 min)  19.1 %
SCF Gradient evaluation          ...     1041.069 sec (=  17.351 min)  11.4 %
Geometry relaxation              ...       24.292 sec (=   0.405 min)   0.3 %
                             ****ORCA TERMINATED NORMALLY****
TOTAL RUN TIME: 0 days 2 hours 32 minutes 5 seconds 354 msec
