
     Program PWSCF v.7.3.1 starts on  4Jun2025 at 15:32:55 

     This program is part of the open-source Quantum ESPRESSO suite
     for quantum simulation of materials; please cite
         "P. Giannozzi et al., J. Phys.:Condens. Matter 21 395502 (2009);
         "P. Giannozzi et al., J. Phys.:Condens. Matter 29 465901 (2017);
         "P. Giannozzi et al., J. Chem. Phys. 152 154105 (2020);
          URL http://www.quantum-espresso.org", 
     in publications or presentations arising from this work. More details at
     http://www.quantum-espresso.org/quote

     Parallel version (MPI), running on   256 processors

     MPI processes distributed on     1 nodes
     1528529 MiB available memory on the printing compute node when the environment starts

     Waiting for input...
     Reading input from standard input

     Current dimensions of program PWSCF are:
     Max number of different atomic species (ntypx) = 10
     Max number of k-points (npk) =  40000
     Max angular momentum in pseudopotentials (lmaxx) =  4
     file H.pbe-kjpaw_psl.1.0.0.UPF: wavefunction(s)  1S renormalized
     file Zr.pbe-spn-kjpaw_psl.1.0.0.UPF: wavefunction(s)  4S 4P renormalized
     file C.pbe-n-kjpaw_psl.1.0.0.UPF: wavefunction(s)  2S 2P renormalized
     file O.pbe-n-kjpaw_psl.1.0.0.UPF: wavefunction(s)  2S 2P renormalized

     IMPORTANT: XC functional enforced from input :
     Exchange-correlation= PBE
                           (   1   4   3   4   0   0   0)
     Any further DFT definition will be discarded
     Please, verify this is what you really want


     gamma-point specific algorithms are used
     Message from routine setup:
     using ibrav=0 with symmetry is DISCOURAGED, use correct ibrav instead

     R & G space division:  proc/nbgrp/npool/nimage =     256
     WARNING: too many processors for an effective parallelization!
     wavefunctions fft division:  task group distribution
                                  #TG    x Z-proc =       8     32
     Subspace diagonalization in iterative solution of the eigenvalue problem:
     one sub-group per band group will be used
     custom distributed-memory algorithm (size of sub-group:  2*  2 procs)


     Parallelization info
     --------------------
     sticks:   dense  smooth     PW     G-vecs:    dense   smooth      PW
     Min         248     123     29                41964    14828    1844
     Max         250     126     32                41986    14846    1868
     Sum       63703   31855   7959             10744817  3798275  474867

     Using Pencil Decomposition


     Title: 
     UiO-66-dehydrox ecut convergence                                           


     bravais-lattice index     =            0
     lattice parameter (alat)  =      27.5901  a.u.
     unit-cell volume          =   15305.9057 (a.u.)^3
     number of atoms/cell      =          108
     number of atomic types    =            4
     number of electrons       =       468.00
     number of Kohn-Sham states=          234
     kinetic-energy cutoff     =     150.0000  Ry
     charge density cutoff     =    1200.0000  Ry
     scf convergence threshold =      1.0E-08
     mixing beta               =       0.7000
     number of iterations used =            8  plain     mixing
     Exchange-correlation= PBE
                           (   1   4   3   4   0   0   0)

     celldm(1)=  27.590096  celldm(2)=   0.000000  celldm(3)=   0.000000
     celldm(4)=   0.000000  celldm(5)=   0.000000  celldm(6)=   0.000000

     crystal axes: (cart. coord. in units of alat)
               a(1) = (   0.997811   0.000095   0.000068 )  
               a(2) = (   0.473418   0.878352   0.000068 )  
               a(3) = (   0.473418   0.282670   0.831625 )  

     reciprocal axes: (cart. coord. in units 2 pi/alat)
               b(1) = (  1.002272 -0.540179 -0.386954 )  
               b(2) = ( -0.000082  1.138570 -0.386954 )  
               b(3) = ( -0.000082 -0.000049  1.202527 )  


     PseudoPot. # 1 for H  read from file:
     /home/mehlhorn/pseudos/UiO-66_pbe-spn-kjpaw/H.pbe-kjpaw_psl.1.0.0.UPF
     MD5 check sum: d81a744832360e4a8af0b0b5b123bc2a
     Pseudo is Projector augmented-wave, Zval =  1.0
     Generated using &quot;atomic&quot; code by A. Dal Corso  v.6.3MaX
     Shape of augmentation charge: PSQ
     Using radial grid of  929 points,  2 beta functions with: 
                l(1) =   0
                l(2) =   0
     Q(r) pseudized with 0 coefficients 


     PseudoPot. # 2 for Zr read from file:
     /home/mehlhorn/pseudos/UiO-66_pbe-spn-kjpaw/Zr.pbe-spn-kjpaw_psl.1.0.0.UPF
     MD5 check sum: 02112c41713a0468aff2bb39ef194e36
     Pseudo is Projector augmented-wave + core cor, Zval = 12.0
     Generated using &quot;atomic&quot; code by A. Dal Corso  v.6.2.2
     Shape of augmentation charge: PSQ
     Using radial grid of 1225 points,  6 beta functions with: 
                l(1) =   0
                l(2) =   0
                l(3) =   1
                l(4) =   1
                l(5) =   2
                l(6) =   2
     Q(r) pseudized with 0 coefficients 


     PseudoPot. # 3 for C  read from file:
     /home/mehlhorn/pseudos/UiO-66_pbe-spn-kjpaw/C.pbe-n-kjpaw_psl.1.0.0.UPF
     MD5 check sum: 5f16ad9a65e90284d1d834d4ab3b0f7d
     Pseudo is Projector augmented-wave + core cor, Zval =  4.0
     Generated using &quot;atomic&quot; code by A. Dal Corso  v.6.3
     Shape of augmentation charge: PSQ
     Using radial grid of 1073 points,  4 beta functions with: 
                l(1) =   0
                l(2) =   0
                l(3) =   1
                l(4) =   1
     Q(r) pseudized with 0 coefficients 


     PseudoPot. # 4 for O  read from file:
     /home/mehlhorn/pseudos/UiO-66_pbe-spn-kjpaw/O.pbe-n-kjpaw_psl.1.0.0.UPF
     MD5 check sum: e99d9cef9b487d1ca56f5b95ecd0fd7a
     Pseudo is Projector augmented-wave + core cor, Zval =  6.0
     Generated using &quot;atomic&quot; code by A. Dal Corso  v.6.3
     Shape of augmentation charge: PSQ
     Using radial grid of 1095 points,  4 beta functions with: 
                l(1) =   0
                l(2) =   0
                l(3) =   1
                l(4) =   1
     Q(r) pseudized with 0 coefficients 


     atomic species   valence    mass     pseudopotential
     H                 1.00     1.00750     H ( 1.00)
     Zr               12.00    91.22400     Zr( 1.00)
     C                 4.00    12.01060     C ( 1.00)
     O                 6.00    15.99900     O ( 1.00)

      2 Sym. Ops., with inversion, found



   Cartesian axes

     site n.     atom                  positions (alat units)
         1        Zr     tau(   1) = (   0.9852659   0.1391165   0.1016774  )
         2        Zr     tau(   2) = (   0.9593800   1.0219995   0.7300832  )
         3        Zr     tau(   3) = (   0.5915364   0.8004519   0.0990038  )
         4        Zr     tau(   4) = (   1.3531095   0.3606647   0.7327560  )
         5        Zr     tau(   5) = (   0.5898506   0.3541049   0.7260346  )
         6        Zr     tau(   6) = (   1.3547948   0.8070120   0.1057261  )
         7        O      tau(   7) = (   1.0815009   0.2537230   0.0705430  )
         8        O      tau(   8) = (   0.8631454   0.9073939   0.7612177  )
         9        O      tau(   9) = (   0.6436974   0.8816624   0.2175348  )
        10        O      tau(  10) = (   1.3009490   0.2794545   0.6142259  )
        11        O      tau(  11) = (   0.7363929   0.3343915   0.7647879  )
        12        O      tau(  12) = (   1.2082534   0.8267253   0.0669728  )
        13        O      tau(  13) = (   1.2131515   0.3069746   0.7632956  )
        14        O      tau(  14) = (   0.7314949   0.8541423   0.0684650  )
        15        O      tau(  15) = (   1.2986500   0.6782809   0.0450667  )
        16        O      tau(  16) = (   0.6459963   0.4828360   0.7866940  )
        17        O      tau(  17) = (   0.8457252   1.0194663   0.6277144  )
        18        O      tau(  18) = (   1.0989212   0.1416505   0.2040462  )
        19        O      tau(  19) = (   1.0498340   1.0175668   0.6103351  )
        20        O      tau(  20) = (   0.8948124   0.1435500   0.2214255  )
        21        O      tau(  21) = (   1.2949517   0.4947549   0.7670887  )
        22        O      tau(  22) = (   0.6496947   0.6663620   0.0646719  )
        23        O      tau(  23) = (   1.3938012   0.7199281   0.2216396  )
        24        O      tau(  24) = (   0.5508451   0.4411887   0.6101210  )
        25        O      tau(  25) = (   0.5501420   0.7117654   0.2154865  )
        26        O      tau(  26) = (   1.3945044   0.4493515   0.6162741  )
        27        O      tau(  27) = (   0.6421838   0.2788829   0.6045867  )
        28        O      tau(  28) = (   1.3024626   0.8822340   0.2271739  )
        29        O      tau(  29) = (   0.8875580   0.2512166   0.0695320  )
        30        O      tau(  30) = (   1.0570884   0.9099003   0.7622287  )
        31        O      tau(  31) = (   0.8780916   0.0527540   0.0396841  )
        32        O      tau(  32) = (   1.0665548   1.1083629   0.7920765  )
        33        O      tau(  33) = (   0.4645615   0.7471295   0.0371800  )
        34        O      tau(  34) = (   1.4800849   0.4139874   0.7945806  )
        35        O      tau(  35) = (   0.4629831   0.2782326   0.6954400  )
        36        O      tau(  36) = (   1.4816633   0.8828843   0.1363206  )
        37        C      tau(  37) = (   1.3138849   0.9632768   0.2572416  )
        38        C      tau(  38) = (   0.6307615   0.1978401   0.5745190  )
        39        C      tau(  39) = (   1.1105248   0.8940821   0.8292899  )
        40        C      tau(  40) = (   0.8341216   0.2670348   0.0024707  )
        41        C      tau(  41) = (   1.4712652   0.4686861   0.5797204  )
        42        C      tau(  42) = (   0.4733812   0.6924307   0.2520402  )
        43        C      tau(  43) = (   0.8011685   0.8979312   0.8218554  )
        44        C      tau(  44) = (   1.1434779   0.2631857   0.0099052  )
        45        C      tau(  45) = (   1.3194096   0.1991063   0.5857568  )
        46        C      tau(  46) = (   0.6252368   0.9620105   0.2460038  )
        47        C      tau(  47) = (   1.1705234   0.8680279   0.0000530  )
        48        C      tau(  48) = (   0.7741230   0.2930890   0.8317076  )
        49        C      tau(  49) = (   1.1901821   0.3542709   0.0042607  )
        50        C      tau(  50) = (   0.7544643   0.8068459   0.8274999  )
        51        C      tau(  51) = (   0.6684850   0.9917614   0.3340617  )
        52        C      tau(  52) = (   1.2761614   0.1693554   0.4976989  )
        53        C      tau(  53) = (   0.8764628   0.2870708   0.8315422  )
        54        C      tau(  54) = (   1.0681836   0.8740461   0.0002184  )
        55        C      tau(  55) = (   0.6846073   0.1688107   0.4923400  )
        56        C      tau(  56) = (   1.2600391   0.9923062   0.3394206  )
        57        C      tau(  57) = (   0.7829458   0.3557781   0.0014271  )
        58        C      tau(  58) = (   1.1617006   0.8053387   0.8303335  )
        59        C      tau(  59) = (   0.4733672   0.6343036   0.3364008  )
        60        C      tau(  60) = (   1.4712792   0.5268133   0.4953598  )
        61        C      tau(  61) = (   1.1610459   0.4268417   0.0601353  )
        62        C      tau(  62) = (   0.7836004   0.7342752   0.7716254  )
        63        C      tau(  63) = (   0.7217909   0.9299379   0.3847974  )
        64        C      tau(  64) = (   1.2228555   0.2311790   0.4469632  )
        65        C      tau(  65) = (   0.9265277   0.3206439   0.7566835  )
        66        C      tau(  66) = (   1.0181187   0.8404729   0.0750771  )
        67        C      tau(  67) = (   1.0216686   0.3162613   0.7567330  )
        68        C      tau(  68) = (   0.9229778   0.8448555   0.0750276  )
        69        C      tau(  69) = (   1.2049773   0.5112435   0.0559705  )
        70        C      tau(  70) = (   0.7396691   0.6498734   0.7757901  )
        71        C      tau(  71) = (   0.7630648   0.9576024   0.4660509  )
        72        C      tau(  72) = (   1.1815816   0.2035145   0.3657098  )
        73        C      tau(  73) = (   1.1498015   0.9576520   0.4584006  )
        74        C      tau(  74) = (   0.7948448   0.2034648   0.3733600  )
        75        C      tau(  75) = (   1.1987640   0.6601439   0.7592413  )
        76        C      tau(  76) = (   0.7458824   0.5009730   0.0725193  )
        77        C      tau(  77) = (   1.3884793   0.6135326   0.3807585  )
        78        C      tau(  78) = (   0.5561670   0.5475843   0.4510022  )
        79        C      tau(  79) = (   0.5561177   0.6009989   0.3721274  )
        80        C      tau(  80) = (   1.3885286   0.5601179   0.4596332  )
        81        C      tau(  81) = (   0.7442066   0.2306938   0.4493120  )
        82        C      tau(  82) = (   1.2004398   0.9304231   0.3824486  )
        83        C      tau(  83) = (   0.7928802   0.4181253   0.0738626  )
        84        C      tau(  84) = (   1.1517662   0.7429915   0.7578980  )
        85        H      tau(  85) = (   1.1917190   0.6112056   0.7033811  )
        86        H      tau(  86) = (   0.7529274   0.5499113   0.1283795  )
        87        H      tau(  87) = (   1.3247146   0.6398896   0.3523946  )
        88        H      tau(  88) = (   0.6199318   0.5212273   0.4793660  )
        89        H      tau(  89) = (   1.1033775   0.9102352   0.4924813  )
        90        H      tau(  90) = (   0.8412689   0.2508817   0.3392794  )
        91        H      tau(  91) = (   0.8378344   0.4004697   0.1307265  )
        92        H      tau(  92) = (   1.1068119   0.7606472   0.7010341  )
        93        H      tau(  93) = (   0.6198378   0.6177277   0.3371157  )
        94        H      tau(  94) = (   1.3248086   0.5433891   0.4946449  )
        95        H      tau(  95) = (   0.7499889   0.2999606   0.4764166  )
        96        H      tau(  96) = (   1.1946575   0.8611562   0.3553440  )
        97        H      tau(  97) = (   0.7300397   0.8602724   0.3594175  )
        98        H      tau(  98) = (   1.2146067   0.3008445   0.4723432  )
        99        H      tau(  99) = (   0.8895540   0.3499378   0.6988872  )
       100        H      tau( 100) = (   1.0550924   0.8111791   0.1328734  )
       101        H      tau( 101) = (   1.1036306   0.4157803   0.1064682  )
       102        H      tau( 102) = (   0.8410158   0.7453366   0.7252924  )
       103        H      tau( 103) = (   0.8041453   0.9101018   0.5063332  )
       104        H      tau( 104) = (   1.1405011   0.2510151   0.3254275  )
       105        H      tau( 105) = (   1.0612777   0.3415818   0.6987982  )
       106        H      tau( 106) = (   0.8833687   0.8195351   0.1329624  )
       107        H      tau( 107) = (   1.1826499   0.5682683   0.0985857  )
       108        H      tau( 108) = (   0.7619965   0.5928485   0.7331750  )

     number of k points=     1
                       cart. coord. in units 2pi/alat
        k(    1) = (   0.0000000   0.0000000   0.0000000), wk =   2.0000000

     Dense  grid:  5372409 G-vectors     FFT dimensions: ( 320, 320, 320)

     Smooth grid:  1899138 G-vectors     FFT dimensions: ( 216, 216, 216)

     Estimated max dynamical RAM per process >     124.99 MB

     Estimated total dynamical RAM >      31.25 GB

     Initial potential from superposition of free atoms

     starting charge     467.9848, renormalised to     468.0000

     negative rho (up, down):  6.065E-05 0.000E+00
     Starting wfcs are  414 randomized atomic wfcs
     Checking if some PAW data can be deallocated... 

     total cpu time spent up to now is       14.6 secs

     Self-consistent Calculation

     iteration #  1     ecut=   150.00 Ry     beta= 0.70
     Davidson diagonalization with overlap
     ethr =  1.00E-02,  avg # of iterations =  2.0

     total cpu time spent up to now is       29.8 secs

     total energy              =   -4001.27159980 Ry
     estimated scf accuracy    <      17.09039437 Ry

     iteration #  2     ecut=   150.00 Ry     beta= 0.70
     Davidson diagonalization with overlap
     ethr =  3.65E-03,  avg # of iterations = 12.0

     total cpu time spent up to now is       51.2 secs

     total energy              =   -4005.84188507 Ry
     estimated scf accuracy    <      13.12821707 Ry

     iteration #  3     ecut=   150.00 Ry     beta= 0.70
     Davidson diagonalization with overlap
     ethr =  2.81E-03,  avg # of iterations =  8.0

     total cpu time spent up to now is       66.3 secs

     total energy              =   -4008.37870538 Ry
     estimated scf accuracy    <       2.23104569 Ry

     iteration #  4     ecut=   150.00 Ry     beta= 0.70
     Davidson diagonalization with overlap
     ethr =  4.77E-04,  avg # of iterations =  5.0

     total cpu time spent up to now is       82.9 secs

     total energy              =   -4008.98606157 Ry
     estimated scf accuracy    <       0.18270657 Ry

     iteration #  5     ecut=   150.00 Ry     beta= 0.70
     Davidson diagonalization with overlap
     ethr =  3.90E-05,  avg # of iterations = 12.0

     total cpu time spent up to now is      109.5 secs

     total energy              =   -4009.16111472 Ry
     estimated scf accuracy    <       0.26851257 Ry

     iteration #  6     ecut=   150.00 Ry     beta= 0.70
     Davidson diagonalization with overlap
     ethr =  3.90E-05,  avg # of iterations =  2.0

     negative rho (up, down):  1.591E-07 0.000E+00

     total cpu time spent up to now is      122.0 secs

     total energy              =   -4009.11790953 Ry
     estimated scf accuracy    <       0.10069010 Ry

     iteration #  7     ecut=   150.00 Ry     beta= 0.70
     Davidson diagonalization with overlap
     ethr =  2.15E-05,  avg # of iterations =  7.0

     negative rho (up, down):  2.617E-07 0.000E+00

     total cpu time spent up to now is      143.5 secs

     total energy              =   -4009.18580638 Ry
     estimated scf accuracy    <       0.06361438 Ry

     iteration #  8     ecut=   150.00 Ry     beta= 0.70
     Davidson diagonalization with overlap
     ethr =  1.36E-05,  avg # of iterations =  1.0

     negative rho (up, down):  1.085E-06 0.000E+00

     total cpu time spent up to now is      154.5 secs

     total energy              =   -4009.16418983 Ry
     estimated scf accuracy    <       0.04016963 Ry

     iteration #  9     ecut=   150.00 Ry     beta= 0.70
     Davidson diagonalization with overlap
     ethr =  8.58E-06,  avg # of iterations = 10.0

     negative rho (up, down):  1.274E-06 0.000E+00

     total cpu time spent up to now is      171.9 secs

     total energy              =   -4009.18063072 Ry
     estimated scf accuracy    <       0.00444080 Ry

     iteration # 10     ecut=   150.00 Ry     beta= 0.70
     Davidson diagonalization with overlap
     ethr =  9.49E-07,  avg # of iterations =  5.0

     negative rho (up, down):  1.583E-06 0.000E+00

     total cpu time spent up to now is      190.9 secs

     total energy              =   -4009.18083759 Ry
     estimated scf accuracy    <       0.00488418 Ry

     iteration # 11     ecut=   150.00 Ry     beta= 0.70
     Davidson diagonalization with overlap
     ethr =  9.49E-07,  avg # of iterations =  6.0

     negative rho (up, down):  2.266E-06 0.000E+00

     total cpu time spent up to now is      203.7 secs

     total energy              =   -4009.18056501 Ry
     estimated scf accuracy    <       0.00098668 Ry

     iteration # 12     ecut=   150.00 Ry     beta= 0.70
     Davidson diagonalization with overlap
     ethr =  2.11E-07,  avg # of iterations =  9.0

     negative rho (up, down):  2.235E-06 0.000E+00

     total cpu time spent up to now is      232.9 secs

     total energy              =   -4009.18173394 Ry
     estimated scf accuracy    <       0.00222368 Ry

     iteration # 13     ecut=   150.00 Ry     beta= 0.70
     Davidson diagonalization with overlap
     ethr =  2.11E-07,  avg # of iterations =  2.0

     negative rho (up, down):  2.294E-06 0.000E+00

     total cpu time spent up to now is      244.7 secs

     total energy              =   -4009.18108865 Ry
     estimated scf accuracy    <       0.00136161 Ry

     iteration # 14     ecut=   150.00 Ry     beta= 0.70
     Davidson diagonalization with overlap
     ethr =  2.11E-07,  avg # of iterations =  5.0

     negative rho (up, down):  2.325E-06 0.000E+00

     total cpu time spent up to now is      264.0 secs

     total energy              =   -4009.18155687 Ry
     estimated scf accuracy    <       0.00012119 Ry

     iteration # 15     ecut=   150.00 Ry     beta= 0.70
     Davidson diagonalization with overlap
     ethr =  2.59E-08,  avg # of iterations =  7.0

     negative rho (up, down):  2.379E-06 0.000E+00

     total cpu time spent up to now is      279.2 secs

     total energy              =   -4009.18157305 Ry
     estimated scf accuracy    <       0.00002483 Ry

     iteration # 16     ecut=   150.00 Ry     beta= 0.70
     Davidson diagonalization with overlap
     ethr =  5.30E-09,  avg # of iterations =  6.0

     negative rho (up, down):  2.392E-06 0.000E+00

     total cpu time spent up to now is      301.5 secs

     total energy              =   -4009.18158785 Ry
     estimated scf accuracy    <       0.00000713 Ry

     iteration # 17     ecut=   150.00 Ry     beta= 0.70
     Davidson diagonalization with overlap
     ethr =  1.52E-09,  avg # of iterations =  7.0

     negative rho (up, down):  2.416E-06 0.000E+00

     total cpu time spent up to now is      315.0 secs

     total energy              =   -4009.18158681 Ry
     estimated scf accuracy    <       0.00000299 Ry

     iteration # 18     ecut=   150.00 Ry     beta= 0.70
     Davidson diagonalization with overlap
     ethr =  6.39E-10,  avg # of iterations = 11.0

     negative rho (up, down):  2.411E-06 0.000E+00

     total cpu time spent up to now is      341.7 secs

     total energy              =   -4009.18159234 Ry
     estimated scf accuracy    <       0.00000578 Ry

     iteration # 19     ecut=   150.00 Ry     beta= 0.70
     Davidson diagonalization with overlap
     ethr =  6.39E-10,  avg # of iterations =  6.0

     negative rho (up, down):  2.416E-06 0.000E+00

     total cpu time spent up to now is      359.1 secs

     total energy              =   -4009.18159153 Ry
     estimated scf accuracy    <       0.00001749 Ry

     iteration # 20     ecut=   150.00 Ry     beta= 0.70
     Davidson diagonalization with overlap
     ethr =  6.39E-10,  avg # of iterations =  1.0

     negative rho (up, down):  2.420E-06 0.000E+00

     total cpu time spent up to now is      370.1 secs

     total energy              =   -4009.18158476 Ry
     estimated scf accuracy    <       0.00001433 Ry

     iteration # 21     ecut=   150.00 Ry     beta= 0.70
     Davidson diagonalization with overlap
     ethr =  6.39E-10,  avg # of iterations = 11.0

     negative rho (up, down):  2.419E-06 0.000E+00

     total cpu time spent up to now is      399.7 secs

     total energy              =   -4009.18158895 Ry
     estimated scf accuracy    <       0.00000105 Ry

     iteration # 22     ecut=   150.00 Ry     beta= 0.70
     Davidson diagonalization with overlap
     ethr =  2.25E-10,  avg # of iterations =  2.0

     negative rho (up, down):  2.419E-06 0.000E+00

     total cpu time spent up to now is      411.4 secs

     total energy              =   -4009.18158841 Ry
     estimated scf accuracy    <       0.00000094 Ry

     iteration # 23     ecut=   150.00 Ry     beta= 0.70
     Davidson diagonalization with overlap
     ethr =  2.00E-10,  avg # of iterations =  7.0

     negative rho (up, down):  2.420E-06 0.000E+00

     total cpu time spent up to now is      428.6 secs

     total energy              =   -4009.18158874 Ry
     estimated scf accuracy    <       0.00000016 Ry

     iteration # 24     ecut=   150.00 Ry     beta= 0.70
     Davidson diagonalization with overlap
     ethr =  3.48E-11,  avg # of iterations =  5.0

     negative rho (up, down):  2.420E-06 0.000E+00

     total cpu time spent up to now is      442.1 secs

     total energy              =   -4009.18158873 Ry
     estimated scf accuracy    <       0.00000007 Ry

     iteration # 25     ecut=   150.00 Ry     beta= 0.70
     Davidson diagonalization with overlap
     ethr =  1.45E-11,  avg # of iterations =  6.0

     negative rho (up, down):  2.421E-06 0.000E+00

     total cpu time spent up to now is      458.4 secs

     End of self-consistent calculation

          k = 0.0000 0.0000 0.0000 (237434 PWs)   bands (ev):

   -49.6209 -49.6046 -49.6044 -49.5924 -49.5904 -49.5902 -28.1092 -28.0061
   -28.0061 -27.9126 -27.9126 -27.9049 -27.7774 -27.7327 -27.7326 -27.7262
   -27.7261 -27.6995 -27.6270 -27.6270 -27.5914 -27.5779 -27.5778 -27.5772
   -22.8406 -22.7937 -22.7937 -22.7879 -22.7879 -22.7625 -22.5853 -22.5787
   -22.5213 -22.5212 -22.5190 -22.5189 -20.5538 -20.5375 -20.5374 -20.5080
   -20.5079 -20.4723 -20.3479 -20.3479 -20.3246 -20.3246 -20.2412 -20.2371
   -17.9984 -17.7660 -17.7660 -17.5718 -17.5718 -17.5294 -17.3934 -17.3923
   -17.3923 -17.2150 -17.2150 -17.2128 -15.0514 -15.0514 -15.0420 -14.8631
   -14.8424 -14.8424 -14.4898 -14.4876 -14.4875 -14.3154 -14.3154 -14.3132
   -12.2924 -12.2561 -12.2561 -12.0960 -12.0373 -12.0373 -10.9649 -10.9649
   -10.9534 -10.7877 -10.7876 -10.7710 -10.2332 -10.2331 -10.1517 -10.0301
    -9.8561  -9.8561  -9.6170  -9.5579  -9.5578  -9.4481  -9.3785  -9.3784
    -8.7854  -8.6131  -8.5383  -8.5383  -8.3961  -8.3960  -8.3557  -8.1982
    -8.1982  -8.1507  -8.1506  -7.8704  -7.8684  -7.8684  -7.7643  -7.7642
    -7.6645  -7.6496  -7.6496  -7.6410  -7.5398  -7.3871  -7.3870  -7.2554
    -7.1564  -6.9187  -6.9186  -6.8602  -6.8333  -6.8333  -6.8331  -6.7379
    -6.7378  -6.7008  -6.6902  -6.6902  -6.6686  -6.6685  -6.6574  -6.5710
    -6.5358  -6.5357  -6.5136  -6.4542  -6.4264  -6.4264  -6.3488  -6.3488
    -6.2164  -6.1897  -6.1897  -6.0323  -6.0323  -6.0150  -5.7307  -5.6368
    -5.6368  -5.4604  -5.2510  -5.2509  -5.1348  -5.0026  -4.9595  -4.9595
    -4.8929  -4.8929  -4.8927  -4.8926  -4.8690  -4.7844  -4.7699  -4.7699
    -4.7350  -4.2532  -4.2531  -4.2004  -4.1520  -4.1519  -4.1519  -4.1464
    -4.1464  -3.9888  -3.9887  -3.9785  -3.9785  -3.9606  -3.8066  -3.6441
    -3.6440  -3.6130  -3.5230  -3.4053  -3.3738  -3.3738  -3.3007  -3.2436
    -3.2436  -3.2086  -3.1695  -3.1694  -3.0840  -3.0440  -3.0440  -2.9809
    -2.9809  -2.9248  -2.9248  -2.8195  -2.7490  -2.6858  -2.6857  -2.6853
    -2.6391  -2.6391  -2.5841  -2.5840  -2.5338  -2.5325  -2.5325  -2.4849
    -2.4286  -2.4286  -2.3940  -2.3813  -2.3798  -2.3753  -2.3752  -2.3466
    -2.3465  -2.2879  -2.2410  -2.2409  -2.1761  -2.1760  -2.1593  -1.6352
    -1.6352  -1.4998

     highest occupied level (ev):    -1.4998

!    total energy              =   -4009.18158875 Ry
     total all-electron energy =    -51389.598695 Ry
     estimated scf accuracy    <          5.5E-09 Ry

     The total energy is the sum of the following terms:
     one-electron contribution =   -6099.12837940 Ry
     hartree contribution      =    3181.00024402 Ry
     xc contribution           =    -570.37651250 Ry
     ewald contribution        =    1323.03872305 Ry
     one-center paw contrib.   =   -1843.71566392 Ry

     convergence has been achieved in  25 iterations

     Writing all to output data dir ./pwscf.save/ :
     XML data file, charge density, pseudopotentials, collected wavefunctions

     init_run     :     11.51s CPU     13.03s WALL (       1 calls)
     electrons    :    416.43s CPU    444.32s WALL (       1 calls)

     Called by init_run:
     wfcinit      :      6.41s CPU      6.56s WALL (       1 calls)
     potinit      :      0.37s CPU      0.51s WALL (       1 calls)
     hinit0       :      0.29s CPU      0.46s WALL (       1 calls)

     Called by electrons:
     c_bands      :    354.13s CPU    357.48s WALL (      25 calls)
     sum_band     :     40.36s CPU     52.43s WALL (      25 calls)
     v_of_rho     :      4.23s CPU      4.82s WALL (      26 calls)
     newd         :     14.96s CPU     26.71s WALL (      26 calls)
     PAW_pot      :      1.40s CPU      1.53s WALL (      26 calls)
     mix_rho      :      1.11s CPU      1.27s WALL (      25 calls)

     Called by c_bands:
     init_us_2    :      0.73s CPU      0.83s WALL (      51 calls)
     regterg      :    353.45s CPU    356.73s WALL (      25 calls)

     Called by *egterg:
     rdiaghg      :     16.33s CPU     16.51s WALL (     180 calls)
     h_psi        :    183.23s CPU    185.17s WALL (     181 calls)
     s_psi        :     74.91s CPU     75.05s WALL (     181 calls)
     g_psi        :      0.08s CPU      0.08s WALL (     155 calls)

     Called by h_psi:
     h_psi:calbec :     78.09s CPU     79.09s WALL (     181 calls)
     vloc_psi     :     29.20s CPU     29.95s WALL (     181 calls)
     vloc_psi:tg_ :      0.07s CPU      0.07s WALL (     181 calls)
     add_vuspsi   :     75.67s CPU     75.85s WALL (     181 calls)

     General routines
     calbec       :    100.89s CPU    102.13s WALL (     206 calls)
     fft          :      4.49s CPU      5.53s WALL (     284 calls)
     ffts         :      0.27s CPU      0.31s WALL (      51 calls)
     fftw         :     32.24s CPU     33.08s WALL (   22885 calls)
     interpolate  :      0.60s CPU      0.68s WALL (      26 calls)

     Parallel routines
     fft_scatt_xy :      1.82s CPU      1.84s WALL (   23220 calls)
     fft_scatt_yz :     27.96s CPU     29.77s WALL (   23220 calls)
     fft_scatt_tg :      0.11s CPU      0.11s WALL (   22885 calls)

     PWSCF        :   7m10.45s CPU   7m41.33s WALL


   This run was terminated on:  15:40:36   4Jun2025            

=------------------------------------------------------------------------------=
   JOB DONE.
=------------------------------------------------------------------------------=
