
                                 *****************
                                 * O   R   C   A *
                                 *****************

                                            #,                                       
                                            ###                                      
                                            ####                                     
                                            #####                                    
                                            ######                                   
                                           ########,                                 
                                     ,,################,,,,,                         
                               ,,#################################,,                 
                          ,,##########################################,,             
                       ,#########################################, ''#####,          
                    ,#############################################,,   '####,        
                  ,##################################################,,,,####,       
                ,###########''''           ''''###############################       
              ,#####''   ,,,,##########,,,,          '''####'''          '####       
            ,##' ,,,,###########################,,,                        '##       
           ' ,,###''''                  '''############,,,                           
         ,,##''                                '''############,,,,        ,,,,,,###''
      ,#''                                            '''#######################'''  
     '                                                          ''''####''''         
             ,#######,   #######,   ,#######,      ##                                
            ,#'     '#,  ##    ##  ,#'     '#,    #''#        ,####,    ,#,          
            ##       ##  ##   ,#'  ##            #'  '#       #'       ,# #          
            ##       ##  #######   ##           ,######,      #####,      #          
            '#,     ,#'  ##    ##  '#,     ,#' ,#      #,     #,   #      #          
             '#######'   ##     ##  '#######'  #'      '#     '####' #    #          



                #########################################################
                #                        -***-                          #
                #          Department of theory and spectroscopy        #
                #                                                       #
                #                      Frank Neese                      #
                #                                                       #
                #     Directorship, Architecture, Infrastructure        #
                #                    SHARK, DRIVERS                     #
                #        Core code/Algorithms in most modules           #
                #                                                       #
                #        Max Planck Institute fuer Kohlenforschung      #
                #                Kaiser Wilhelm Platz 1                 #
                #                 D-45470 Muelheim/Ruhr                 #
                #                      Germany                          #
                #                                                       #
                #                  All rights reserved                  #
                #                        -***-                          #
                #########################################################


                         Program Version 6.1.0  -  RELEASE   -
                                (GIT: $679e74b$)
                          ($2025-06-10 18:02:51 +0200$)


 With contributions from (in alphabetic order):
[Max-Planck-Institut fuer Kohlenforschung]                               
  Daniel Aravena         : Magnetic Suceptibility                        
  Michael Atanasov       : Ab Initio Ligand Field Theory (pilot matlab implementation)
  Alexander A. Auer      : GIAO ZORA, VPT2 properties, NMR spectrum      
  Ute Becker             : All parallelization in ORCA, NUMFREQ, NUMCALC 
  Giovanni Bistoni       : ED, misc. LED, open-shell LED, HFLD           
  Dmytro Bykov           : pre 5.0 version of the SCF Hessian            
  Marcos Casanova-Páez   : Triplet and SCS-CIS(D). UHF-(DLPNO)-IP/EA/STEOM-CCSD. UHF-CVS-IP/STEOM-CCSD   
  Vijay G. Chilkuri      : MRCI spin determinant printing, contributions to CSF-ICE 
  Pauline Colinet        : FMM embedding                                 
  Dipayan Datta          : RHF DLPNO-CCSD density                        
  Achintya Kumar Dutta   : EOM-CC, STEOM-CC                              
  Nicolas Foglia         : Exact transition moments, OPA infrastructure, MCD improvements    
  Dmitry Ganyushin       : Spin-Orbit,Spin-Spin,Magnetic field MRCI      
  Miquel Garcia-Rates    : C-PCM and meta-GGA Hessian, CCSD/C-PCM, Gaussian charge scheme 
  Tiago L. C. Gouveia    : GS-ROHF, GS-ROCIS                             
  Yang Guo               : DLPNO-NEVPT2, F12-NEVPT2, CIM, IAO-localization        
  Andreas Hansen         : Spin unrestricted coupled pair/coupled cluster methods 
  Ingolf Harden          : AUTO-CI MPn and infrastructure                
  Benjamin Helmich-Paris : MC-RPA, TRAH-(SCF,CASSCF), AVAS, COSX integrals, SCF dyn. polar., MC-PDFT, srDFT 
  Lee Huntington         : MR-EOM, pCC                                   
  Robert Izsak           : Overlap fitted RIJCOSX, COSX-SCS-MP3, EOM     
  Riya Kayal             : Wick's Theorem for AUTO-CI, AUTO-CI UHF-CCSDT 
  Emily Kempfer          : AUTO-CI RHF CISDT and CCSDT, approximate NEVPT4
  Christian Kollmar      : KDIIS, OOCD, Brueckner-CCSD(T), CCSD density, CASPT2, CASPT2-K, improved NEVPT2 
  Axel Koslowski         : Symmetry handling                             
  Simone Kossmann        : meta-GGA functionals, TD-DFT gradient, OOMP2, (MP2 Hessian; deprecated post 5.0) 
  Lucas Lang             : DCDCAS, Hyperfine gauge corrections, ICE-SOC+SSC
  Marvin Lechner         : AUTO-CI (C++ implementation), FIC-MRCC        
  Spencer Leger          : CASSCF response                               
  Dagmar Lenk            : GEPOL surface, SMD, ORCA-2-JSON               
  Dimitrios Liakos       : Extrapolation schemes; Compound Job, Property file
  Dimitrios Manganas     : Further ROCIS development; embedding schemes. LFT, Crystal Embedding 
  Dimitrios Pantazis     : SARC Basis sets                               
  Anastasios Papadopoulos: AUTO-CI, single reference methods and gradients 
  Taras Petrenko         : pre 6.0 DFT Hessian and TD-DFT gradient,  ECA, NRVS 
  Petra Pikulova         : Analytic Raman intensities                    
  Peter Pinski           : DLPNO-MP2, DLPNO-MP2 Gradient                 
  Shashank Vittal Rao    : ES-AILFT, MagRelax                            
  Christoph Reimann      : Effective Core Potentials                     
  Marius Retegan         : Local ZFS, SOC                                
  Christoph Riplinger    : Optimizer, TS searches, QM/MM, DLPNO-CCSD(T), (RO)-DLPNO pert. Triples 
  Michael Roemelt        : Original ROCIS implementation, recursive CI coupling coefficients
  Masaaki Saitow         : Open-shell DLPNO-CCSD energy and density      
  Barbara Sandhoefer     : DKH picture change effects                    
  Yorick L. A. Schmerwitz: GMF and freeze-and-release deltaSCF, NEB S-IDPP initial path                    
  Kantharuban Sivalingam : CASSCF convergence/infrastructure, NEVPT2, NEVPT3, NEVPT4(SD), FIC-MRCI and CEPA variants
  Bernardo de Souza      : ESD, SOC TD-DFT                               
  Georgi L. Stoychev     : AutoAux, RI-MP2 NMR, DLPNO-MP2 response, X2C  
  Van Anh Tran           : RI-MP2 g-tensors                              
  Willem Van den Heuvel  : Paramagnetic NMR                              
  Zikuan Wang            : NOTCH, Electric field optimization            
  Frank Wennmohs         : Technical directorship and infrastructure     
  Hang Xu                : AUTO-CI-Response properties                   
                                                                         
[FACCTs GmbH]                                                            
  Markus Bursch, Nicolas Foglia, Miquel Garcia-Rates, Ingolf Harden, Hagen Neugebauer, Anastasios Papadopoulos, 
  Christoph Riplinger, Bernardo de Souza, Georgi L. Stoychev                                                    
                                                                 
  APM, various basis sets, CI-OPT, improved COSX, DLPNO-Multilevel,           
  DOCKER, DRACO, updates on ESD, Fragmentator, GOAT, IRC, LR-CPCM, L-BFGS, MBIS, meta-GGA TD-DFT gradient, ML-optimized integration grids, 
  MM, NACMEs, nearIR, NEB, NEB-TS, NL-DFT gradient (VV10), 2- and 3-layer-ONIOM, interface openCOSMO-RS, QMMM,   
  Crystal-QMMM, RESP, rigid body optimization, SF, symmetry and pop. for TD-DFT, various functionals, SOLVATOR                                   
                                                                         
[Other institutions]                                                     
  V. Asgeirsson          : NEB                                           
  Christoph Bannwarth    : sTDA-DFT, sTD-DFT, PBEh-3c, B97-3c, D3        
  Giovanni Bistoni       : ETS/NOCV, ADLD/ADEX, COVALED                  
  Martin Brehm           : Molecular dynamics                            
  Ronald Cardenas        : ETS/NOCV                                      
  Martina Colucci        : COVALED                                       
  Sebastian Ehlert       : rSCAN, r2SCAN, r2SCAN-3c, D4, dhf basis sets  
  Marvin Friede          : D4 for Fr, Ra, Ac-Lr                          
  Lars Goerigk           : TD-DFT with DH, B97 family of functionals     
  Stefan Grimme          : VdW corrections, initial TS optimization, DFT functionals, gCP, sTDA/sTD-DF 
  Waldemar Hujo          : DFT-NL                                        
  H. Jonsson             : NEB                                           
  Holger Kruse           : gCP                                           
  Marcel Mueller         : wB97X-3c, vDZP basis set                      
  Hagen Neugebauer       : wr2SCAN, Native XTB                           
  Gianluca Regni         : ADLD/ADEX                                     
  Tobias Risthaus        : pre 6.0 range-separated hybrid DFT and stability analysis
  Lukas Wittmann         : regularized MP2, r2SCAN double-hybrids, wr2SCAN        
                                                                         
We gratefully acknowledge several colleagues who have allowed us to      
interface, adapt or use parts of their codes:                            
  Ed Valeev, F. Pavosevic, A. Kumar             : LibInt (2-el integral package), F12 methods 
  Garnet Chan, S. Sharma, J. Yang, R. Olivares  : DMRG                   
  Ulf Ekstrom                                   : XCFun DFT Library      
  Mihaly Kallay                                 : mrcc  (arbitrary order and MRCC methods)
  Frank Weinhold                                : gennbo (NPA and NBO analysis)           
  Simon Mueller                                 : openCOSMO-RS                            
  Christopher J. Cramer and Donald G. Truhlar   : smd solvation model                     
  S Lehtola, MJT Oliveira, MAL Marques          : LibXC Library                           
  Liviu Ungur et al                             : ANISO software                          


 Your calculation uses the libint2 library for the computation of 2-el integrals
 For citations please refer to: http://libint.valeyev.net

 Your ORCA version has been built with support for libXC version: 7.0.0
 For citations please refer to: https://libxc.gitlab.io

 This ORCA versions uses:
   CBLAS   interface :  Fast vector & matrix operations
   LAPACKE interface :  Fast linear algebra routines
   SCALAPACK package :  Parallel linear algebra routines
   Shared memory     :  Shared parallel matrices
   BLAS/LAPACK       :  OpenBLAS 0.3.29  USE64BITINT DYNAMIC_ARCH NO_AFFINITY Bulldozer SINGLE_THREADED
        Core in use  :  Bulldozer
   Copyright (c) 2011-2014, The OpenBLAS Project


  ***********************************
  * Starting time: Fri Aug  8 19:16:13 2025
  * Host name:     chromium03
  * Process ID:    127322
  * Working dir.:  /local/scratch/mehlhorn/61817
  ***********************************



***************************************
The coordinates will be read from file: start.xyz
***************************************


Your calculation utilizes the geometrical counterpoise correction gCP
Please cite in your paper:
H.Kruse, S. Grimme J.Chem.Phys., 136, (2012), 154101 
   

Your calculation utilizes the atom-pairwise dispersion correction
with the Becke-Johnson damping scheme (D3BJ)


Warning: RI is on but no J-basis has been assigned. Assigning Def2/J (nothing to worry about!)
================================================================================

cite the ECPs for Zr [Def2-ECP] as follows:
Ce-Yb(ecp-28): M. Dolg, H. Stoll, H.Preuss, J. Chem. Phys., 1989, 90, 1730-1734.
Y-Cd(ecp-28), Hf-Hg(ecp-46): D. Andrae,U. Haeussermann, M. Dolg, H. Stoll, H. Preuss, Theor. Chim. Acta, 1990, 77, 123-141.
In-Sb(ecp-28), Tl-Bi(ecp-46): B. Metz, H. Stoll, M. Dolg, J. Chem. Phys., 2000, 113, 2563-2569.
Te-Xe(ecp-28), Po-Rn(ecp-46): K. A. Peterson, D. Figgen, E. Goll, H. Stoll, M. Dolg, J. Chem. Phys., 2003, 119, 11113-11123.
Rb(ecp-28), Cs(ecp-46): T. Leininger, A. Nicklass, W. Kuechle, H. Stoll, M. Dolg, A. Bergner, Chem. Phys. Lett., 1996, 255, 274-280.
Sr(ecp-28), Ba(ecp-46): M. Kaupp, P. V. Schleyer, H. Stoll and H. Preuss, J. Chem. Phys., 1991, 94, 1360-1366.
La(ecp-46): M. Dolg, H. Stoll, A. Savin, H. Preuss, Theor. Chim. Acta, 1989, 75, 173-194.
Lu(ecp-28): X. Cao, M. Dolg, J. Chem. Phys., 2001, 115, 7348-7355.

ECP parameters for Zr [Def2-ECP] have been obtained from:
TURBOMOLE (7.0.2)

----- Orbital basis set information -----
Your calculation utilizes the basis: def2-SV(P)
   F. Weigend and R. Ahlrichs, Phys. Chem. Chem. Phys. 7, 3297 (2005).

----- AuxJ basis set information -----
Your calculation utilizes the auxiliary basis: def2/J
   H-Rn: F. Weigend, Phys. Chem. Chem. Phys. 8, 1057 (2006).
   Fr-Lr: K. Eichkorn, F. Weigend, O. Treutler, R. Ahlrichs; Theor. Chem. Acc. 97, 119 (1997).

================================================================================
                                        WARNINGS
                       Please study these warnings very carefully!
================================================================================


WARNING: Gradients are needed
  ===> : At least TightSCF should be used for SCF convergence

WARNING: Geometry Optimization
  ===> : Switching off AutoStart
         For restart on a previous wavefunction, please use MOREAD

================================================================================
                                       INPUT FILE
================================================================================
NAME = run.inp
|  1> # Geometry optimization for (AlH3)n cluster
|  2> 
|  3> %pal nprocs 24  end
|  4> 
|  5> %geom MaxIter 500 end
|  6> 
|  7> 
|  8> ! PBE def2-SV(P)
|  9> ! RKS	# closed shell for AlH3
| 10> ! D3    #  dispersion correction
| 11> ! gCP(DFT/SV(P))
| 12> ! Freq 	# Frequency analysis to check the stabiltity of the structures
| 13> 
| 14> ! NoPop # population analysis not necessary	
| 15> 
| 16> ! DEFGRID2
| 17> ! NormalSCF
| 18> ! SloppyOpt
| 19> 
| 20> ! SmallPrint
| 21> 
| 22> 
| 23> * xyzFile 0 1 start.xyz # only maingroup elements H and Al so there should be no net spin
| 24> 
| 25>                          ****END OF INPUT****
================================================================================

                       *****************************
                       * Geometry Optimization Run *
                       *****************************

Geometry optimization settings:
Update method            Update   .... BFGS
Choice of coordinates    CoordSys .... (2022) Redundant Internals
Initial Hessian          InHess   .... Almloef's Model
Max. no of cycles        MaxIter  .... 500

Convergence Tolerances:
Energy Change            TolE     ....  8.0000e-05 Eh
Max. Gradient            TolMAXG  ....  5.0000e-03 Eh/bohr
RMS Gradient             TolRMSG  ....  1.0000e-03 Eh/bohr
Max. Displacement        TolMAXD  ....  3.0000e-02 bohr
RMS Displacement         TolRMSD  ....  2.0000e-02 bohr
Strict Convergence                .... False

------------------------------------------------------------------------------
                        ORCA OPTIMIZATION COORDINATE SETUP
------------------------------------------------------------------------------

The optimization will be done in redundant internal coordinates (2022)
Making redundant internal coordinates   ...  (2022 redundants) done
Evaluating the initial hessian          ...  (Almloef) done
Evaluating the coordinates              ...  done
Calculating the B-matrix                .... done
Calculating the G-matrix                .... done
The number of degrees of freedom        ....  691

    -----------------------------------------------------------------
                    Redundant Internal Coordinates


    -----------------------------------------------------------------
         Definition                    Initial Value    Approx d2E/dq
    -----------------------------------------------------------------
      1. B(Zr  2,Zr  1)                  3.3871         0.041668   
      2. B(Zr  3,Zr  0)                  3.3731         0.043869   
      3. B(Zr  4,Zr  3)                  3.4214         0.036734   
      4. B(Zr  4,Zr  1)                  3.3825         0.042367   
      5. B(Zr  5,Zr  0)                  3.4177         0.037227   
      6. B(Zr  5,Zr  2)                  3.4321         0.035310   
      7. B(O   6,Zr  3)                  2.1046         0.410054   
      8. B(O   6,Zr  0)                  2.1121         0.399010   
      9. B(O   6,Zr  5)                  2.0867         0.437966   
     10. B(O   7,Zr  2)                  2.1086         0.404148   
     11. B(O   7,Zr  1)                  2.1272         0.377426   
     12. B(O   7,Zr  4)                  2.0672         0.470551   
     13. B(O   8,Zr  5)                  2.1027         0.412927   
     14. B(O   8,Zr  2)                  2.0888         0.434627   
     15. B(O   8,Zr  1)                  2.1535         0.342657   
     16. B(O   9,Zr  4)                  2.1311         0.372131   
     17. B(O   9,Zr  3)                  2.0882         0.435572   
     18. B(O   9,Zr  0)                  2.1743         0.317481   
     19. B(O  10,Zr  4)                  2.1318         0.371102   
     20. B(O  10,Zr  1)                  2.1734         0.318520   
     21. B(O  10,Zr  3)                  2.1519         0.344638   
     22. B(O  11,Zr  0)                  2.1706         0.321826   
     23. B(O  11,Zr  5)                  2.1323         0.370381   
     24. B(O  11,Zr  2)                  2.1560         0.339489   
     25. B(O  12,Zr  0)                  1.9821         0.643206   
     26. B(O  13,Zr  0)                  1.9846         0.637329   
     27. B(O  14,Zr  0)                  2.0414         0.517217   
     28. B(O  15,Zr  0)                  2.0628         0.478187   
     29. B(O  16,Zr  1)                  2.0716         0.462974   
     30. B(O  17,Zr  1)                  2.0305         0.538417   
     31. B(O  18,Zr  1)                  1.9860         0.633962   
     32. B(O  19,Zr  1)                  1.9770         0.655249   
     33. B(O  20,Zr  2)                  1.9921         0.619993   
     34. B(O  21,Zr  2)                  1.9940         0.615736   
     35. B(O  22,Zr  2)                  1.9936         0.616637   
     36. B(O  23,Zr  2)                  2.0727         0.461159   
     37. B(O  24,Zr  3)                  2.0682         0.468713   
     38. B(O  25,Zr  3)                  1.9847         0.637128   
     39. B(O  26,Zr  3)                  1.9842         0.638146   
     40. B(O  27,Zr  3)                  1.9964         0.610388   
     41. B(O  28,Zr  4)                  1.9911         0.622286   
     42. B(O  29,Zr  4)                  2.0235         0.552542   
     43. B(O  30,Zr  4)                  1.9781         0.652817   
     44. B(O  31,Zr  4)                  2.0643         0.475596   
     45. B(O  32,Zr  5)                  2.0624         0.478812   
     46. B(O  33,Zr  5)                  1.9708         0.670560   
     47. B(O  34,Zr  5)                  2.0460         0.508634   
     48. B(O  35,Zr  5)                  1.9944         0.614718   
     49. B(C  36,O  33)                  1.2979         0.784805   
     50. B(C  36,O  12)                  1.2985         0.783078   
     51. B(C  37,O  25)                  1.2993         0.780974   
     52. B(C  37,O  13)                  1.3004         0.777829   
     53. B(C  38,O  14)                  1.2965         0.788914   
     54. B(C  38,O  21)                  1.2972         0.786992   
     55. B(C  39,O  29)                  1.2984         0.783372   
     56. B(C  39,O  15)                  1.2971         0.787145   
     57. B(C  40,O  34)                  1.3011         0.775699   
     58. B(C  40,O  16)                  1.2991         0.781534   
     59. B(C  41,O  17)                  1.2953         0.792500   
     60. B(C  41,O  26)                  1.2946         0.794539   
     61. B(C  42,O  22)                  1.3012         0.775400   
     62. B(C  42,O  18)                  1.3021         0.773020   
     63. B(C  43,O  19)                  1.2986         0.782886   
     64. B(C  43,O  30)                  1.2984         0.783495   
     65. B(C  44,O  35)                  1.3020         0.773041   
     66. B(C  44,O  20)                  1.3019         0.773382   
     67. B(C  45,O  31)                  1.2967         0.788249   
     68. B(C  45,O  23)                  1.2968         0.788142   
     69. B(C  46,O  32)                  1.2973         0.786574   
     70. B(C  46,O  24)                  1.2968         0.787937   
     71. B(C  47,O  28)                  1.3023         0.772291   
     72. B(C  47,O  27)                  1.3024         0.771961   
     73. B(H  48,C  41)                  1.0861         0.365355   
     74. B(H  49,C  42)                  1.0921         0.357301   
     75. B(H  50,C  38)                  1.0867         0.364489   
     76. B(H  51,C  37)                  1.0911         0.358693   
     77. B(H  52,C  43)                  1.0899         0.360209   
     78. B(H  53,C  47)                  1.0920         0.357442   
     79. B(H  54,C  39)                  1.0865         0.364781   
     80. B(H  55,C  45)                  1.0846         0.367346   
     81. B(H  56,C  40)                  1.0874         0.363522   
     82. B(H  57,C  46)                  1.0850         0.366823   
     83. B(H  58,C  36)                  1.0899         0.360217   
     84. B(H  59,C  44)                  1.0917         0.357901   
     85. B(Al 60,O  26)                  3.2594         0.010000   
     86. B(Al 61,O  27)                  3.2515         0.010000   
     87. B(Al 61,Al 60)                  2.7384         0.216589   
     88. B(H  62,C  47)                  3.2357         0.010000   
     89. B(H  62,H  53)                  2.9100         0.010000   
     90. B(H  62,O  27)                  2.6708         0.010000   
     91. B(H  62,Al 61)                  1.6741         0.295199   
     92. B(H  63,H  48)                  3.0551         0.010000   
     93. B(H  63,C  41)                  3.0083         0.010000   
     94. B(H  63,O  26)                  2.9343         0.010000   
     95. B(H  63,O  27)                  2.6660         0.010000   
     96. B(H  63,Al 61)                  1.6102         0.373271   
     97. B(H  64,C  41)                  3.0760         0.010000   
     98. B(H  64,O  26)                  2.7725         0.010000   
     99. B(H  64,H  48)                  2.6202         0.010000   
    100. B(H  64,Al 61)                  1.6742         0.295109   
    101. B(H  64,Al 60)                  1.6725         0.296966   
    102. B(H  65,H  48)                  3.2824         0.010000   
    103. B(H  65,C  46)                  2.9858         0.010000   
    104. B(H  65,O  26)                  2.8110         0.010000   
    105. B(H  65,H  57)                  2.7763         0.010000   
    106. B(H  65,O  24)                  2.7434         0.010000   
    107. B(H  65,Al 60)                  1.6094         0.374449   
    108. B(H  66,O  25)                  3.2258         0.010000   
    109. B(H  66,O  24)                  3.0551         0.010000   
    110. B(H  66,Al 60)                  1.6764         0.292728   
    111. B(H  67,Al 61)                  1.6099         0.373658   
    112. B(Al 68,O  27)                  3.2978         0.010000   
    113. B(Al 68,H  66)                  1.6768         0.292298   
    114. B(Al 68,H  62)                  1.6727         0.296772   
    115. B(Al 68,Al 61)                  2.7390         0.216133   
    116. B(Al 68,Al 60)                  2.7201         0.231641   
    117. B(H  69,Al 68)                  1.6111         0.372022   
    118. B(H  70,H  53)                  3.2004         0.010000   
    119. B(H  70,O  27)                  2.9340         0.010000   
    120. B(H  70,O  25)                  2.5475         0.010000   
    121. B(H  70,Al 68)                  1.6094         0.374337   
    122. B(H  71,Al 60)                  1.6111         0.372085   
    123. A(O  14,Zr  0,O  15)           73.6797         0.500705   
    124. A(Zr  5,Zr  0,O  14)          104.4921         0.347624   
    125. A(O  11,Zr  0,O  15)          126.9645         0.458784   
    126. A(O   6,Zr  0,O  11)           65.9003         0.443940   
    127. A(Zr  5,Zr  0,O   6)           35.2668         0.332873   
    128. A(Zr  5,Zr  0,O  13)          114.4184         0.360141   
    129. A(Zr  3,Zr  0,Zr  5)           71.8422         0.254645   
    130. A(O  13,Zr  0,O  15)           81.8204         0.520631   
    131. A(O  12,Zr  0,O  15)          130.1211         0.521529   
    132. A(O   6,Zr  0,O  15)          133.7630         0.477222   
    133. A(O  11,Zr  0,O  12)           81.8734         0.484449   
    134. A(Zr  3,Zr  0,O  12)          118.8414         0.370991   
    135. A(O   9,Zr  0,O  13)           87.6196         0.482416   
    136. A(O  12,Zr  0,O  13)           81.4253         0.550587   
    137. A(Zr  3,Zr  0,O  13)           71.3171         0.370406   
    138. A(O  11,Zr  0,O  14)           70.6287         0.465410   
    139. A(O  11,Zr  0,O  13)          150.8291         0.483628   
    140. A(O  13,Zr  0,O  14)          130.0154         0.528365   
    141. A(Zr  3,Zr  0,O   9)           36.8046         0.329344   
    142. A(Zr  3,Zr  0,O  11)           96.4560         0.330085   
    143. A(Zr  3,Zr  0,O  14)          154.2517         0.357415   
    144. A(Zr  5,Zr  0,O  11)           37.0245         0.321290   
    145. A(O   6,Zr  0,O   9)           65.1861         0.442850   
    146. A(Zr  3,Zr  0,O  15)           99.2234         0.352690   
    147. A(O   9,Zr  0,O  15)           68.8563         0.457649   
    148. A(O   9,Zr  0,O  12)          155.6390         0.483234   
    149. A(O   9,Zr  0,O  14)          120.9250         0.464254   
    150. A(O  12,Zr  0,O  14)           82.2616         0.529278   
    151. A(Zr  5,Zr  0,O   9)           93.4607         0.320577   
    152. A(O   6,Zr  0,O  13)           91.3848         0.503304   
    153. A(O   6,Zr  0,O  14)          136.4901         0.484178   
    154. A(Zr  3,Zr  0,O   6)           36.8014         0.342105   
    155. A(Zr  5,Zr  0,O  15)          156.1363         0.343072   
    156. A(O   9,Zr  0,O  11)           98.1291         0.426045   
    157. A(O   6,Zr  0,O  12)           93.2547         0.504166   
    158. A(Zr  5,Zr  0,O  12)           71.7961         0.360705   
    159. A(Zr  2,Zr  1,O  18)           70.4428         0.366813   
    160. A(Zr  4,Zr  1,O  19)           73.8809         0.369954   
    161. A(O   7,Zr  1,O  18)           86.0490         0.497632   
    162. A(O  16,Zr  1,O  17)           73.6265         0.501436   
    163. A(O   8,Zr  1,O  16)           68.6296         0.461337   
    164. A(O  10,Zr  1,O  17)           71.9275         0.467961   
    165. A(Zr  4,Zr  1,O  10)           37.7823         0.327634   
    166. A(O   8,Zr  1,O  10)           97.3865         0.431117   
    167. A(Zr  4,Zr  1,O   7)           35.6532         0.336977   
    168. A(Zr  2,Zr  1,O   8)           36.3681         0.330699   
    169. A(O   8,Zr  1,O  19)          163.9835         0.491790   
    170. A(O  10,Zr  1,O  16)          134.2891         0.455231   
    171. A(O   7,Zr  1,O  17)          136.1738         0.482799   
    172. A(Zr  2,Zr  1,O  16)           95.4907         0.347736   
    173. A(Zr  4,Zr  1,O  18)          105.8273         0.367862   
    174. A(O   7,Zr  1,O  10)           65.8353         0.438683   
    175. A(O  16,Zr  1,O  19)          124.5770         0.520182   
    176. A(Zr  2,Zr  1,O  10)           96.1424         0.326736   
    177. A(O  17,Zr  1,O  18)          137.1494         0.531846   
    178. A(Zr  2,Zr  1,O   7)           36.7166         0.336044   
    179. A(Zr  2,Zr  1,Zr  4)           72.2359         0.257590   
    180. A(Zr  4,Zr  1,O  17)          108.1714         0.357740   
    181. A(O  10,Zr  1,O  19)           79.4421         0.485186   
    182. A(O   8,Zr  1,O  18)           91.3065         0.488790   
    183. A(O  10,Zr  1,O  18)          142.8374         0.482235   
    184. A(Zr  2,Zr  1,O  19)          127.9161         0.368898   
    185. A(O   7,Zr  1,O   8)           64.6227         0.444512   
    186. A(O   8,Zr  1,O  17)          111.3756         0.474279   
    187. A(Zr  2,Zr  1,O  17)          145.4530         0.356729   
    188. A(Zr  4,Zr  1,O   8)           93.9073         0.331612   
    189. A(Zr  4,Zr  1,O  16)          161.1444         0.348713   
    190. A(O   7,Zr  1,O  16)          131.4137         0.469571   
    191. A(O  16,Zr  1,O  18)           82.4399         0.516970   
    192. A(O   7,Zr  1,O  19)          100.1201         0.500698   
    193. A(O  17,Zr  1,O  19)           82.7634         0.535169   
    194. A(O  18,Zr  1,O  19)           82.3879         0.551974   
    195. A(Zr  1,Zr  2,O  23)           89.4329         0.347506   
    196. A(O   7,Zr  2,O   8)           66.0691         0.470021   
    197. A(O  11,Zr  2,O  20)           76.2167         0.485944   
    198. A(Zr  1,Zr  2,O  22)           73.8195         0.365076   
    199. A(Zr  1,Zr  2,O  21)          142.4707         0.364985   
    200. A(Zr  5,Zr  2,O   8)           35.1665         0.334681   
    201. A(O  21,Zr  2,O  23)           77.8227         0.513776   
    202. A(O  20,Zr  2,O  23)          132.1334         0.514439   
    203. A(Zr  5,Zr  2,O   7)           85.1651         0.330671   
    204. A(Zr  1,Zr  2,O   8)           37.6867         0.344062   
    205. A(O  22,Zr  2,O  23)           79.9355         0.513917   
    206. A(Zr  5,Zr  2,O  20)           72.2953         0.355249   
    207. A(Zr  1,Zr  2,Zr  5)           69.9041         0.250778   
    208. A(O  11,Zr  2,O  23)          138.3102         0.460224   
    209. A(O   8,Zr  2,O  23)          126.9738         0.481573   
    210. A(Zr  5,Zr  2,O  11)           36.6015         0.321320   
    211. A(O   7,Zr  2,O  21)          105.8533         0.501277   
    212. A(Zr  5,Zr  2,O  23)          155.4819         0.337998   
    213. A(Zr  5,Zr  2,O  22)          105.5496         0.354922   
    214. A(O  20,Zr  2,O  21)           85.9713         0.543206   
    215. A(O   8,Zr  2,O  22)           80.6322         0.508256   
    216. A(O  21,Zr  2,O  22)          136.0980         0.542648   
    217. A(O  11,Zr  2,O  22)          140.6401         0.485456   
    218. A(Zr  1,Zr  2,O   7)           37.0949         0.339899   
    219. A(O   7,Zr  2,O  11)           88.0038         0.449301   
    220. A(O   8,Zr  2,O  11)           68.4396         0.455279   
    221. A(O  11,Zr  2,O  21)           74.4817         0.485325   
    222. A(Zr  1,Zr  2,O  11)           93.9239         0.330191   
    223. A(O   7,Zr  2,O  22)          101.4687         0.501413   
    224. A(O   8,Zr  2,O  21)          142.1120         0.508117   
    225. A(Zr  5,Zr  2,O  21)          110.3600         0.354834   
    226. A(O   7,Zr  2,O  20)          157.1566         0.501920   
    227. A(O  20,Zr  2,O  22)           81.6166         0.543356   
    228. A(Zr  1,Zr  2,O  20)          126.5365         0.365416   
    229. A(O   7,Zr  2,O  23)           70.3183         0.475166   
    230. A(O   8,Zr  2,O  20)           92.4920         0.508772   
    231. A(O   6,Zr  3,O  10)           87.5980         0.451719   
    232. A(O   9,Zr  3,O  10)           69.2694         0.456710   
    233. A(Zr  4,Zr  3,O  10)           36.7929         0.324208   
    234. A(Zr  0,Zr  3,O  24)           88.7018         0.351499   
    235. A(Zr  4,Zr  3,O  25)          105.6721         0.359305   
    236. A(O   6,Zr  3,O  24)           70.3121         0.477863   
    237. A(O  24,Zr  3,O  27)          132.0224         0.514500   
    238. A(Zr  4,Zr  3,O  24)          156.6322         0.341162   
    239. A(O  24,Zr  3,O  25)           80.4658         0.518650   
    240. A(O   6,Zr  3,O  27)          157.4508         0.501817   
    241. A(Zr  4,Zr  3,O  27)           71.2931         0.356695   
    242. A(Zr  0,Zr  3,O  27)          127.7845         0.367669   
    243. A(O   6,Zr  3,O  25)          103.6302         0.505842   
    244. A(O  24,Zr  3,O  26)           76.8338         0.518805   
    245. A(Zr  4,Zr  3,O   6)           86.3219         0.333645   
    246. A(O   6,Zr  3,O   9)           66.8459         0.471462   
    247. A(O  26,Zr  3,O  27)           86.1299         0.545281   
    248. A(O   9,Zr  3,O  25)           80.8360         0.511577   
    249. A(Zr  4,Zr  3,O   9)           36.2387         0.337011   
    250. A(Zr  0,Zr  3,O  25)           75.5103         0.370386   
    251. A(Zr  0,Zr  3,Zr  4)           71.6205         0.254146   
    252. A(Zr  0,Zr  3,O   9)           38.5930         0.347178   
    253. A(O   9,Zr  3,O  27)           92.4680         0.507496   
    254. A(O  25,Zr  3,O  26)          134.5475         0.549730   
    255. A(Zr  0,Zr  3,O  26)          141.6065         0.370488   
    256. A(O  25,Zr  3,O  27)           80.6149         0.545116   
    257. A(Zr  4,Zr  3,O  26)          110.7531         0.359403   
    258. A(O   6,Zr  3,O  26)          104.9106         0.505993   
    259. A(O  10,Zr  3,O  27)           76.2008         0.485893   
    260. A(O  10,Zr  3,O  24)          137.8773         0.462864   
    261. A(Zr  0,Zr  3,O  10)           94.4827         0.333851   
    262. A(O   9,Zr  3,O  26)          143.3730         0.511730   
    263. A(O  10,Zr  3,O  26)           74.9014         0.489909   
    264. A(Zr  0,Zr  3,O   6)           36.9529         0.343674   
    265. A(O  10,Zr  3,O  25)          140.8733         0.489764   
    266. A(O   9,Zr  3,O  24)          127.0437         0.483213   
    267. A(Zr  1,Zr  4,Zr  3)           71.2902         0.252849   
    268. A(O   9,Zr  4,O  10)           68.8669         0.449831   
    269. A(O   7,Zr  4,O  10)           67.6302         0.469514   
    270. A(Zr  3,Zr  4,O  10)           37.1987         0.328180   
    271. A(O  10,Zr  4,O  28)           91.6080         0.494363   
    272. A(O   9,Zr  4,O  29)           72.7219         0.483849   
    273. A(O  28,Zr  4,O  30)           82.0491         0.549642   
    274. A(O  30,Zr  4,O  31)           81.2747         0.522450   
    275. A(O  29,Zr  4,O  31)           77.8365         0.506394   
    276. A(O   7,Zr  4,O  31)           70.9767         0.491492   
    277. A(O  28,Zr  4,O  31)          131.9589         0.517776   
    278. A(O  10,Zr  4,O  31)          128.6944         0.470433   
    279. A(O   9,Zr  4,O  31)          135.0647         0.470672   
    280. A(Zr  3,Zr  4,O  31)          156.1973         0.341995   
    281. A(Zr  1,Zr  4,O  31)           90.3971         0.350299   
    282. A(O  29,Zr  4,O  30)          137.2220         0.537414   
    283. A(O  10,Zr  4,O  30)           79.7247         0.498781   
    284. A(O   9,Zr  4,O  30)          142.1662         0.499038   
    285. A(O   7,Zr  4,O  30)          102.8289         0.521405   
    286. A(Zr  3,Zr  4,O  30)          107.4400         0.360798   
    287. A(Zr  1,Zr  4,O  30)           75.2097         0.369718   
    288. A(O  28,Zr  4,O  29)           84.8331         0.532579   
    289. A(O  10,Zr  4,O  29)          141.3409         0.483602   
    290. A(O   7,Zr  4,O  29)          104.9239         0.505387   
    291. A(Zr  3,Zr  4,O  29)          106.6600         0.350730   
    292. A(Zr  1,Zr  4,O  29)          141.0710         0.359320   
    293. A(O   9,Zr  4,O  28)           78.4017         0.494617   
    294. A(O   7,Zr  4,O  28)          156.9919         0.516742   
    295. A(Zr  3,Zr  4,O  28)           71.7816         0.357867   
    296. A(O   7,Zr  4,O   9)           84.6212         0.469752   
    297. A(Zr  1,Zr  4,O   9)           91.7285         0.336185   
    298. A(Zr  3,Zr  4,O   7)           85.3794         0.341385   
    299. A(Zr  1,Zr  4,O   7)           36.8559         0.349669   
    300. A(Zr  3,Zr  4,O   9)           35.3989         0.328330   
    301. A(Zr  1,Zr  4,O  28)          127.6873         0.366691   
    302. A(Zr  1,Zr  4,O  10)           38.6540         0.336030   
    303. A(O  11,Zr  5,O  35)           89.4507         0.493064   
    304. A(O  34,Zr  5,O  35)           83.2665         0.523140   
    305. A(O  33,Zr  5,O  35)           82.1688         0.551165   
    306. A(O  32,Zr  5,O  35)          133.3123         0.517243   
    307. A(O   8,Zr  5,O  35)           78.7740         0.503132   
    308. A(O   6,Zr  5,O  35)          155.4491         0.508687   
    309. A(Zr  2,Zr  5,O  35)           71.3064         0.354735   
    310. A(O  33,Zr  5,O  34)          135.1575         0.531768   
    311. A(O  32,Zr  5,O  34)           78.5007         0.499270   
    312. A(O  11,Zr  5,O  34)          140.7052         0.476105   
    313. A(Zr  0,Zr  5,O  35)          124.7144         0.357933   
    314. A(O  32,Zr  5,O  33)           81.3667         0.525754   
    315. A(O   6,Zr  5,O  34)          110.1119         0.491072   
    316. A(Zr  2,Zr  5,O  34)          104.9785         0.343582   
    317. A(Zr  0,Zr  5,O  34)          144.2630         0.346646   
    318. A(O  11,Zr  5,O  33)           81.2354         0.501095   
    319. A(O   8,Zr  5,O  33)          144.2043         0.511363   
    320. A(O   6,Zr  5,O  33)          100.2089         0.517028   
    321. A(Zr  0,Zr  5,O  33)           75.8244         0.363278   
    322. A(O  11,Zr  5,O  32)          130.2308         0.470847   
    323. A(O   8,Zr  5,O  32)          132.9940         0.480362   
    324. A(O   6,Zr  5,O  32)           70.8175         0.485611   
    325. A(Zr  2,Zr  5,O  32)          155.0987         0.340124   
    326. A(Zr  0,Zr  5,O  32)           92.6489         0.343147   
    327. A(Zr  2,Zr  5,O   6)           85.1034         0.335107   
    328. A(Zr  0,Zr  5,O   6)           35.7607         0.338069   
    329. A(Zr  0,Zr  5,Zr  2)           69.9187         0.246704   
    330. A(O   8,Zr  5,O  34)           72.0700         0.485751   
    331. A(O   8,Zr  5,O  11)           68.6365         0.458265   
    332. A(O   6,Zr  5,O  11)           67.0305         0.463218   
    333. A(Zr  2,Zr  5,O  11)           37.0761         0.325945   
    334. A(Zr  0,Zr  5,O  11)           37.8037         0.328797   
    335. A(O   6,Zr  5,O   8)           85.7990         0.472543   
    336. A(Zr  2,Zr  5,O  33)          109.9263         0.360016   
    337. A(Zr  2,Zr  5,O   8)           34.8993         0.331849   
    338. A(Zr  0,Zr  5,O   8)           90.6205         0.334772   
    339. A(Zr  3,O   6,Zr  5)          143.8151         0.471937   
    340. A(Zr  0,O   6,Zr  5)          108.9725         0.469578   
    341. A(Zr  0,O   6,Zr  3)          106.2458         0.463948   
    342. A(Zr  2,O   7,Zr  4)          145.7209         0.476932   
    343. A(Zr  1,O   7,Zr  4)          107.4910         0.470972   
    344. A(Zr  1,O   7,Zr  2)          106.1885         0.458044   
    345. A(Zr  1,O   8,Zr  2)          105.9452         0.456050   
    346. A(Zr  2,O   8,Zr  5)          109.9342         0.471879   
    347. A(Zr  1,O   8,Zr  5)          133.2393         0.451819   
    348. A(Zr  3,O   9,Zr  4)          108.3624         0.463153   
    349. A(Zr  0,O   9,Zr  4)          134.8595         0.437308   
    350. A(Zr  0,O   9,Zr  3)          104.6024         0.449942   
    351. A(Zr  3,O  10,Zr  4)          106.0084         0.443617   
    352. A(Zr  1,O  10,Zr  4)          103.5637         0.437348   
    353. A(Zr  1,O  10,Zr  3)          132.9053         0.431563   
    354. A(Zr  2,O  11,Zr  5)          106.3225         0.442255   
    355. A(Zr  0,O  11,Zr  5)          105.1717         0.438009   
    356. A(Zr  0,O  11,Zr  2)          130.2322         0.431197   
    357. A(Zr  0,O  12,C  36)          134.5282         0.506729   
    358. A(Zr  0,O  13,C  37)          131.7190         0.505228   
    359. A(Zr  0,O  14,C  38)          134.6851         0.487286   
    360. A(Zr  0,O  15,C  39)          132.5993         0.480077   
    361. A(Zr  1,O  16,C  40)          127.9305         0.476597   
    362. A(Zr  1,O  17,C  41)          139.5685         0.491337   
    363. A(Zr  1,O  18,C  42)          128.6389         0.504146   
    364. A(Zr  1,O  19,C  43)          132.6473         0.508463   
    365. A(Zr  2,O  20,C  44)          126.7563         0.502102   
    366. A(Zr  2,O  21,C  38)          138.4730         0.503090   
    367. A(Zr  2,O  22,C  42)          125.1072         0.501838   
    368. A(Zr  2,O  23,C  45)          138.0992         0.476992   
    369. A(Zr  3,O  24,C  46)          135.1046         0.478398   
    370. A(Zr  3,O  25,C  37)          126.4620         0.505578   
    371. A(Zr  3,O  26,C  41)          138.8756         0.507356   
    372. A(Zr  3,O  26,Al 60)          104.3566         0.232979   
    373. A(C  41,O  26,Al 60)          116.0656         0.219690   
    374. A(C  47,O  27,Al 68)          115.8683         0.214759   
    375. A(C  47,O  27,Al 61)          122.0657         0.219693   
    376. A(Al 61,O  27,Al 68)           49.4365         0.132850   
    377. A(Zr  3,O  27,Al 68)          100.2516         0.227057   
    378. A(Zr  3,O  27,Al 61)          111.0400         0.232474   
    379. A(Zr  3,O  27,C  47)          126.7799         0.500473   
    380. A(Zr  4,O  28,C  47)          126.6854         0.502315   
    381. A(Zr  4,O  29,C  39)          137.8298         0.492642   
    382. A(Zr  4,O  30,C  43)          130.6919         0.508184   
    383. A(Zr  4,O  31,C  45)          138.0979         0.479720   
    384. A(Zr  5,O  32,C  46)          139.7498         0.480128   
    385. A(Zr  5,O  33,C  36)          129.3503         0.510896   
    386. A(Zr  5,O  34,C  40)          136.2052         0.484266   
    387. A(Zr  5,O  35,C  44)          128.2104         0.501262   
    388. A(O  12,C  36,O  33)          127.3672         0.466441   
    389. A(O  33,C  36,H  58)          116.3435         0.365101   
    390. A(O  12,C  36,H  58)          116.2885         0.364963   
    391. A(O  13,C  37,O  25)          126.9147         0.465450   
    392. A(O  25,C  37,H  51)          116.5212         0.364531   
    393. A(O  13,C  37,H  51)          116.5620         0.364279   
    394. A(O  14,C  38,O  21)          129.1530         0.467314   
    395. A(O  21,C  38,H  50)          115.4459         0.366013   
    396. A(O  14,C  38,H  50)          115.3954         0.366166   
    397. A(O  15,C  39,O  29)          129.4859         0.466728   
    398. A(O  29,C  39,H  54)          115.3072         0.365774   
    399. A(O  15,C  39,H  54)          115.2022         0.366075   
    400. A(O  16,C  40,O  34)          129.7062         0.465277   
    401. A(O  34,C  40,H  56)          115.2110         0.364942   
    402. A(O  16,C  40,H  56)          115.0780         0.365411   
    403. A(O  17,C  41,O  26)          129.0000         0.468522   
    404. A(O  26,C  41,H  48)          115.5766         0.366761   
    405. A(O  17,C  41,H  48)          115.4195         0.366600   
    406. A(O  18,C  42,O  22)          126.7599         0.464313   
    407. A(O  22,C  42,H  49)          116.5863         0.363842   
    408. A(O  18,C  42,H  49)          116.6500         0.363651   
    409. A(O  30,C  43,H  52)          116.2687         0.364995   
    410. A(O  19,C  43,H  52)          116.2209         0.364947   
    411. A(O  19,C  43,O  30)          127.5102         0.466278   
    412. A(O  35,C  44,H  59)          116.2742         0.363757   
    413. A(O  20,C  44,H  59)          116.2762         0.363785   
    414. A(O  20,C  44,O  35)          127.4496         0.464094   
    415. A(O  31,C  45,H  55)          114.8951         0.366603   
    416. A(O  23,C  45,H  55)          114.9300         0.366595   
    417. A(O  23,C  45,O  31)          130.1659         0.467367   
    418. A(O  32,C  46,H  57)          114.9243         0.366380   
    419. A(O  24,C  46,H  57)          114.9825         0.366489   
    420. A(O  24,C  46,O  32)          130.0817         0.467163   
    421. A(O  28,C  47,H  53)          116.4582         0.363617   
    422. A(O  27,C  47,H  53)          116.4331         0.363591   
    423. A(O  27,C  47,O  28)          127.1085         0.463855   
    424. A(O  26,Al 60,H  71)          163.5003         0.202369   
    425. A(O  26,Al 60,Al 68)           90.4201         0.213223   
    426. A(O  26,Al 60,H  66)           84.3739         0.196378   
    427. A(O  26,Al 60,H  65)           59.5816         0.202532   
    428. A(O  26,Al 60,H  64)           58.2679         0.196728   
    429. A(O  26,Al 60,Al 61)           69.3876         0.211348   
    430. A(Al 68,Al 60,H  71)           97.7902         0.402114   
    431. A(H  66,Al 60,H  71)          110.5559         0.359656   
    432. A(H  65,Al 60,H  71)          121.2237         0.375167   
    433. A(H  64,Al 60,H  71)          106.5818         0.360538   
    434. A(Al 61,Al 60,H  71)          102.3687         0.397389   
    435. A(H  66,Al 60,Al 68)           35.7914         0.385568   
    436. A(H  65,Al 60,Al 68)          133.2002         0.402564   
    437. A(H  64,Al 60,Al 68)           94.5775         0.386534   
    438. A(Al 61,Al 60,Al 68)           60.2346         0.426913   
    439. A(H  65,Al 60,H  66)          101.4530         0.360044   
    440. A(H  64,Al 60,H  66)          119.8437         0.346188   
    441. A(Al 61,Al 60,H  66)           90.9190         0.381092   
    442. A(H  64,Al 60,H  65)           97.4877         0.360927   
    443. A(Al 61,Al 60,H  65)          125.4928         0.397831   
    444. A(Al 61,Al 60,H  64)           35.1109         0.382044   
    445. A(O  27,Al 61,Al 68)           66.1614         0.212093   
    446. A(O  27,Al 61,H  67)          156.3258         0.203223   
    447. A(O  27,Al 61,H  64)           98.2644         0.197282   
    448. A(O  27,Al 61,H  63)           54.6565         0.203197   
    449. A(O  27,Al 61,H  62)           55.0151         0.197290   
    450. A(O  27,Al 61,Al 60)           89.9118         0.212152   
    451. A(H  67,Al 61,Al 68)          104.7573         0.397536   
    452. A(H  64,Al 61,Al 68)           93.8604         0.381488   
    453. A(H  63,Al 61,Al 68)          120.6427         0.397464   
    454. A(H  62,Al 61,Al 68)           35.0582         0.381508   
    455. A(Al 60,Al 61,Al 68)           59.5517         0.421654   
    456. A(H  64,Al 61,H  67)          104.2908         0.360412   
    457. A(H  63,Al 61,H  67)          127.3216         0.375236   
    458. A(H  62,Al 61,H  67)          104.4723         0.360431   
    459. A(Al 60,Al 61,H  67)          104.4241         0.397684   
    460. A(H  63,Al 61,H  64)           98.2009         0.360348   
    461. A(H  62,Al 61,H  64)          126.3789         0.346312   
    462. A(Al 60,Al 61,H  64)           35.0698         0.381628   
    463. A(H  62,Al 61,H  63)           98.9140         0.360367   
    464. A(Al 60,Al 61,H  63)          120.3887         0.397611   
    465. A(Al 60,Al 61,H  62)           93.9300         0.381648   
    466. A(Al 61,H  62,Al 68)          109.8488         0.346640   
    467. A(Al 60,H  64,Al 61)          109.8193         0.346660   
    468. A(Al 60,H  66,Al 68)          108.4270         0.345268   
    469. A(O  27,Al 68,H  70)           62.7673         0.198956   
    470. A(O  27,Al 68,H  69)          159.6075         0.198802   
    471. A(O  27,Al 68,H  66)           86.4468         0.192968   
    472. A(O  27,Al 68,H  62)           53.6410         0.193326   
    473. A(O  27,Al 68,Al 61)           64.4021         0.207446   
    474. A(O  27,Al 68,Al 60)           89.2631         0.209318   
    475. A(H  69,Al 68,H  70)          121.6126         0.375137   
    476. A(H  66,Al 68,H  70)          101.1115         0.359936   
    477. A(H  62,Al 68,H  70)           97.1714         0.360869   
    478. A(Al 61,Al 68,H  70)          124.6556         0.397663   
    479. A(Al 60,Al 68,H  70)          132.5661         0.402542   
    480. A(H  66,Al 68,H  69)          110.6072         0.359556   
    481. A(H  62,Al 68,H  69)          106.5901         0.360487   
    482. A(Al 61,Al 68,H  69)          102.9806         0.397230   
    483. A(Al 60,Al 68,H  69)           98.1873         0.402102   
    484. A(H  62,Al 68,H  66)          120.0631         0.346065   
    485. A(Al 61,Al 68,H  66)           90.8906         0.380855   
    486. A(Al 60,Al 68,H  66)           35.7816         0.385469   
    487. A(Al 61,Al 68,H  62)           35.0930         0.381860   
    488. A(Al 60,Al 68,H  62)           94.6208         0.386490   
    489. A(Al 60,Al 68,Al 61)           60.2136         0.426752   
    490. D(Zr  5,Zr  2,Zr  1,Zr  4)    105.6157         0.010000   
    491. D(Zr  5,Zr  2,Zr  1,O   7)    109.5755         0.010000   
    492. D(O   7,Zr  2,Zr  1,Zr  4)     -3.9598         0.010000   
    493. D(Zr  4,Zr  3,Zr  0,O   6)   -109.2219         0.010000   
    494. D(O   6,Zr  3,Zr  0,Zr  5)      5.1199         0.010000   
    495. D(Zr  4,Zr  3,Zr  0,Zr  5)   -104.1020         0.010000   
    496. D(Zr  3,Zr  4,Zr  1,Zr  2)   -103.9972         0.010000   
    497. D(Zr  3,Zr  4,Zr  1,O   7)   -108.0590         0.010000   
    498. D(Zr  1,Zr  4,Zr  3,O   6)     67.4780         0.010000   
    499. D(Zr  1,Zr  4,Zr  3,Zr  0)    102.1457         0.010000   
    500. D(O   7,Zr  4,Zr  3,Zr  0)     67.2478         0.010000   
    501. D(O   7,Zr  4,Zr  1,Zr  2)      4.0618         0.010000   
    502. D(O   6,Zr  5,Zr  0,Zr  3)     -5.3125         0.010000   
    503. D(Zr  2,Zr  5,Zr  0,O   6)    110.6161         0.010000   
    504. D(Zr  0,Zr  5,Zr  2,O   7)    -68.8967         0.010000   
    505. D(Zr  0,Zr  5,Zr  2,Zr  1)   -103.6682         0.010000   
    506. D(Zr  2,Zr  5,Zr  0,Zr  3)    105.3036         0.010000   
    507. D(O   6,Zr  5,Zr  2,Zr  1)    -70.3712         0.010000   
    508. D(Zr  0,O   6,Zr  5,O   8)    -96.9251         0.010000   
    509. D(Zr  0,O   6,Zr  5,Zr  2)    -61.9187         0.010000   
    510. D(Zr  3,O   6,Zr  5,Zr  0)    166.1831         0.010000   
    511. D(Zr  0,O   6,Zr  3,O   9)     32.2672         0.010000   
    512. D(Zr  0,O   6,Zr  3,Zr  4)     63.8877         0.010000   
    513. D(Zr  5,O   6,Zr  0,Zr  3)    171.5549         0.010000   
    514. D(Zr  5,O   6,Zr  3,Zr  0)   -166.3943         0.010000   
    515. D(Zr  3,O   6,Zr  0,O   9)    -31.2909         0.010000   
    516. D(Zr  3,O   6,Zr  0,Zr  5)   -171.5549         0.010000   
    517. D(Zr  1,O   7,Zr  2,Zr  5)    -62.6228         0.010000   
    518. D(Zr  2,O   7,Zr  1,O   8)     31.2744         0.010000   
    519. D(Zr  4,O   7,Zr  1,Zr  2)   -173.5217         0.010000   
    520. D(Zr  2,O   7,Zr  1,Zr  4)    173.5217         0.010000   
    521. D(Zr  1,O   7,Zr  4,Zr  3)     64.6130         0.010000   
    522. D(Zr  2,O   7,Zr  4,Zr  1)   -168.9083         0.010000   
    523. D(Zr  1,O   7,Zr  2,O   8)    -31.9418         0.010000   
    524. D(Zr  1,O   7,Zr  4,O   9)    100.1437         0.010000   
    525. D(Zr  4,O   7,Zr  2,Zr  1)    168.9853         0.010000   
    526. D(Zr  2,O   8,Zr  5,Zr  0)     51.9984         0.010000   
    527. D(Zr  1,O   8,Zr  5,Zr  0)    -85.9186         0.010000   
    528. D(Zr  5,O   8,Zr  2,Zr  1)   -149.4838         0.010000   
    529. D(Zr  1,O   8,Zr  2,O   7)     31.4635         0.010000   
    530. D(Zr  1,O   8,Zr  2,Zr  5)    149.4838         0.010000   
    531. D(Zr  5,O   8,Zr  1,Zr  2)    139.0605         0.010000   
    532. D(Zr  2,O   8,Zr  1,O   7)    -31.5617         0.010000   
    533. D(Zr  2,O   8,Zr  1,Zr  4)    -52.5208         0.010000   
    534. D(Zr  1,O   8,Zr  5,Zr  2)   -137.9170         0.010000   
    535. D(Zr  3,O   9,Zr  4,Zr  1)    -53.3817         0.010000   
    536. D(Zr  0,O   9,Zr  4,Zr  3)    134.8336         0.010000   
    537. D(Zr  0,O   9,Zr  4,Zr  1)     81.4519         0.010000   
    538. D(Zr  4,O   9,Zr  0,Zr  3)   -135.9317         0.010000   
    539. D(Zr  0,O   9,Zr  3,O   6)    -30.9643         0.010000   
    540. D(Zr  0,O   9,Zr  3,Zr  4)   -148.7042         0.010000   
    541. D(Zr  4,O   9,Zr  3,Zr  0)    148.7042         0.010000   
    542. D(Zr  3,O   9,Zr  0,O   6)     31.2883         0.010000   
    543. D(Zr  3,O   9,Zr  0,Zr  5)     52.9896         0.010000   
    544. D(Zr  1,O  10,Zr  4,O   7)    -29.4577         0.010000   
    545. D(Zr  1,O  10,Zr  4,Zr  3)   -142.9196         0.010000   
    546. D(Zr  4,O  10,Zr  3,Zr  0)    -50.7357         0.010000   
    547. D(Zr  1,O  10,Zr  3,Zr  4)    126.8523         0.010000   
    548. D(Zr  1,O  10,Zr  3,Zr  0)     76.1166         0.010000   
    549. D(Zr  4,O  10,Zr  1,Zr  2)     50.2312         0.010000   
    550. D(Zr  3,O  10,Zr  1,Zr  4)   -127.7002         0.010000   
    551. D(Zr  3,O  10,Zr  4,Zr  1)    142.9196         0.010000   
    552. D(Zr  3,O  10,Zr  1,Zr  2)    -77.4691         0.010000   
    553. D(Zr  2,O  11,Zr  5,Zr  0)   -140.9618         0.010000   
    554. D(Zr  0,O  11,Zr  5,Zr  2)    140.9618         0.010000   
    555. D(Zr  5,O  11,Zr  2,Zr  1)     47.9352         0.010000   
    556. D(Zr  0,O  11,Zr  2,Zr  5)   -127.2263         0.010000   
    557. D(Zr  0,O  11,Zr  2,Zr  1)    -79.2911         0.010000   
    558. D(Zr  5,O  11,Zr  0,Zr  3)    -47.8659         0.010000   
    559. D(Zr  0,O  11,Zr  5,O   6)     26.9368         0.010000   
    560. D(Zr  2,O  11,Zr  0,Zr  5)    127.6501         0.010000   
    561. D(Zr  2,O  11,Zr  0,Zr  3)     79.7843         0.010000   
    562. D(C  36,O  12,Zr  0,Zr  5)     10.1876         0.010000   
    563. D(C  36,O  12,Zr  0,Zr  3)     66.4348         0.010000   
    564. D(C  37,O  13,Zr  0,Zr  5)    -84.6739         0.010000   
    565. D(C  37,O  13,Zr  0,Zr  3)    -25.6587         0.010000   
    566. D(C  38,O  14,Zr  0,Zr  5)     56.3540         0.010000   
    567. D(C  38,O  14,Zr  0,Zr  3)    -21.8146         0.010000   
    568. D(C  39,O  15,Zr  0,Zr  5)     -0.3708         0.010000   
    569. D(C  39,O  15,Zr  0,Zr  3)    -65.9570         0.010000   
    570. D(C  40,O  16,Zr  1,Zr  4)     26.8112         0.010000   
    571. D(C  40,O  16,Zr  1,Zr  2)     74.9814         0.010000   
    572. D(C  41,O  17,Zr  1,Zr  4)    -38.9675         0.010000   
    573. D(C  41,O  17,Zr  1,Zr  2)     45.8968         0.010000   
    574. D(C  42,O  18,Zr  1,Zr  4)     98.6879         0.010000   
    575. D(C  42,O  18,Zr  1,Zr  2)     34.6160         0.010000   
    576. D(C  43,O  19,Zr  1,Zr  4)     -2.4555         0.010000   
    577. D(C  43,O  19,Zr  1,Zr  2)    -53.5773         0.010000   
    578. D(C  44,O  20,Zr  2,Zr  5)     30.5080         0.010000   
    579. D(C  44,O  20,Zr  2,Zr  1)    -16.2228         0.010000   
    580. D(C  38,O  21,Zr  2,Zr  5)     -8.8290         0.010000   
    581. D(C  38,O  21,Zr  2,Zr  1)     74.3651         0.010000   
    582. D(C  42,O  22,Zr  2,Zr  5)     91.7544         0.010000   
    583. D(C  42,O  22,Zr  2,Zr  1)     28.6326         0.010000   
    584. D(C  45,O  23,Zr  2,Zr  5)     23.1956         0.010000   
    585. D(C  45,O  23,Zr  2,Zr  1)     55.0149         0.010000   
    586. D(C  46,O  24,Zr  3,Zr  4)    -34.5108         0.010000   
    587. D(C  46,O  24,Zr  3,Zr  0)    -66.5572         0.010000   
    588. D(C  37,O  25,Zr  3,Zr  4)    -87.2100         0.010000   
    589. D(C  37,O  25,Zr  3,Zr  0)    -21.4617         0.010000   
    590. D(Al 60,O  26,Zr  3,Zr  0)    128.9875         0.010000   
    591. D(C  41,O  26,Zr  3,Zr  4)     24.6261         0.010000   
    592. D(C  41,O  26,Zr  3,Zr  0)    -61.6630         0.010000   
    593. D(Al 61,O  27,Zr  3,Zr  0)   -170.3104         0.010000   
    594. D(C  47,O  27,Zr  3,Zr  4)    -33.3198         0.010000   
    595. D(C  47,O  27,Zr  3,Zr  0)     13.5447         0.010000   
    596. D(C  47,O  28,Zr  4,Zr  3)    -32.1815         0.010000   
    597. D(C  47,O  28,Zr  4,Zr  1)     14.8959         0.010000   
    598. D(C  39,O  29,Zr  4,Zr  3)      1.9089         0.010000   
    599. D(C  39,O  29,Zr  4,Zr  1)    -78.7458         0.010000   
    600. D(C  43,O  30,Zr  4,Zr  3)    -65.9735         0.010000   
    601. D(C  43,O  30,Zr  4,Zr  1)     -1.4854         0.010000   
    602. D(C  45,O  31,Zr  4,Zr  3)    -12.9257         0.010000   
    603. D(C  45,O  31,Zr  4,Zr  1)    -51.7458         0.010000   
    604. D(C  46,O  32,Zr  5,Zr  2)     -5.1189         0.010000   
    605. D(C  46,O  32,Zr  5,Zr  0)     39.1014         0.010000   
    606. D(C  36,O  33,Zr  5,Zr  2)     69.7674         0.010000   
    607. D(C  36,O  33,Zr  5,Zr  0)      7.6884         0.010000   
    608. D(C  40,O  34,Zr  5,Zr  2)      1.8752         0.010000   
    609. D(C  40,O  34,Zr  5,Zr  0)     78.1822         0.010000   
    610. D(C  44,O  35,Zr  5,Zr  2)     30.3946         0.010000   
    611. D(C  44,O  35,Zr  5,Zr  0)    -17.1216         0.010000   
    612. D(H  58,C  36,O  33,Zr  5)    175.3929         0.047257   
    613. D(O  12,C  36,O  33,Zr  5)     -4.2743         0.047257   
    614. D(H  58,C  36,O  12,Zr  0)    171.3118         0.047025   
    615. D(O  33,C  36,O  12,Zr  0)     -9.0208         0.047025   
    616. D(O  25,C  37,O  13,Zr  0)     20.8137         0.046325   
    617. D(H  51,C  37,O  25,Zr  3)   -165.9589         0.056309   
    618. D(O  13,C  37,O  25,Zr  3)     13.4935         0.056309   
    619. D(H  51,C  37,O  13,Zr  0)   -159.7340         0.046325   
    620. D(H  50,C  38,O  21,Zr  2)    156.8276         0.047551   
    621. D(O  14,C  38,O  21,Zr  2)    -24.0914         0.047551   
    622. D(H  50,C  38,O  14,Zr  0)    171.4456         0.047811   
    623. D(O  21,C  38,O  14,Zr  0)     -7.6357         0.047811   
    624. D(H  54,C  39,O  29,Zr  4)   -150.0426         0.047064   
    625. D(O  15,C  39,O  29,Zr  4)     30.7876         0.047064   
    626. D(H  54,C  39,O  15,Zr  0)   -166.9042         0.047572   
    627. D(O  29,C  39,O  15,Zr  0)     12.2664         0.047572   
    628. D(H  56,C  40,O  34,Zr  5)    144.8445         0.046043   
    629. D(O  16,C  40,O  34,Zr  5)    -35.9996         0.046043   
    630. D(H  56,C  40,O  16,Zr  1)    164.0483         0.046818   
    631. D(O  34,C  40,O  16,Zr  1)    -15.1085         0.046818   
    632. D(H  48,C  41,O  26,Zr  3)   -172.3693         0.075287   
    633. D(O  17,C  41,O  26,Al 60)    176.8940         0.075287   
    634. D(O  17,C  41,O  26,Zr  3)      8.3911         0.075287   
    635. D(H  48,C  41,O  17,Zr  1)   -178.1346         0.058191   
    636. D(O  26,C  41,O  17,Zr  1)      1.1060         0.058191   
    637. D(H  49,C  42,O  22,Zr  2)    161.9443         0.046003   
    638. D(O  18,C  42,O  22,Zr  2)    -17.3143         0.046003   
    639. D(H  49,C  42,O  18,Zr  1)    152.0877         0.045689   
    640. D(O  22,C  42,O  18,Zr  1)    -28.6541         0.045689   
    641. D(H  52,C  43,O  30,Zr  4)   -179.3819         0.047081   
    642. D(O  19,C  43,O  30,Zr  4)      0.4222         0.047081   
    643. D(H  52,C  43,O  19,Zr  1)   -177.7191         0.046999   
    644. D(O  30,C  43,O  19,Zr  1)      2.4767         0.046999   
    645. D(H  59,C  44,O  35,Zr  5)    158.1486         0.045692   
    646. D(O  20,C  44,O  35,Zr  5)    -21.8902         0.045692   
    647. D(H  59,C  44,O  20,Zr  2)    157.1967         0.045737   
    648. D(O  35,C  44,O  20,Zr  2)    -22.7645         0.045737   
    649. D(H  55,C  45,O  31,Zr  4)   -175.2391         0.047721   
    650. D(O  23,C  45,O  31,Zr  4)      5.9252         0.047721   
    651. D(H  55,C  45,O  23,Zr  2)    172.8020         0.047706   
    652. D(O  31,C  45,O  23,Zr  2)     -8.3626         0.047706   
    653. D(H  57,C  46,O  32,Zr  5)   -176.6669         0.052532   
    654. D(O  24,C  46,O  32,Zr  5)      2.0189         0.052532   
    655. D(H  57,C  46,O  24,Zr  3)   -164.3863         0.061866   
    656. D(O  32,C  46,O  24,Zr  3)     16.9286         0.061866   
    657. D(H  53,C  47,O  28,Zr  4)   -157.2172         0.050422   
    658. D(O  27,C  47,O  28,Zr  4)     22.6439         0.050422   
    659. D(H  53,C  47,O  27,Zr  3)   -154.9581         0.070544   
    660. D(O  28,C  47,O  27,Al 61)   -150.5728         0.070544   
    661. D(O  28,C  47,O  27,Zr  3)     25.1807         0.070544   
    662. D(H  64,Al 60,O  26,Zr  3)    134.2490         0.010000   
    663. D(Al 61,Al 60,O  26,C  41)    -75.3178         0.010000   
    664. D(Al 61,Al 60,O  26,Zr  3)     96.9052         0.010000   
    665. D(H  63,Al 61,Al 60,H  64)    -56.8013         0.010000   
    666. D(H  62,Al 61,Al 60,H  65)   -116.9187         0.010000   
    667. D(H  62,Al 61,Al 60,H  64)   -159.5304         0.010000   
    668. D(H  62,Al 61,O  27,Zr  3)    123.9683         0.010000   
    669. D(Al 60,Al 61,O  27,C  47)   -154.5355         0.010000   
    670. D(Al 60,Al 61,O  27,Zr  3)     29.1078         0.010000   
    671. D(Al 68,H  62,Al 61,H  63)   -132.4269         0.010000   
    672. D(Al 68,H  62,Al 61,Al 60)    -10.8239         0.010000   
    673. D(Al 60,H  64,Al 61,H  63)    133.1746         0.010000   
    674. D(Al 60,H  64,Al 61,H  62)     25.6797         0.010000   
    675. D(Al 61,H  64,Al 60,H  66)    -38.3864         0.010000   
    676. D(Al 61,H  64,Al 60,H  65)   -146.2226         0.010000   
    677. D(Al 68,H  66,Al 60,H  64)     50.3268         0.010000   
    678. D(Al 68,H  66,Al 60,Al 61)     29.3986         0.010000   
    679. D(H  62,Al 68,H  66,Al 60)    -49.9168         0.010000   
    680. D(Al 61,Al 68,H  66,Al 60)    -29.3915         0.010000   
    681. D(H  66,Al 68,H  62,Al 61)     37.5753         0.010000   
    682. D(Al 60,Al 68,H  62,Al 61)     10.9075         0.010000   
    683. D(H  62,Al 68,Al 61,Al 60)    167.4483         0.010000   
    684. D(Al 60,Al 68,Al 61,H  63)   -109.4992         0.010000   
    685. D(Al 60,Al 68,Al 61,H  62)   -167.4483         0.010000   
    686. D(H  62,Al 68,Al 60,Al 61)     -7.2007         0.010000   
    687. D(Al 61,Al 68,Al 60,H  65)    112.3627         0.010000   
    688. D(Al 61,Al 68,Al 60,H  64)      7.6175         0.010000   
    689. D(Al 61,Al 68,O  27,Zr  3)   -108.9923         0.010000   
    690. D(Al 60,Al 68,O  27,C  47)    168.1923         0.010000   
    691. D(Al 60,Al 68,O  27,Zr  3)    -51.9976         0.010000   
    -----------------------------------------------------------------

Number of atoms                         .... 72
Number of degrees of freedom            .... 691


         *************************************************************
         *                GEOMETRY OPTIMIZATION CYCLE   1            *
         *************************************************************
---------------------------------
CARTESIAN COORDINATES (ANGSTROEM)
---------------------------------
  Zr    -0.571984    1.993948    1.550357
  Zr     0.536104   -1.966107   -1.537684
  Zr     1.684400   -1.217591    1.559627
  Zr    -1.711890    1.300253   -1.547525
  Zr     1.707615    1.206247   -1.610115
  Zr    -1.747686   -1.215197    1.541884
  O     -1.562463    0.523313    0.402741
  O      1.517339   -0.459509   -0.400868
  O     -0.018365   -1.870358    0.541024
  O      0.008878    1.926454   -0.543819
  O     -0.031278    0.062759   -2.071953
  O     -0.048373   -0.044874    2.079973
  O     -1.800339    1.780446    3.091221
  O     -1.918458    3.362325    1.047200
  O      0.835174    2.018585    3.029130
  O      0.727212    3.528261    1.088733
  O     -0.512162   -3.656057   -0.957407
  O     -1.099951   -2.064486   -2.736261
  O      2.101818   -3.112194   -1.114171
  O      1.479687   -1.768709   -3.263776
  O      1.069133   -2.016430    3.277698
  O      2.373461    0.288969    2.669318
  O      2.219320   -3.106001    1.210166
  O      3.574523   -0.917312    0.763882
  O     -3.603485    1.059511   -0.746561
  O     -2.190647    3.204291   -1.257037
  O     -2.475799   -0.177767   -2.628787
  O     -1.082044    2.062540   -3.281777
  O      1.104434    2.700187   -2.780063
  O      2.351006    2.675206   -0.376190
  O      2.247610    0.428761   -3.346961
  O      3.588632    0.538894   -1.083195
  O     -3.614629   -0.631011    0.888503
  O     -2.427542   -0.456581    3.228948
  O     -2.271396   -2.788862    0.343805
  O     -1.115772   -2.659556    2.763460
  C     -2.383059    0.767676    3.657722
  C     -2.312886    3.803507   -0.110699
  C      1.912219    1.339713    3.274179
  C      1.830913    3.569434    0.408528
  C     -1.641935   -3.714894   -0.318865
  C     -2.137404   -1.354675   -3.048679
  C      2.457053   -3.611169    0.034816
  C      2.077203   -0.764335   -3.829966
  C     -0.025415   -2.693424    3.474300
  C      4.127664   -0.203837   -0.167044
  C     -4.156362    0.212932    0.065505
  C      0.009333    2.744090   -3.483509
  H     -2.823693   -1.816729   -3.752264
  H      3.023059   -4.544834    0.009473
  H      2.521281    1.711751    4.093662
  H     -2.806349    4.776561   -0.119769
  H      2.485244   -0.945006   -4.824341
  H      0.006337    3.425192   -4.337085
  H      2.410538    4.481360    0.521990
  H      5.210983   -0.248378   -0.194314
  H     -2.141719   -4.680010   -0.354377
  H     -5.241239    0.225310    0.071568
  H     -2.897182    0.970077    4.597200
  H     -0.029262   -3.367150    4.333262
  Al    -5.163409    1.099399   -3.958921
  Al    -3.066688    1.221328   -5.716094
  H     -2.664161    2.793581   -5.305494
  H     -1.667412    0.505851   -5.365477
  H     -4.078754    0.199353   -4.859256
  H     -5.272076    0.100551   -2.701723
  H     -4.658714    2.515186   -3.216561
  H     -3.762388    1.348733   -7.162355
  Al    -3.869766    3.459002   -4.356025
  H     -4.929222    4.134636   -5.364402
  H     -2.915441    4.349311   -3.414257
  H     -6.430345    1.381640   -4.913288

----------------------------
CARTESIAN COORDINATES (A.U.)
----------------------------
  NO LB      ZA    FRAG     MASS         X           Y           Z
   0 Zr   12.0000*   0    91.220   -1.080894    3.768015    2.929750
   1 Zr   12.0000*   0    91.220    1.013089   -3.715405   -2.905802
   2 Zr   12.0000*   0    91.220    3.183054   -2.300914    2.947268
   3 Zr   12.0000*   0    91.220   -3.235004    2.457122   -2.924398
   4 Zr   12.0000*   0    91.220    3.226924    2.279476   -3.042676
   5 Zr   12.0000*   0    91.220   -3.302647   -2.296389    2.913738
   6 O     8.0000    0    15.999   -2.952628    0.988917    0.761071
   7 O     8.0000    0    15.999    2.867356   -0.868345   -0.757531
   8 O     8.0000    0    15.999   -0.034705   -3.534464    1.022386
   9 O     8.0000    0    15.999    0.016778    3.640471   -1.027669
  10 O     8.0000    0    15.999   -0.059107    0.118597   -3.915424
  11 O     8.0000    0    15.999   -0.091411   -0.084799    3.930580
  12 O     8.0000    0    15.999   -3.402148    3.364555    5.841562
  13 O     8.0000    0    15.999   -3.625360    6.353873    1.978922
  14 O     8.0000    0    15.999    1.578249    3.814573    5.724225
  15 O     8.0000    0    15.999    1.374231    6.667448    2.057407
  16 O     8.0000    0    15.999   -0.967847   -6.908946   -1.809238
  17 O     8.0000    0    15.999   -2.078607   -3.901312   -5.170785
  18 O     8.0000    0    15.999    3.971861   -5.881194   -2.105479
  19 O     8.0000    0    15.999    2.796204   -3.342375   -6.167643
  20 O     8.0000    0    15.999    2.020368   -3.810500    6.193952
  21 O     8.0000    0    15.999    4.485192    0.546072    5.044279
  22 O     8.0000    0    15.999    4.193907   -5.869491    2.286883
  23 O     8.0000    0    15.999    6.754869   -1.733468    1.443528
  24 O     8.0000    0    15.999   -6.809599    2.002186   -1.410795
  25 O     8.0000    0    15.999   -4.139723    6.055233   -2.375455
  26 O     8.0000    0    15.999   -4.678582   -0.335931   -4.967688
  27 O     8.0000    0    15.999   -2.044767    3.897635   -6.201659
  28 O     8.0000    0    15.999    2.087078    5.102614   -5.253559
  29 O     8.0000    0    15.999    4.442758    5.055408   -0.710897
  30 O     8.0000    0    15.999    4.247368    0.810241   -6.324839
  31 O     8.0000    0    15.999    6.781531    1.018362   -2.046943
  32 O     8.0000    0    15.999   -6.830660   -1.192439    1.679027
  33 O     8.0000    0    15.999   -4.587390   -0.862813    6.101827
  34 O     8.0000    0    15.999   -4.292317   -5.270186    0.649698
  35 O     8.0000    0    15.999   -2.108504   -5.025833    5.222183
  36 C     6.0000    0    12.011   -4.503328    1.450697    6.912093
  37 C     6.0000    0    12.011   -4.370720    7.187586   -0.209191
  38 C     6.0000    0    12.011    3.613571    2.531692    6.187301
  39 C     6.0000    0    12.011    3.459923    6.745252    0.772007
  40 C     6.0000    0    12.011   -3.102807   -7.020131   -0.602568
  41 C     6.0000    0    12.011   -4.039108   -2.559965   -5.761168
  42 C     6.0000    0    12.011    4.643158   -6.824121    0.065792
  43 C     6.0000    0    12.011    3.925345   -1.444385   -7.237587
  44 C     6.0000    0    12.011   -0.048027   -5.089834    6.565476
  45 C     6.0000    0    12.011    7.800154   -0.385197   -0.315667
  46 C     6.0000    0    12.011   -7.854385    0.402384    0.123786
  47 C     6.0000    0    12.011    0.017637    5.185579   -6.582877
  48 H     1.0000    0     1.008   -5.336006   -3.433120   -7.090751
  49 H     1.0000    0     1.008    5.712754   -8.588491    0.017902
  50 H     1.0000    0     1.008    4.764530    3.234741    7.735901
  51 H     1.0000    0     1.008   -5.303231    9.026393   -0.226330
  52 H     1.0000    0     1.008    4.696431   -1.785802   -9.116683
  53 H     1.0000    0     1.008    0.011974    6.472675   -8.195903
  54 H     1.0000    0     1.008    4.555257    8.468543    0.986418
  55 H     1.0000    0     1.008    9.847330   -0.469367   -0.367200
  56 H     1.0000    0     1.008   -4.047263   -8.843937   -0.669676
  57 H     1.0000    0     1.008   -9.904506    0.425773    0.135243
  58 H     1.0000    0     1.008   -5.474880    1.833180    8.687450
  59 H     1.0000    0     1.008   -0.055297   -6.362992    8.188679
  60 Al   13.0000    0    26.982   -9.757429    2.077563   -7.481276
  61 Al   13.0000    0    26.982   -5.795201    2.307975  -10.801851
  62 H     1.0000    0     1.008   -5.034534    5.279102  -10.025930
  63 H     1.0000    0     1.008   -3.150952    0.955920  -10.139282
  64 H     1.0000    0     1.008   -7.707727    0.376723   -9.182663
  65 H     1.0000    0     1.008   -9.962780    0.190013   -5.105517
  66 H     1.0000    0     1.008   -8.803694    4.753012   -6.078419
  67 H     1.0000    0     1.008   -7.109884    2.548736  -13.534890
  68 Al   13.0000    0    26.982   -7.312799    6.536566   -8.231695
  69 H     1.0000    0     1.008   -9.314880    7.813329  -10.137251
  70 H     1.0000    0     1.008   -5.509386    8.219007   -6.452012
  71 H     1.0000    0     1.008  -12.151592    2.610921   -9.284769
* core charge reduced due to ECP

--------------------------------
INTERNAL COORDINATES (ANGSTROEM)
--------------------------------
 Zr     0   0   0     0.000000000000     0.00000000     0.00000000
 Zr     1   0   0     5.142557411995     0.00000000     0.00000000
 Zr     2   1   0     3.387063460469    49.74102232     0.00000000
 Zr     1   2   3     3.373050511952    50.42778709   179.22223127
 Zr     2   1   3     3.382530672391    50.60066427   259.73489176
 Zr     1   2   3     3.417741281352    49.42655687   279.32613550
 O      6   1   2     2.086712390851    35.76066718   301.68723672
 O      5   2   1     2.067177450263    36.85585356    56.10840734
 O      3   2   1     2.088795449668    37.68670317    70.77895439
 O      4   1   2     2.088204398834    38.59301241   288.92266352
 O      5   2   1     2.131808059313    38.65400150   285.41428981
 O      6   1   2     2.132336966152    37.80374813    76.15005734
 O      1   2   3     1.982095149524   121.15813767   282.61415914
 O      1   2   3     1.984594002581   121.66164072   182.93301802
 O      1   2   3     2.041437862029   107.20237282    13.90183089
 O      1   2   3     2.062795636019   107.61855988    91.76053588
 O      2   1   3     2.071596548025   110.54558306    79.42715163
 O      2   1   3     2.030503020418   102.60055255   156.44213886
 O      2   1   3     1.986035826978   119.09100639   346.69063886
 O      2   1   3     1.977045788359   123.38197993   246.02484879
 O      3   2   1     1.992100763623   126.53654078   100.24842322
 O      3   2   1     1.993976356124   142.47072632   315.05722598
 O      3   2   1     1.993578124902    73.81947607   166.42410466
 O      3   2   1     2.072665567645    89.43288863   246.10671149
 O      4   1   2     2.068243170154    88.70182980   114.98962016
 O      4   1   2     1.984679764420    75.51033330   195.47699334
 O      4   1   2     1.984245117415   141.60654169    48.28357824
 O      4   1   2     1.996350973361   127.78448305   261.05494412
 O      5   2   1     1.991096162385   127.68726088   260.79505936
 O      5   2   1     2.023453926216   141.07099235    41.62836706
 O      5   2   1     1.978057925911    75.20973245   193.42351805
 O      5   2   1     2.064274575339    90.39706364   112.55669317
 O      6   1   2     2.062440052655    92.64890000   250.52297665
 O      6   1   2     1.970758175470    75.82441142   170.11756182
 O      6   1   2     2.045993162388   144.26298232   324.41836838
 O      6   1   2     1.994426571969   124.71442059   100.35785969
 C     34   6   1     1.297933295502   129.35026123     7.68839853
 C     26   4   1     1.299265518285   126.46195251   338.53829724
 C     15   1   2     1.296511950136   134.68509562     4.90672346
 C     16   1   2     1.297123125366   132.59931874   345.31751943
 C     17   2   1     1.299070356393   127.93052213    26.07533943
 C     27   4   1     1.294578046012   138.87556614   298.33698143
 C     23   3   2     1.301215435174   125.10717654    28.63258938
 C     31   5   2     1.298388075821   130.69194142   358.51458166
 C     21   3   2     1.301924483769   126.75634537   343.77717282
 C     32   5   2     1.296741634192   138.09788727   308.25419391
 C     25   4   1     1.296849359372   135.10459698   293.44278263
 C     29   5   2     1.302308864973   126.68544575    14.89589959
 H     42  27   4     1.086056067600   115.57658041   187.63074578
 H     43  23   3     1.092124021912   116.58633518   161.94432571
 H     39  15   1     1.086701997739   115.39543864   171.44559307
 H     38  26   4     1.091065389335   116.52122847   194.04105143
 H     44  31   5     1.089917579277   116.26866466   180.61807395
 H     48  29   5     1.092016998168   116.45819230   202.78276799
 H     40  16   1     1.086484373250   115.20222594   193.09578546
 H     46  32   5     1.084577160180   114.89508005   184.76086805
 H     41  17   2     1.087425630499   115.07801266   164.04827755
 H     47  25   4     1.084964918109   114.98245413   195.61373481
 H     37  34   6     1.089911753239   116.34348529   175.39290382
 H     45  21   3     1.091667593245   116.27615361   157.19674862
 Al    27   4   1     3.259395074901   104.35655142   128.98751045
 Al    61  27   4     2.738386573088    69.38756195    96.90524143
 H     62  61  27     1.674096785225    93.92996429   264.23628432
 H     62  61  27     1.610221492876   120.38872179     6.96537471
 H     61  27   4     1.672472409582    58.26791087   134.24904355
 H     61  27   4     1.609363749308    59.58156762   256.98354875
 H     61  27   4     1.676385465478    84.37393692     3.79426105
 H     62  61  27     1.609939186477   104.42407898   158.19538878
 Al    63  62  61     1.672650735080   109.84884224   349.17611481
 H     69  63  62     1.611133753460   106.59010509   270.93596698
 H     69  63  62     1.609445204990    97.17142405   144.86830891
 H     61  27   4     1.611087664914   163.50029139   159.25926610

---------------------------
INTERNAL COORDINATES (A.U.)
---------------------------
 Zr     0   0   0     0.000000000000     0.00000000     0.00000000
 Zr     1   0   0     9.718025136637     0.00000000     0.00000000
 Zr     2   1   0     6.400622338498    49.74102232     0.00000000
 Zr     1   2   3     6.374141703472    50.42778709   179.22223127
 Zr     2   1   3     6.392056610407    50.60066427   259.73489176
 Zr     1   2   3     6.458595018353    49.42655687   279.32613550
 O      6   1   2     3.943314938969    35.76066718   301.68723672
 O      5   2   1     3.906399251215    36.85585356    56.10840734
 O      3   2   1     3.947251349653    37.68670317    70.77895439
 O      4   1   2     3.946134425446    38.59301241   288.92266352
 O      5   2   1     4.028533402187    38.65400150   285.41428981
 O      6   1   2     4.029532891265    37.80374813    76.15005734
 O      1   2   3     3.745617003974   121.15813767   282.61415914
 O      1   2   3     3.750339151901   121.66164072   182.93301802
 O      1   2   3     3.857758478652   107.20237282    13.90183089
 O      1   2   3     3.898118822324   107.61855988    91.76053588
 O      2   1   3     3.914750135744   110.54558306    79.42715163
 O      2   1   3     3.837094622689   102.60055255   156.44213886
 O      2   1   3     3.753063805144   119.09100639   346.69063886
 O      2   1   3     3.736075094221   123.38197993   246.02484879
 O      3   2   1     3.764524874424   126.53654078   100.24842322
 O      3   2   1     3.768069230589   142.47072632   315.05722598
 O      3   2   1     3.767316682642    73.81947607   166.42410466
 O      3   2   1     3.916770290058    89.43288863   246.10671149
[...]

* The epsilon (eps) is given for a Dirac delta lineshape.
** The dipole moment derivative (T) already includes vibrational overlap.

The first frequency considered to be a vibration is 8
The total number of vibrations considered is 208


--------------------------
THERMOCHEMISTRY AT 298.15K
--------------------------

Temperature         ...   298.15 K
Pressure            ...     1.00 atm
Total Mass          ...  1273.54 AMU
Quasi RRHO          ...     True
Cut-Off Frequency   ...     1.00 cm^-1

Throughout the following assumptions are being made:
  (1) The electronic state is orbitally nondegenerate
  (2) There are no thermally accessible electronically excited states
  (3) Hindered rotations indicated by low frequency modes are not
      treated as such but are treated as vibrations and this may
      cause some error
  (4) All equations used are the standard statistical mechanics
      equations for an ideal gas
  (5) All vibrations are strictly harmonic

freq.       5.78  E(vib)   ...       0.58 
freq.      17.59  E(vib)   ...       0.57 
freq.      21.56  E(vib)   ...       0.56 
freq.      27.34  E(vib)   ...       0.55 
freq.      33.86  E(vib)   ...       0.55 
freq.      36.01  E(vib)   ...       0.54 
freq.      41.46  E(vib)   ...       0.54 
freq.      51.69  E(vib)   ...       0.52 
freq.      53.12  E(vib)   ...       0.52 
freq.      64.19  E(vib)   ...       0.51 
freq.      78.17  E(vib)   ...       0.49 
freq.      79.60  E(vib)   ...       0.49 
freq.      85.66  E(vib)   ...       0.48 
freq.      90.58  E(vib)   ...       0.47 
freq.      97.05  E(vib)   ...       0.46 
freq.      99.43  E(vib)   ...       0.46 
freq.     100.47  E(vib)   ...       0.46 
freq.     103.19  E(vib)   ...       0.46 
freq.     104.50  E(vib)   ...       0.46 
freq.     108.51  E(vib)   ...       0.45 
freq.     109.38  E(vib)   ...       0.45 
freq.     115.95  E(vib)   ...       0.44 
freq.     118.32  E(vib)   ...       0.44 
freq.     126.48  E(vib)   ...       0.43 
freq.     140.25  E(vib)   ...       0.41 
freq.     144.24  E(vib)   ...       0.41 
freq.     147.94  E(vib)   ...       0.41 
freq.     149.55  E(vib)   ...       0.40 
freq.     151.92  E(vib)   ...       0.40 
freq.     152.67  E(vib)   ...       0.40 
freq.     154.15  E(vib)   ...       0.40 
freq.     157.33  E(vib)   ...       0.40 
freq.     160.91  E(vib)   ...       0.39 
freq.     163.42  E(vib)   ...       0.39 
freq.     165.26  E(vib)   ...       0.39 
freq.     166.53  E(vib)   ...       0.39 
freq.     168.67  E(vib)   ...       0.38 
freq.     169.91  E(vib)   ...       0.38 
freq.     171.85  E(vib)   ...       0.38 
freq.     185.23  E(vib)   ...       0.37 
freq.     188.09  E(vib)   ...       0.36 
freq.     188.74  E(vib)   ...       0.36 
freq.     189.47  E(vib)   ...       0.36 
freq.     192.55  E(vib)   ...       0.36 
freq.     194.96  E(vib)   ...       0.36 
freq.     196.68  E(vib)   ...       0.36 
freq.     203.92  E(vib)   ...       0.35 
freq.     208.85  E(vib)   ...       0.34 
freq.     212.10  E(vib)   ...       0.34 
freq.     213.64  E(vib)   ...       0.34 
freq.     229.79  E(vib)   ...       0.32 
freq.     230.85  E(vib)   ...       0.32 
freq.     234.16  E(vib)   ...       0.32 
freq.     236.73  E(vib)   ...       0.32 
freq.     243.16  E(vib)   ...       0.31 
freq.     257.11  E(vib)   ...       0.30 
freq.     259.04  E(vib)   ...       0.30 
freq.     259.68  E(vib)   ...       0.30 
freq.     261.46  E(vib)   ...       0.30 
freq.     262.75  E(vib)   ...       0.29 
freq.     264.92  E(vib)   ...       0.29 
freq.     265.32  E(vib)   ...       0.29 
freq.     266.41  E(vib)   ...       0.29 
freq.     270.65  E(vib)   ...       0.29 
freq.     272.48  E(vib)   ...       0.29 
freq.     274.11  E(vib)   ...       0.28 
freq.     275.43  E(vib)   ...       0.28 
freq.     277.15  E(vib)   ...       0.28 
freq.     280.17  E(vib)   ...       0.28 
freq.     281.17  E(vib)   ...       0.28 
freq.     284.93  E(vib)   ...       0.28 
freq.     289.65  E(vib)   ...       0.27 
freq.     291.78  E(vib)   ...       0.27 
freq.     292.98  E(vib)   ...       0.27 
freq.     294.30  E(vib)   ...       0.27 
freq.     302.26  E(vib)   ...       0.26 
freq.     305.41  E(vib)   ...       0.26 
freq.     308.25  E(vib)   ...       0.26 
freq.     308.71  E(vib)   ...       0.26 
freq.     309.58  E(vib)   ...       0.26 
freq.     314.77  E(vib)   ...       0.25 
freq.     315.93  E(vib)   ...       0.25 
freq.     318.09  E(vib)   ...       0.25 
freq.     321.27  E(vib)   ...       0.25 
freq.     325.42  E(vib)   ...       0.24 
freq.     329.04  E(vib)   ...       0.24 
freq.     338.92  E(vib)   ...       0.23 
freq.     340.47  E(vib)   ...       0.23 
freq.     349.82  E(vib)   ...       0.23 
freq.     351.81  E(vib)   ...       0.23 
freq.     360.09  E(vib)   ...       0.22 
freq.     365.57  E(vib)   ...       0.22 
freq.     370.32  E(vib)   ...       0.21 
freq.     385.02  E(vib)   ...       0.20 
freq.     395.70  E(vib)   ...       0.20 
freq.     398.24  E(vib)   ...       0.20 
freq.     401.37  E(vib)   ...       0.19 
freq.     402.35  E(vib)   ...       0.19 
freq.     405.85  E(vib)   ...       0.19 
freq.     412.35  E(vib)   ...       0.19 
freq.     416.09  E(vib)   ...       0.18 
freq.     417.89  E(vib)   ...       0.18 
freq.     421.47  E(vib)   ...       0.18 
freq.     423.98  E(vib)   ...       0.18 
freq.     428.31  E(vib)   ...       0.18 
freq.     474.69  E(vib)   ...       0.15 
freq.     480.04  E(vib)   ...       0.15 
freq.     483.73  E(vib)   ...       0.15 
freq.     490.43  E(vib)   ...       0.15 
freq.     495.30  E(vib)   ...       0.14 
freq.     525.47  E(vib)   ...       0.13 
freq.     540.71  E(vib)   ...       0.12 
freq.     545.63  E(vib)   ...       0.12 
freq.     626.21  E(vib)   ...       0.09 
freq.     677.13  E(vib)   ...       0.08 
freq.     679.68  E(vib)   ...       0.08 
freq.     682.88  E(vib)   ...       0.08 
freq.     685.27  E(vib)   ...       0.07 
freq.     689.60  E(vib)   ...       0.07 
freq.     693.52  E(vib)   ...       0.07 
freq.     716.61  E(vib)   ...       0.07 
freq.     731.87  E(vib)   ...       0.06 
freq.     733.24  E(vib)   ...       0.06 
freq.     733.41  E(vib)   ...       0.06 
freq.     734.43  E(vib)   ...       0.06 
freq.     735.83  E(vib)   ...       0.06 
freq.     736.09  E(vib)   ...       0.06 
freq.     738.24  E(vib)   ...       0.06 
freq.     738.44  E(vib)   ...       0.06 
freq.     738.83  E(vib)   ...       0.06 
freq.     739.25  E(vib)   ...       0.06 
freq.     739.72  E(vib)   ...       0.06 
freq.     741.85  E(vib)   ...       0.06 
freq.     741.98  E(vib)   ...       0.06 
freq.     743.01  E(vib)   ...       0.06 
freq.     782.01  E(vib)   ...       0.05 
freq.     917.04  E(vib)   ...       0.03 
freq.     983.15  E(vib)   ...       0.02 
freq.     996.04  E(vib)   ...       0.02 
freq.     998.62  E(vib)   ...       0.02 
freq.     999.02  E(vib)   ...       0.02 
freq.     999.57  E(vib)   ...       0.02 
freq.    1000.90  E(vib)   ...       0.02 
freq.    1001.42  E(vib)   ...       0.02 
freq.    1003.91  E(vib)   ...       0.02 
freq.    1005.25  E(vib)   ...       0.02 
freq.    1005.45  E(vib)   ...       0.02 
freq.    1006.12  E(vib)   ...       0.02 
freq.    1006.40  E(vib)   ...       0.02 
freq.    1006.73  E(vib)   ...       0.02 
freq.    1077.57  E(vib)   ...       0.02 
freq.    1348.56  E(vib)   ...       0.01 
freq.    1351.46  E(vib)   ...       0.01 
freq.    1351.90  E(vib)   ...       0.01 
freq.    1353.41  E(vib)   ...       0.01 
freq.    1353.69  E(vib)   ...       0.01 
freq.    1354.39  E(vib)   ...       0.01 
freq.    1354.98  E(vib)   ...       0.01 
freq.    1356.01  E(vib)   ...       0.01 
freq.    1356.35  E(vib)   ...       0.01 
freq.    1358.15  E(vib)   ...       0.01 
freq.    1358.55  E(vib)   ...       0.01 
freq.    1359.36  E(vib)   ...       0.01 
freq.    1360.38  E(vib)   ...       0.01 
freq.    1361.67  E(vib)   ...       0.01 
freq.    1363.52  E(vib)   ...       0.01 
freq.    1364.08  E(vib)   ...       0.01 
freq.    1364.56  E(vib)   ...       0.01 
freq.    1365.19  E(vib)   ...       0.01 
freq.    1365.51  E(vib)   ...       0.01 
freq.    1367.17  E(vib)   ...       0.01 
freq.    1367.41  E(vib)   ...       0.01 
freq.    1371.30  E(vib)   ...       0.01 
freq.    1371.60  E(vib)   ...       0.01 
freq.    1380.13  E(vib)   ...       0.01 
freq.    1536.75  E(vib)   ...       0.00 
freq.    1545.24  E(vib)   ...       0.00 
freq.    1561.30  E(vib)   ...       0.00 
freq.    1563.66  E(vib)   ...       0.00 
freq.    1567.47  E(vib)   ...       0.00 
freq.    1574.83  E(vib)   ...       0.00 
freq.    1576.15  E(vib)   ...       0.00 
freq.    1630.34  E(vib)   ...       0.00 
freq.    1631.93  E(vib)   ...       0.00 
freq.    1634.63  E(vib)   ...       0.00 
freq.    1636.43  E(vib)   ...       0.00 
freq.    1637.90  E(vib)   ...       0.00 
freq.    1661.21  E(vib)   ...       0.00 
freq.    1757.02  E(vib)   ...       0.00 
freq.    1783.41  E(vib)   ...       0.00 
freq.    1875.48  E(vib)   ...       0.00 
freq.    1881.03  E(vib)   ...       0.00 
freq.    1887.60  E(vib)   ...       0.00 
freq.    1897.11  E(vib)   ...       0.00 
freq.    1902.46  E(vib)   ...       0.00 
freq.    1907.72  E(vib)   ...       0.00 
freq.    2884.34  E(vib)   ...       0.00 
freq.    2887.09  E(vib)   ...       0.00 
freq.    2890.53  E(vib)   ...       0.00 
freq.    2893.61  E(vib)   ...       0.00 
freq.    2894.75  E(vib)   ...       0.00 
freq.    2897.09  E(vib)   ...       0.00 
freq.    2905.21  E(vib)   ...       0.00 
freq.    2906.52  E(vib)   ...       0.00 
freq.    2907.08  E(vib)   ...       0.00 
freq.    2908.63  E(vib)   ...       0.00 
freq.    2909.57  E(vib)   ...       0.00 
freq.    2910.69  E(vib)   ...       0.00 

------------
INNER ENERGY
------------

The inner energy is: U= E(el) + E(ZPE) + E(vib) + E(rot) + E(trans)
    E(el)   - is the total energy from the electronic structure calculation
              = E(kin-el) + E(nuc-el) + E(el-el) + E(nuc-nuc)
    E(ZPE)  - the the zero temperature vibrational energy from the frequency calculation
    E(vib)  - the the finite temperature correction to E(ZPE) due to population
              of excited vibrational states
    E(rot)  - is the rotational thermal energy
    E(trans)- is the translational thermal energy

Summary of contributions to the inner energy U:
Electronic energy                ...  -3732.51444468 Eh
Zero point energy                ...      0.37023789 Eh     232.33 kcal/mol
Thermal vibrational correction   ...      0.06176235 Eh      38.76 kcal/mol
Thermal rotational correction    ...      0.00141627 Eh       0.89 kcal/mol
Thermal translational correction ...      0.00141627 Eh       0.89 kcal/mol
-----------------------------------------------------------------------
Total thermal energy                  -3732.07961189 Eh


Summary of corrections to the electronic energy:
(perhaps to be used in another calculation)
Total thermal correction                  0.06459489 Eh      40.53 kcal/mol
Non-thermal (ZPE) correction              0.37023789 Eh     232.33 kcal/mol
-----------------------------------------------------------------------
Total correction                          0.43483278 Eh     272.86 kcal/mol


--------
ENTHALPY
--------

The enthalpy is H = U + kB*T
                kB is Boltzmann's constant
Total thermal energy              ...  -3732.07961189 Eh 
Thermal Enthalpy correction       ...      0.00094421 Eh       0.59 kcal/mol
-----------------------------------------------------------------------
Total Enthalpy                    ...  -3732.07866769 Eh


Note: Only C1 symmetry has been detected, increase convergence thresholds 
      if your molecule has a higher symmetry. Symmetry factor of 1.0 is   
      used for the rotational entropy correction. 
 

Note: Rotational entropy computed according to Herzberg 
Infrared and Raman Spectra, Chapter V,1, Van Nostrand Reinhold, 1945 
Point Group:  C1, Symmetry Number:   1  
Rotational constants in cm-1:     0.001777     0.001273     0.001234 

Vibrational entropy computed according to the QRRHO of S. Grimme
Chem.Eur.J. 2012 18 9955 using a reference frequency of 100.0 cm-1


-------
ENTROPY
-------

The entropy contributions are T*S = T*(S(el)+S(vib)+S(rot)+S(trans))
     S(el)   - electronic entropy
     S(vib)  - vibrational entropy
     S(rot)  - rotational entropy
     S(trans)- translational entropy
The entropies will be listed as multiplied by the temperature to get
units of energy

Electronic entropy                ...      0.00000000 Eh      0.00 kcal/mol
Vibrational entropy               ...      0.11196939 Eh     70.26 kcal/mol
Rotational entropy                ...      0.01880930 Eh     11.80 kcal/mol
Translational entropy             ...      0.02247478 Eh     14.10 kcal/mol
-----------------------------------------------------------------------
Final entropy term                ...      0.15325348 Eh     96.17 kcal/mol

In case the symmetry of your molecule has not been determined correctly
or in case you have a reason to use a different symmetry number we print 
out the resulting rotational entropy values for sn=1,12:

 non-linear molecules -----------------------------------
|  sn= 1 | S(rot)=       0.01880930 Eh     11.80 kcal/mol|
|  sn= 2 | S(rot)=       0.01815485 Eh     11.39 kcal/mol|
|  sn= 3 | S(rot)=       0.01777201 Eh     11.15 kcal/mol|
|  sn= 4 | S(rot)=       0.01750039 Eh     10.98 kcal/mol|
|  sn= 5 | S(rot)=       0.01728970 Eh     10.85 kcal/mol|
|  sn= 6 | S(rot)=       0.01711756 Eh     10.74 kcal/mol|
|  sn= 7 | S(rot)=       0.01697201 Eh     10.65 kcal/mol|
|  sn= 8 | S(rot)=       0.01684593 Eh     10.57 kcal/mol|
|  sn= 9 | S(rot)=       0.01673473 Eh     10.50 kcal/mol|
|  sn=10 | S(rot)=       0.01663525 Eh     10.44 kcal/mol|
|  sn=11 | S(rot)=       0.01654526 Eh     10.38 kcal/mol|
|  sn=12 | S(rot)=       0.01646310 Eh     10.33 kcal/mol|
 linear molecules ---------------------------------------
|  Dinfh | S(rot)=       0.01164907 Eh      7.31 kcal/mol|
|  Cinfv | S(rot)=       0.01230353 Eh      7.72 kcal/mol|
 --------------------------------------------------------


-------------------
GIBBS FREE ENERGY
-------------------

The Gibbs free energy is G = H - T*S

Total enthalpy                    ...  -3732.07866769 Eh 
Total entropy correction          ...     -0.15325348 Eh    -96.17 kcal/mol
-----------------------------------------------------------------------
Final Gibbs free energy         ...  -3732.23192116 Eh

For completeness - the Gibbs free energy minus the electronic energy
G-E(el)                           ...      0.28252351 Eh    177.29 kcal/mol


Maximum memory used throughout the entire PROP-calculation: 143.5 MB

--------------------------------
SUGGESTED CITATIONS FOR THIS RUN
--------------------------------

Below you find a list of papers that are relevant to this ORCA run
We neither can nor want to force you to cite these papers, but we appreciate if you do
You receive ORCA, which is the product of decades of hard work by many enthusiastic individuals, for free
The only thing we kindly ask in return is that you cite our papers,
We deeply appreciate it, if you show your appreciation for ORCA by not just citing the generic ORCA reference.

Please note that relegating all ORCA citations to the supporting information does *not* help us.
SI sections are not indexed - citations you put there will not count into any citation statistics
But we need these citations in order to attract the funding resources that allow us to do what we are doing

Therefore, if you are a happy ORCA user, please consider citing a few of the papers listed below in the main body of your paper

In addition to the list printed below, the program has created the file run.bibtex that contains the list in bibtex format
You can import this file easily into all common literature databanks and citation aid programs


List of essential papers. We consider these as the minimum necessary citations

  1. Neese, F.
     Software update: the ORCA program system, version 6.0
     WIRES Comput. Molec. Sci. 2025 15(1), e70019
     doi.org/10.1002/wcms.7019

List of papers to cite with high priority. The work reported in these papers was absolutely
necessary for this run to complete.
Our perspective: the developers of density functionals and basis sets usually get cited in chemistry papers
Good! But without the algorithms to do something with them, the functionals or basis sets would not do anything.
Hence, in our opinion, the algorithm design and method developments papers are equally worthy of getting cited

  1. Neese, F.
     An improvement of the resolution of the identity approximation for the formation of the Coulomb matrix
     J. Comp. Chem. 2003 24(14), 1740-1747
     doi.org/10.1002/jcc.10318
  2. Grimme, S.; Antony, J.; Ehrlich, S.; Krieg, H.
     A consistent and accurate ab initio parametrization of density functional dispersion correction (DFT-D) for the 94 elements H-Pu
     J. Chem. Phys. 2010 132 , 154104
     doi.org/10.1063/1.3382344
  3. Grimme, S.; Ehrlich, S.; Goerigk, L.
     Effect of the damping function in dispersion corrected density functional theory
     J. Comput. Chem. 2011 32(7), 1456-1465
     doi.org/10.1002/jcc.21759
  4. Bykov, D.; Petrenko, T.; Izsak, R.; Kossmann, S.; Becker, U.; Valeev, E.; Neese, F.
     Efficient implementation of the analytic second derivatives of Hartree-Fock and hybrid DFT energies: a detailed analysis of different approximations
     Molec. Phys. 2015 113 , 1961-1977
     doi.org/10.1080/00268976.2015.1025114
  5. Helmich-Paris, B.
     A trust-region augmented Hessian implementation for restricted and unrestricted Hartree–Fock and Kohn–Sham methods
     J. Chem. Phys. 2021 154 , 164104
     doi.org/10.1063/5.0040798
  6. Neese, F.
     The SHARK Integral Generation and Digestion System
     J. Comp. Chem. 2022 44(3), 381
     doi.org/10.1002/jcc.26942

List of suggested additional citations. These are papers that are important in the 'surrounding' of 
of this run, or papers that preceded the highly important papers. If you like your results we are grateful for a citation.

  1. Neese, F.
     The ORCA program system
     WIRES Comput. Molec. Sci. 2012 2(1), 73-78
     doi.org/10.1002/wcms.81
  2. Neese, F.
     Software update: the ORCA program system, version 4.0
     WIRES Comput. Molec. Sci. 2018 8(1), 1-6
     doi.org/10.1002/wcms.1327
  3. Neese, F.; Wennmohs, F.; Becker, U.; Riplinger, C.
     The ORCA quantum chemistry program package
     J. Chem. Phys. 2020 152(22), 224108
     doi.org/10.1063/5.0004608
  4. Neese, F.
     Software update: The ORCA program system—Version 5.0
     WIRES Comput. Molec. Sci. 2022 12(1), e1606
     doi.org/10.1002/wcms.1606

List of optional additional citations

  1. Neese, F.
     Approximate second-order SCF convergence for spin unrestricted wavefunctions
     Chem. Phys. Lett. 2000 325(1-3), 93-98
     doi.org/10.1016/s0009-2614(00)00662-x

Timings for individual modules:

Sum of individual times          ...     8442.359 sec (= 140.706 min)
Startup calculation              ...      329.326 sec (=   5.489 min)   3.9 %
SCF iterations                   ...     2267.862 sec (=  37.798 min)  26.9 %
Property integrals               ...     1959.951 sec (=  32.666 min)  23.2 %
SCF Response                     ...     1317.174 sec (=  21.953 min)  15.6 %
Property calculations            ...     1745.235 sec (=  29.087 min)  20.7 %
SCF Gradient evaluation          ...      813.142 sec (=  13.552 min)   9.6 %
Geometry relaxation              ...        9.669 sec (=   0.161 min)   0.1 %
                             ****ORCA TERMINATED NORMALLY****
TOTAL RUN TIME: 0 days 2 hours 21 minutes 5 seconds 519 msec
