
     Program PWSCF v.7.3.1 starts on  4Jun2025 at 14:49:17 

     This program is part of the open-source Quantum ESPRESSO suite
     for quantum simulation of materials; please cite
         "P. Giannozzi et al., J. Phys.:Condens. Matter 21 395502 (2009);
         "P. Giannozzi et al., J. Phys.:Condens. Matter 29 465901 (2017);
         "P. Giannozzi et al., J. Chem. Phys. 152 154105 (2020);
          URL http://www.quantum-espresso.org", 
     in publications or presentations arising from this work. More details at
     http://www.quantum-espresso.org/quote

     Parallel version (MPI), running on   256 processors

     MPI processes distributed on     1 nodes
     1533580 MiB available memory on the printing compute node when the environment starts

     Waiting for input...
     Reading input from standard input

     Current dimensions of program PWSCF are:
     Max number of different atomic species (ntypx) = 10
     Max number of k-points (npk) =  40000
     Max angular momentum in pseudopotentials (lmaxx) =  4
     file H.pbe-kjpaw_psl.1.0.0.UPF: wavefunction(s)  1S renormalized
     file Zr.pbe-spn-kjpaw_psl.1.0.0.UPF: wavefunction(s)  4S 4P renormalized
     file C.pbe-n-kjpaw_psl.1.0.0.UPF: wavefunction(s)  2S 2P renormalized
     file O.pbe-n-kjpaw_psl.1.0.0.UPF: wavefunction(s)  2S 2P renormalized

     IMPORTANT: XC functional enforced from input :
     Exchange-correlation= PBE
                           (   1   4   3   4   0   0   0)
     Any further DFT definition will be discarded
     Please, verify this is what you really want


     gamma-point specific algorithms are used
     Message from routine setup:
     using ibrav=0 with symmetry is DISCOURAGED, use correct ibrav instead

     R & G space division:  proc/nbgrp/npool/nimage =     256
     WARNING: too many processors for an effective parallelization!
     wavefunctions fft division:  task group distribution
                                  #TG    x Z-proc =       8     32
     Subspace diagonalization in iterative solution of the eigenvalue problem:
     one sub-group per band group will be used
     custom distributed-memory algorithm (size of sub-group:  2*  2 procs)


     Parallelization info
     --------------------
     sticks:   dense  smooth     PW     G-vecs:    dense   smooth      PW
     Min          98      48     11                10600     3734     462
     Max         100      50     14                10632     3766     480
     Sum       25467   12741   3173              2717939   961243  120211

     Using Pencil Decomposition


     Title: 
     UiO-66-dehydrox ecut convergence                                           


     bravais-lattice index     =            0
     lattice parameter (alat)  =      27.5901  a.u.
     unit-cell volume          =   15305.9057 (a.u.)^3
     number of atoms/cell      =          108
     number of atomic types    =            4
     number of electrons       =       468.00
     number of Kohn-Sham states=          234
     kinetic-energy cutoff     =      60.0000  Ry
     charge density cutoff     =     480.0000  Ry
     scf convergence threshold =      1.0E-08
     mixing beta               =       0.7000
     number of iterations used =            8  plain     mixing
     Exchange-correlation= PBE
                           (   1   4   3   4   0   0   0)

     celldm(1)=  27.590096  celldm(2)=   0.000000  celldm(3)=   0.000000
     celldm(4)=   0.000000  celldm(5)=   0.000000  celldm(6)=   0.000000

     crystal axes: (cart. coord. in units of alat)
               a(1) = (   0.997811   0.000095   0.000068 )  
               a(2) = (   0.473418   0.878352   0.000068 )  
               a(3) = (   0.473418   0.282670   0.831625 )  

     reciprocal axes: (cart. coord. in units 2 pi/alat)
               b(1) = (  1.002272 -0.540179 -0.386954 )  
               b(2) = ( -0.000082  1.138570 -0.386954 )  
               b(3) = ( -0.000082 -0.000049  1.202527 )  


     PseudoPot. # 1 for H  read from file:
     /home/mehlhorn/pseudos/UiO-66_pbe-spn-kjpaw/H.pbe-kjpaw_psl.1.0.0.UPF
     MD5 check sum: d81a744832360e4a8af0b0b5b123bc2a
     Pseudo is Projector augmented-wave, Zval =  1.0
     Generated using &quot;atomic&quot; code by A. Dal Corso  v.6.3MaX
     Shape of augmentation charge: PSQ
     Using radial grid of  929 points,  2 beta functions with: 
                l(1) =   0
                l(2) =   0
     Q(r) pseudized with 0 coefficients 


     PseudoPot. # 2 for Zr read from file:
     /home/mehlhorn/pseudos/UiO-66_pbe-spn-kjpaw/Zr.pbe-spn-kjpaw_psl.1.0.0.UPF
     MD5 check sum: 02112c41713a0468aff2bb39ef194e36
     Pseudo is Projector augmented-wave + core cor, Zval = 12.0
     Generated using &quot;atomic&quot; code by A. Dal Corso  v.6.2.2
     Shape of augmentation charge: PSQ
     Using radial grid of 1225 points,  6 beta functions with: 
                l(1) =   0
                l(2) =   0
                l(3) =   1
                l(4) =   1
                l(5) =   2
                l(6) =   2
     Q(r) pseudized with 0 coefficients 


     PseudoPot. # 3 for C  read from file:
     /home/mehlhorn/pseudos/UiO-66_pbe-spn-kjpaw/C.pbe-n-kjpaw_psl.1.0.0.UPF
     MD5 check sum: 5f16ad9a65e90284d1d834d4ab3b0f7d
     Pseudo is Projector augmented-wave + core cor, Zval =  4.0
     Generated using &quot;atomic&quot; code by A. Dal Corso  v.6.3
     Shape of augmentation charge: PSQ
     Using radial grid of 1073 points,  4 beta functions with: 
                l(1) =   0
                l(2) =   0
                l(3) =   1
                l(4) =   1
     Q(r) pseudized with 0 coefficients 


     PseudoPot. # 4 for O  read from file:
     /home/mehlhorn/pseudos/UiO-66_pbe-spn-kjpaw/O.pbe-n-kjpaw_psl.1.0.0.UPF
     MD5 check sum: e99d9cef9b487d1ca56f5b95ecd0fd7a
     Pseudo is Projector augmented-wave + core cor, Zval =  6.0
     Generated using &quot;atomic&quot; code by A. Dal Corso  v.6.3
     Shape of augmentation charge: PSQ
     Using radial grid of 1095 points,  4 beta functions with: 
                l(1) =   0
                l(2) =   0
                l(3) =   1
                l(4) =   1
     Q(r) pseudized with 0 coefficients 


     atomic species   valence    mass     pseudopotential
     H                 1.00     1.00750     H ( 1.00)
     Zr               12.00    91.22400     Zr( 1.00)
     C                 4.00    12.01060     C ( 1.00)
     O                 6.00    15.99900     O ( 1.00)

      2 Sym. Ops., with inversion, found



   Cartesian axes

     site n.     atom                  positions (alat units)
         1        Zr     tau(   1) = (   0.9852659   0.1391165   0.1016774  )
         2        Zr     tau(   2) = (   0.9593800   1.0219995   0.7300832  )
         3        Zr     tau(   3) = (   0.5915364   0.8004519   0.0990038  )
         4        Zr     tau(   4) = (   1.3531095   0.3606647   0.7327560  )
         5        Zr     tau(   5) = (   0.5898506   0.3541049   0.7260346  )
         6        Zr     tau(   6) = (   1.3547948   0.8070120   0.1057261  )
         7        O      tau(   7) = (   1.0815009   0.2537230   0.0705430  )
         8        O      tau(   8) = (   0.8631454   0.9073939   0.7612177  )
         9        O      tau(   9) = (   0.6436974   0.8816624   0.2175348  )
        10        O      tau(  10) = (   1.3009490   0.2794545   0.6142259  )
        11        O      tau(  11) = (   0.7363929   0.3343915   0.7647879  )
        12        O      tau(  12) = (   1.2082534   0.8267253   0.0669728  )
        13        O      tau(  13) = (   1.2131515   0.3069746   0.7632956  )
        14        O      tau(  14) = (   0.7314949   0.8541423   0.0684650  )
        15        O      tau(  15) = (   1.2986500   0.6782809   0.0450667  )
        16        O      tau(  16) = (   0.6459963   0.4828360   0.7866940  )
        17        O      tau(  17) = (   0.8457252   1.0194663   0.6277144  )
        18        O      tau(  18) = (   1.0989212   0.1416505   0.2040462  )
        19        O      tau(  19) = (   1.0498340   1.0175668   0.6103351  )
        20        O      tau(  20) = (   0.8948124   0.1435500   0.2214255  )
        21        O      tau(  21) = (   1.2949517   0.4947549   0.7670887  )
        22        O      tau(  22) = (   0.6496947   0.6663620   0.0646719  )
        23        O      tau(  23) = (   1.3938012   0.7199281   0.2216396  )
        24        O      tau(  24) = (   0.5508451   0.4411887   0.6101210  )
        25        O      tau(  25) = (   0.5501420   0.7117654   0.2154865  )
        26        O      tau(  26) = (   1.3945044   0.4493515   0.6162741  )
        27        O      tau(  27) = (   0.6421838   0.2788829   0.6045867  )
        28        O      tau(  28) = (   1.3024626   0.8822340   0.2271739  )
        29        O      tau(  29) = (   0.8875580   0.2512166   0.0695320  )
        30        O      tau(  30) = (   1.0570884   0.9099003   0.7622287  )
        31        O      tau(  31) = (   0.8780916   0.0527540   0.0396841  )
        32        O      tau(  32) = (   1.0665548   1.1083629   0.7920765  )
        33        O      tau(  33) = (   0.4645615   0.7471295   0.0371800  )
        34        O      tau(  34) = (   1.4800849   0.4139874   0.7945806  )
        35        O      tau(  35) = (   0.4629831   0.2782326   0.6954400  )
        36        O      tau(  36) = (   1.4816633   0.8828843   0.1363206  )
        37        C      tau(  37) = (   1.3138849   0.9632768   0.2572416  )
        38        C      tau(  38) = (   0.6307615   0.1978401   0.5745190  )
        39        C      tau(  39) = (   1.1105248   0.8940821   0.8292899  )
        40        C      tau(  40) = (   0.8341216   0.2670348   0.0024707  )
        41        C      tau(  41) = (   1.4712652   0.4686861   0.5797204  )
        42        C      tau(  42) = (   0.4733812   0.6924307   0.2520402  )
        43        C      tau(  43) = (   0.8011685   0.8979312   0.8218554  )
        44        C      tau(  44) = (   1.1434779   0.2631857   0.0099052  )
        45        C      tau(  45) = (   1.3194096   0.1991063   0.5857568  )
        46        C      tau(  46) = (   0.6252368   0.9620105   0.2460038  )
        47        C      tau(  47) = (   1.1705234   0.8680279   0.0000530  )
        48        C      tau(  48) = (   0.7741230   0.2930890   0.8317076  )
        49        C      tau(  49) = (   1.1901821   0.3542709   0.0042607  )
        50        C      tau(  50) = (   0.7544643   0.8068459   0.8274999  )
        51        C      tau(  51) = (   0.6684850   0.9917614   0.3340617  )
        52        C      tau(  52) = (   1.2761614   0.1693554   0.4976989  )
        53        C      tau(  53) = (   0.8764628   0.2870708   0.8315422  )
        54        C      tau(  54) = (   1.0681836   0.8740461   0.0002184  )
        55        C      tau(  55) = (   0.6846073   0.1688107   0.4923400  )
        56        C      tau(  56) = (   1.2600391   0.9923062   0.3394206  )
        57        C      tau(  57) = (   0.7829458   0.3557781   0.0014271  )
        58        C      tau(  58) = (   1.1617006   0.8053387   0.8303335  )
        59        C      tau(  59) = (   0.4733672   0.6343036   0.3364008  )
        60        C      tau(  60) = (   1.4712792   0.5268133   0.4953598  )
        61        C      tau(  61) = (   1.1610459   0.4268417   0.0601353  )
        62        C      tau(  62) = (   0.7836004   0.7342752   0.7716254  )
        63        C      tau(  63) = (   0.7217909   0.9299379   0.3847974  )
        64        C      tau(  64) = (   1.2228555   0.2311790   0.4469632  )
        65        C      tau(  65) = (   0.9265277   0.3206439   0.7566835  )
        66        C      tau(  66) = (   1.0181187   0.8404729   0.0750771  )
        67        C      tau(  67) = (   1.0216686   0.3162613   0.7567330  )
        68        C      tau(  68) = (   0.9229778   0.8448555   0.0750276  )
        69        C      tau(  69) = (   1.2049773   0.5112435   0.0559705  )
        70        C      tau(  70) = (   0.7396691   0.6498734   0.7757901  )
        71        C      tau(  71) = (   0.7630648   0.9576024   0.4660509  )
        72        C      tau(  72) = (   1.1815816   0.2035145   0.3657098  )
        73        C      tau(  73) = (   1.1498015   0.9576520   0.4584006  )
        74        C      tau(  74) = (   0.7948448   0.2034648   0.3733600  )
        75        C      tau(  75) = (   1.1987640   0.6601439   0.7592413  )
        76        C      tau(  76) = (   0.7458824   0.5009730   0.0725193  )
        77        C      tau(  77) = (   1.3884793   0.6135326   0.3807585  )
        78        C      tau(  78) = (   0.5561670   0.5475843   0.4510022  )
        79        C      tau(  79) = (   0.5561177   0.6009989   0.3721274  )
        80        C      tau(  80) = (   1.3885286   0.5601179   0.4596332  )
        81        C      tau(  81) = (   0.7442066   0.2306938   0.4493120  )
        82        C      tau(  82) = (   1.2004398   0.9304231   0.3824486  )
        83        C      tau(  83) = (   0.7928802   0.4181253   0.0738626  )
        84        C      tau(  84) = (   1.1517662   0.7429915   0.7578980  )
        85        H      tau(  85) = (   1.1917190   0.6112056   0.7033811  )
        86        H      tau(  86) = (   0.7529274   0.5499113   0.1283795  )
        87        H      tau(  87) = (   1.3247146   0.6398896   0.3523946  )
        88        H      tau(  88) = (   0.6199318   0.5212273   0.4793660  )
        89        H      tau(  89) = (   1.1033775   0.9102352   0.4924813  )
        90        H      tau(  90) = (   0.8412689   0.2508817   0.3392794  )
        91        H      tau(  91) = (   0.8378344   0.4004697   0.1307265  )
        92        H      tau(  92) = (   1.1068119   0.7606472   0.7010341  )
        93        H      tau(  93) = (   0.6198378   0.6177277   0.3371157  )
        94        H      tau(  94) = (   1.3248086   0.5433891   0.4946449  )
        95        H      tau(  95) = (   0.7499889   0.2999606   0.4764166  )
        96        H      tau(  96) = (   1.1946575   0.8611562   0.3553440  )
        97        H      tau(  97) = (   0.7300397   0.8602724   0.3594175  )
        98        H      tau(  98) = (   1.2146067   0.3008445   0.4723432  )
        99        H      tau(  99) = (   0.8895540   0.3499378   0.6988872  )
       100        H      tau( 100) = (   1.0550924   0.8111791   0.1328734  )
       101        H      tau( 101) = (   1.1036306   0.4157803   0.1064682  )
       102        H      tau( 102) = (   0.8410158   0.7453366   0.7252924  )
       103        H      tau( 103) = (   0.8041453   0.9101018   0.5063332  )
       104        H      tau( 104) = (   1.1405011   0.2510151   0.3254275  )
       105        H      tau( 105) = (   1.0612777   0.3415818   0.6987982  )
       106        H      tau( 106) = (   0.8833687   0.8195351   0.1329624  )
       107        H      tau( 107) = (   1.1826499   0.5682683   0.0985857  )
       108        H      tau( 108) = (   0.7619965   0.5928485   0.7331750  )

     number of k points=     1
                       cart. coord. in units 2pi/alat
        k(    1) = (   0.0000000   0.0000000   0.0000000), wk =   2.0000000

     Dense  grid:  1358970 G-vectors     FFT dimensions: ( 192, 192, 192)

     Smooth grid:   480622 G-vectors     FFT dimensions: ( 135, 135, 135)

     Estimated max dynamical RAM per process >      34.78 MB

     Estimated total dynamical RAM >       8.69 GB

     Check: negative core charge=   -0.000001

     Initial potential from superposition of free atoms

     starting charge     467.9848, renormalised to     468.0000

     negative rho (up, down):  4.333E-05 0.000E+00
     Starting wfcs are  414 randomized atomic wfcs
     Checking if some PAW data can be deallocated... 

     total cpu time spent up to now is        5.1 secs

     Self-consistent Calculation

     iteration #  1     ecut=    60.00 Ry     beta= 0.70
     Davidson diagonalization with overlap
     ethr =  1.00E-02,  avg # of iterations =  2.0

     negative rho (up, down):  5.119E-06 0.000E+00

     total cpu time spent up to now is        7.5 secs

     total energy              =   -4000.59854357 Ry
     estimated scf accuracy    <      17.88551811 Ry

     iteration #  2     ecut=    60.00 Ry     beta= 0.70
     Davidson diagonalization with overlap
     ethr =  3.82E-03,  avg # of iterations = 10.0

     negative rho (up, down):  2.029E-05 0.000E+00

     total cpu time spent up to now is       11.8 secs

     total energy              =   -4006.06425886 Ry
     estimated scf accuracy    <      14.82534507 Ry

     iteration #  3     ecut=    60.00 Ry     beta= 0.70
     Davidson diagonalization with overlap
     ethr =  3.17E-03,  avg # of iterations =  7.0

     negative rho (up, down):  5.209E-05 0.000E+00

     total cpu time spent up to now is       14.3 secs

     total energy              =   -4007.85671692 Ry
     estimated scf accuracy    <       1.57812272 Ry

     iteration #  4     ecut=    60.00 Ry     beta= 0.70
     Davidson diagonalization with overlap
     ethr =  3.37E-04,  avg # of iterations =  9.0

     negative rho (up, down):  2.612E-04 0.000E+00

     total cpu time spent up to now is       18.3 secs

     total energy              =   -4009.04285924 Ry
     estimated scf accuracy    <       0.16145296 Ry

     iteration #  5     ecut=    60.00 Ry     beta= 0.70
     Davidson diagonalization with overlap
     ethr =  3.45E-05,  avg # of iterations =  8.0

     negative rho (up, down):  3.744E-04 0.000E+00

     total cpu time spent up to now is       22.3 secs

     total energy              =   -4009.11516028 Ry
     estimated scf accuracy    <       0.11206609 Ry

     iteration #  6     ecut=    60.00 Ry     beta= 0.70
     Davidson diagonalization with overlap
     ethr =  2.39E-05,  avg # of iterations =  2.0

     negative rho (up, down):  4.569E-04 0.000E+00

     total cpu time spent up to now is       24.4 secs

     total energy              =   -4009.10336341 Ry
     estimated scf accuracy    <       0.03763605 Ry

     iteration #  7     ecut=    60.00 Ry     beta= 0.70
     Davidson diagonalization with overlap
     ethr =  8.04E-06,  avg # of iterations =  8.0

     negative rho (up, down):  4.774E-04 0.000E+00

     total cpu time spent up to now is       28.7 secs

     total energy              =   -4009.13031933 Ry
     estimated scf accuracy    <       0.02027606 Ry

     iteration #  8     ecut=    60.00 Ry     beta= 0.70
     Davidson diagonalization with overlap
     ethr =  4.33E-06,  avg # of iterations =  2.0

     negative rho (up, down):  4.998E-04 0.000E+00

     total cpu time spent up to now is       30.6 secs

     total energy              =   -4009.12271447 Ry
     estimated scf accuracy    <       0.01485176 Ry

     iteration #  9     ecut=    60.00 Ry     beta= 0.70
     Davidson diagonalization with overlap
     ethr =  3.17E-06,  avg # of iterations =  8.0

     negative rho (up, down):  4.995E-04 0.000E+00

     total cpu time spent up to now is       33.8 secs

     total energy              =   -4009.12745591 Ry
     estimated scf accuracy    <       0.00261744 Ry

     iteration # 10     ecut=    60.00 Ry     beta= 0.70
     Davidson diagonalization with overlap
     ethr =  5.59E-07,  avg # of iterations =  5.0

     negative rho (up, down):  4.975E-04 0.000E+00

     total cpu time spent up to now is       36.8 secs

     total energy              =   -4009.12774665 Ry
     estimated scf accuracy    <       0.00150847 Ry

     iteration # 11     ecut=    60.00 Ry     beta= 0.70
     Davidson diagonalization with overlap
     ethr =  3.22E-07,  avg # of iterations =  9.0

     negative rho (up, down):  4.941E-04 0.000E+00

     total cpu time spent up to now is       40.1 secs

     total energy              =   -4009.12805131 Ry
     estimated scf accuracy    <       0.00050605 Ry

     iteration # 12     ecut=    60.00 Ry     beta= 0.70
     Davidson diagonalization with overlap
     ethr =  1.08E-07,  avg # of iterations =  9.0

     negative rho (up, down):  4.987E-04 0.000E+00

     total cpu time spent up to now is       43.9 secs

     total energy              =   -4009.12793236 Ry
     estimated scf accuracy    <       0.00077539 Ry

     iteration # 13     ecut=    60.00 Ry     beta= 0.70
     Davidson diagonalization with overlap
     ethr =  1.08E-07,  avg # of iterations =  7.0

     negative rho (up, down):  4.998E-04 0.000E+00

     total cpu time spent up to now is       47.0 secs

     total energy              =   -4009.12806938 Ry
     estimated scf accuracy    <       0.00003925 Ry

     iteration # 14     ecut=    60.00 Ry     beta= 0.70
     Davidson diagonalization with overlap
     ethr =  8.39E-09,  avg # of iterations = 10.0

     negative rho (up, down):  5.001E-04 0.000E+00

     total cpu time spent up to now is       52.4 secs

     total energy              =   -4009.12811319 Ry
     estimated scf accuracy    <       0.00006797 Ry

     iteration # 15     ecut=    60.00 Ry     beta= 0.70
     Davidson diagonalization with overlap
     ethr =  8.39E-09,  avg # of iterations =  2.0

     negative rho (up, down):  5.002E-04 0.000E+00

     total cpu time spent up to now is       54.3 secs

     total energy              =   -4009.12809348 Ry
     estimated scf accuracy    <       0.00005266 Ry

     iteration # 16     ecut=    60.00 Ry     beta= 0.70
     Davidson diagonalization with overlap
     ethr =  8.39E-09,  avg # of iterations =  8.0

     negative rho (up, down):  5.002E-04 0.000E+00

     total cpu time spent up to now is       56.9 secs

     total energy              =   -4009.12809421 Ry
     estimated scf accuracy    <       0.00001682 Ry

     iteration # 17     ecut=    60.00 Ry     beta= 0.70
     Davidson diagonalization with overlap
     ethr =  3.59E-09,  avg # of iterations =  6.0

     negative rho (up, down):  5.001E-04 0.000E+00

     total cpu time spent up to now is       60.6 secs

     total energy              =   -4009.12810220 Ry
     estimated scf accuracy    <       0.00000866 Ry

     iteration # 18     ecut=    60.00 Ry     beta= 0.70
     Davidson diagonalization with overlap
     ethr =  1.85E-09,  avg # of iterations =  2.0

     negative rho (up, down):  5.002E-04 0.000E+00

     total cpu time spent up to now is       62.5 secs

     total energy              =   -4009.12810108 Ry
     estimated scf accuracy    <       0.00000314 Ry

     iteration # 19     ecut=    60.00 Ry     beta= 0.70
     Davidson diagonalization with overlap
     ethr =  6.70E-10,  avg # of iterations = 11.0

     negative rho (up, down):  5.002E-04 0.000E+00

     total cpu time spent up to now is       67.1 secs

     total energy              =   -4009.12810282 Ry
     estimated scf accuracy    <       0.00000298 Ry

     iteration # 20     ecut=    60.00 Ry     beta= 0.70
     Davidson diagonalization with overlap
     ethr =  6.36E-10,  avg # of iterations =  2.0

     negative rho (up, down):  5.002E-04 0.000E+00

     total cpu time spent up to now is       69.0 secs

     total energy              =   -4009.12810231 Ry
     estimated scf accuracy    <       0.00000137 Ry

     iteration # 21     ecut=    60.00 Ry     beta= 0.70
     Davidson diagonalization with overlap
     ethr =  2.93E-10,  avg # of iterations = 11.0

     negative rho (up, down):  5.003E-04 0.000E+00

     total cpu time spent up to now is       72.9 secs

     total energy              =   -4009.12810313 Ry
     estimated scf accuracy    <       0.00000063 Ry

     iteration # 22     ecut=    60.00 Ry     beta= 0.70
     Davidson diagonalization with overlap
     ethr =  1.35E-10,  avg # of iterations =  2.0

     negative rho (up, down):  5.003E-04 0.000E+00

     total cpu time spent up to now is       74.8 secs

     total energy              =   -4009.12810298 Ry
     estimated scf accuracy    <       0.00000040 Ry

     iteration # 23     ecut=    60.00 Ry     beta= 0.70
     Davidson diagonalization with overlap
     ethr =  8.61E-11,  avg # of iterations =  8.0

     negative rho (up, down):  5.003E-04 0.000E+00

     total cpu time spent up to now is       78.0 secs

     total energy              =   -4009.12810311 Ry
     estimated scf accuracy    <       0.00000009 Ry

     iteration # 24     ecut=    60.00 Ry     beta= 0.70
     Davidson diagonalization with overlap
     ethr =  1.93E-11,  avg # of iterations =  7.0

     negative rho (up, down):  5.003E-04 0.000E+00

     total cpu time spent up to now is       80.2 secs

     total energy              =   -4009.12810309 Ry
     estimated scf accuracy    <       0.00000007 Ry

     iteration # 25     ecut=    60.00 Ry     beta= 0.70
     Davidson diagonalization with overlap
     ethr =  1.49E-11,  avg # of iterations =  8.0

     negative rho (up, down):  5.003E-04 0.000E+00

     total cpu time spent up to now is       83.3 secs

     End of self-consistent calculation

          k = 0.0000 0.0000 0.0000 ( 60106 PWs)   bands (ev):

   -49.6192 -49.6029 -49.6027 -49.5906 -49.5886 -49.5885 -28.1090 -28.0059
   -28.0059 -27.9124 -27.9124 -27.9046 -27.7771 -27.7325 -27.7323 -27.7259
   -27.7258 -27.6991 -27.6267 -27.6267 -27.5910 -27.5775 -27.5774 -27.5769
   -22.8419 -22.7950 -22.7949 -22.7892 -22.7891 -22.7637 -22.5865 -22.5799
   -22.5226 -22.5225 -22.5202 -22.5202 -20.5552 -20.5390 -20.5389 -20.5095
   -20.5094 -20.4738 -20.3494 -20.3493 -20.3261 -20.3260 -20.2426 -20.2386
   -17.9999 -17.7677 -17.7676 -17.5735 -17.5735 -17.5312 -17.3936 -17.3926
   -17.3925 -17.2152 -17.2152 -17.2130 -15.0515 -15.0515 -15.0421 -14.8632
   -14.8426 -14.8425 -14.4900 -14.4878 -14.4877 -14.3156 -14.3155 -14.3134
   -12.2921 -12.2559 -12.2558 -12.0957 -12.0370 -12.0370 -10.9647 -10.9647
   -10.9533 -10.7875 -10.7874 -10.7708 -10.2334 -10.2333 -10.1519 -10.0303
    -9.8563  -9.8562  -9.6168  -9.5576  -9.5576  -9.4479  -9.3782  -9.3781
    -8.7853  -8.6130  -8.5384  -8.5384  -8.3961  -8.3960  -8.3556  -8.1981
    -8.1980  -8.1506  -8.1505  -7.8703  -7.8686  -7.8686  -7.7640  -7.7640
    -7.6647  -7.6498  -7.6497  -7.6407  -7.5396  -7.3869  -7.3868  -7.2556
    -7.1558  -6.9181  -6.9180  -6.8597  -6.8327  -6.8327  -6.8326  -6.7377
    -6.7377  -6.7007  -6.6897  -6.6897  -6.6682  -6.6681  -6.6570  -6.5709
    -6.5356  -6.5355  -6.5130  -6.4538  -6.4260  -6.4260  -6.3482  -6.3482
    -6.2160  -6.1894  -6.1894  -6.0320  -6.0319  -6.0146  -5.7303  -5.6365
    -5.6364  -5.4600  -5.2506  -5.2505  -5.1343  -5.0022  -4.9591  -4.9591
    -4.8924  -4.8924  -4.8923  -4.8922  -4.8685  -4.7839  -4.7695  -4.7695
    -4.7345  -4.2527  -4.2527  -4.2002  -4.1517  -4.1516  -4.1516  -4.1460
    -4.1460  -3.9884  -3.9883  -3.9782  -3.9782  -3.9602  -3.8063  -3.6437
    -3.6437  -3.6129  -3.5227  -3.4049  -3.3734  -3.3734  -3.3005  -3.2433
    -3.2433  -3.2083  -3.1693  -3.1692  -3.0837  -3.0438  -3.0438  -2.9807
    -2.9807  -2.9246  -2.9246  -2.8194  -2.7488  -2.6857  -2.6857  -2.6852
    -2.6388  -2.6388  -2.5840  -2.5839  -2.5336  -2.5324  -2.5324  -2.4848
    -2.4284  -2.4283  -2.3938  -2.3810  -2.3797  -2.3750  -2.3750  -2.3463
    -2.3462  -2.2876  -2.2407  -2.2406  -2.1758  -2.1757  -2.1589  -1.6349
    -1.6349  -1.4996

     highest occupied level (ev):    -1.4996

!    total energy              =   -4009.12810311 Ry
     total all-electron energy =    -51389.545210 Ry
     estimated scf accuracy    <          7.6E-09 Ry

     The total energy is the sum of the following terms:
     one-electron contribution =   -6099.01950367 Ry
     hartree contribution      =    3180.94361563 Ry
     xc contribution           =    -570.36582947 Ry
     ewald contribution        =    1323.03872305 Ry
     one-center paw contrib.   =   -1843.72510866 Ry

     convergence has been achieved in  25 iterations

     Writing all to output data dir ./pwscf.save/ :
     XML data file, charge density, pseudopotentials, collected wavefunctions

     init_run     :      2.28s CPU      2.79s WALL (       1 calls)
     electrons    :     75.98s CPU     78.55s WALL (       1 calls)

     Called by init_run:
     wfcinit      :      0.99s CPU      1.07s WALL (       1 calls)
     potinit      :      0.31s CPU      0.35s WALL (       1 calls)
     hinit0       :      0.21s CPU      0.31s WALL (       1 calls)

     Called by electrons:
     c_bands      :     64.35s CPU     66.22s WALL (      25 calls)
     sum_band     :      6.35s CPU      6.66s WALL (      25 calls)
     v_of_rho     :      0.73s CPU      0.84s WALL (      26 calls)
     newd         :      2.64s CPU      2.85s WALL (      26 calls)
     PAW_pot      :      1.48s CPU      1.59s WALL (      26 calls)
     mix_rho      :      0.25s CPU      0.26s WALL (      25 calls)

     Called by c_bands:
     init_us_2    :      0.11s CPU      0.16s WALL (      51 calls)
     regterg      :     64.21s CPU     66.02s WALL (      25 calls)

     Called by *egterg:
     rdiaghg      :     17.25s CPU     17.46s WALL (     188 calls)
     h_psi        :     25.51s CPU     26.44s WALL (     189 calls)
     s_psi        :      6.13s CPU      6.14s WALL (     189 calls)
     g_psi        :      0.01s CPU      0.01s WALL (     163 calls)

     Called by h_psi:
     h_psi:calbec :      8.37s CPU      8.91s WALL (     189 calls)
     vloc_psi     :     10.89s CPU     11.26s WALL (     189 calls)
     vloc_psi:tg_ :      0.04s CPU      0.04s WALL (     189 calls)
     add_vuspsi   :      6.22s CPU      6.22s WALL (     189 calls)

     General routines
     calbec       :     10.91s CPU     11.61s WALL (     214 calls)
     fft          :      0.87s CPU      0.96s WALL (     284 calls)
     ffts         :      0.17s CPU      0.18s WALL (      51 calls)
     fftw         :     11.99s CPU     12.43s WALL (   21515 calls)
     interpolate  :      0.18s CPU      0.20s WALL (      26 calls)

     Parallel routines
     fft_scatt_xy :      0.42s CPU      0.44s WALL (   21850 calls)
     fft_scatt_yz :     10.39s CPU     10.83s WALL (   21850 calls)
     fft_scatt_tg :      0.04s CPU      0.04s WALL (   21515 calls)

     PWSCF        :   1m20.98s CPU   1m24.92s WALL


   This run was terminated on:  14:50:42   4Jun2025            

=------------------------------------------------------------------------------=
   JOB DONE.
=------------------------------------------------------------------------------=
