
     Program PWSCF v.7.3.1 starts on  4Jun2025 at  7:59:50 

     This program is part of the open-source Quantum ESPRESSO suite
     for quantum simulation of materials; please cite
         "P. Giannozzi et al., J. Phys.:Condens. Matter 21 395502 (2009);
         "P. Giannozzi et al., J. Phys.:Condens. Matter 29 465901 (2017);
         "P. Giannozzi et al., J. Chem. Phys. 152 154105 (2020);
          URL http://www.quantum-espresso.org", 
     in publications or presentations arising from this work. More details at
     http://www.quantum-espresso.org/quote

     Parallel version (MPI), running on   256 processors

     MPI processes distributed on     1 nodes
     1533163 MiB available memory on the printing compute node when the environment starts

     Waiting for input...
     Reading input from standard input

     Current dimensions of program PWSCF are:
     Max number of different atomic species (ntypx) = 10
     Max number of k-points (npk) =  40000
     Max angular momentum in pseudopotentials (lmaxx) =  4
     file H.pbe-kjpaw_psl.1.0.0.UPF: wavefunction(s)  1S renormalized
     file Zr.pbe-spn-kjpaw_psl.1.0.0.UPF: wavefunction(s)  4S 4P renormalized
     file C.pbe-n-kjpaw_psl.1.0.0.UPF: wavefunction(s)  2S 2P renormalized
     file O.pbe-n-kjpaw_psl.1.0.0.UPF: wavefunction(s)  2S 2P renormalized
     file N.pbe-n-kjpaw_psl.1.0.0.UPF: wavefunction(s)  2S renormalized

     IMPORTANT: XC functional enforced from input :
     Exchange-correlation= PBE
                           (   1   4   3   4   0   0   0)
     Any further DFT definition will be discarded
     Please, verify this is what you really want


     gamma-point specific algorithms are used

     R & G space division:  proc/nbgrp/npool/nimage =     256
     WARNING: too many processors for an effective parallelization!
     wavefunctions fft division:  task group distribution
                                  #TG    x Z-proc =       8     32
     Subspace diagonalization in iterative solution of the eigenvalue problem:
     one sub-group per band group will be used
     custom distributed-memory algorithm (size of sub-group:  3*  3 procs)


     Parallelization info
     --------------------
     sticks:   dense  smooth     PW     G-vecs:    dense   smooth      PW
     Min         123      82     20                14848     8078    1002
     Max         126      84     22                14862     8100    1022
     Sum       31869   21235   5295              3802973  2070183  258593

     Using Pencil Decomposition


     Title: 
     UiO-66-NH2-dehydrox GeomOpt                                                


     bravais-lattice index     =            0
     lattice parameter (alat)  =      27.5206  a.u.
     unit-cell volume          =   15323.5057 (a.u.)^3
     number of atoms/cell      =          120
     number of atomic types    =            5
     number of electrons       =       504.00
     number of Kohn-Sham states=          252
     kinetic-energy cutoff     =     100.0000  Ry
     charge density cutoff     =     600.0000  Ry
     scf convergence threshold =      1.0E-08
     mixing beta               =       0.7000
     number of iterations used =            8  plain     mixing
     energy convergence thresh.=      3.6E-06
     force convergence thresh. =      1.0E-05
     press convergence thresh. =      5.0E-01
     Exchange-correlation= PBE
                           (   1   4   3   4   0   0   0)
     nstep                     =          750


     celldm(1)=  27.520592  celldm(2)=   0.000000  celldm(3)=   0.000000
     celldm(4)=   0.000000  celldm(5)=   0.000000  celldm(6)=   0.000000

     crystal axes: (cart. coord. in units of alat)
               a(1) = (   0.999446  -0.001436  -0.001029 )  
               a(2) = (   0.472799   0.880543  -0.001029 )  
               a(3) = (   0.472799   0.282318   0.834058 )  

     reciprocal axes: (cart. coord. in units 2 pi/alat)
               b(1) = (  0.999387 -0.537061 -0.384730 )  
               b(2) = (  0.001234  1.134551 -0.384730 )  
               b(3) = (  0.001234  0.000737  1.198008 )  


     PseudoPot. # 1 for H  read from file:
     /home/mehlhorn/pseudos/UiO-66_pbe-spn-kjpaw/H.pbe-kjpaw_psl.1.0.0.UPF
     MD5 check sum: d81a744832360e4a8af0b0b5b123bc2a
     Pseudo is Projector augmented-wave, Zval =  1.0
     Generated using &quot;atomic&quot; code by A. Dal Corso  v.6.3MaX
     Shape of augmentation charge: PSQ
     Using radial grid of  929 points,  2 beta functions with: 
                l(1) =   0
                l(2) =   0
     Q(r) pseudized with 0 coefficients 


     PseudoPot. # 2 for Zr read from file:
     /home/mehlhorn/pseudos/UiO-66_pbe-spn-kjpaw/Zr.pbe-spn-kjpaw_psl.1.0.0.UPF
     MD5 check sum: 02112c41713a0468aff2bb39ef194e36
     Pseudo is Projector augmented-wave + core cor, Zval = 12.0
     Generated using &quot;atomic&quot; code by A. Dal Corso  v.6.2.2
     Shape of augmentation charge: PSQ
     Using radial grid of 1225 points,  6 beta functions with: 
                l(1) =   0
                l(2) =   0
                l(3) =   1
                l(4) =   1
                l(5) =   2
                l(6) =   2
     Q(r) pseudized with 0 coefficients 


     PseudoPot. # 3 for C  read from file:
     /home/mehlhorn/pseudos/UiO-66_pbe-spn-kjpaw/C.pbe-n-kjpaw_psl.1.0.0.UPF
     MD5 check sum: 5f16ad9a65e90284d1d834d4ab3b0f7d
     Pseudo is Projector augmented-wave + core cor, Zval =  4.0
     Generated using &quot;atomic&quot; code by A. Dal Corso  v.6.3
     Shape of augmentation charge: PSQ
     Using radial grid of 1073 points,  4 beta functions with: 
                l(1) =   0
                l(2) =   0
                l(3) =   1
                l(4) =   1
     Q(r) pseudized with 0 coefficients 


     PseudoPot. # 4 for O  read from file:
     /home/mehlhorn/pseudos/UiO-66_pbe-spn-kjpaw/O.pbe-n-kjpaw_psl.1.0.0.UPF
     MD5 check sum: e99d9cef9b487d1ca56f5b95ecd0fd7a
     Pseudo is Projector augmented-wave + core cor, Zval =  6.0
     Generated using &quot;atomic&quot; code by A. Dal Corso  v.6.3
     Shape of augmentation charge: PSQ
     Using radial grid of 1095 points,  4 beta functions with: 
                l(1) =   0
                l(2) =   0
                l(3) =   1
                l(4) =   1
     Q(r) pseudized with 0 coefficients 


     PseudoPot. # 5 for N  read from file:
     /home/mehlhorn/pseudos/UiO-66_pbe-spn-kjpaw/N.pbe-n-kjpaw_psl.1.0.0.UPF
     MD5 check sum: 14c48229446f9f2d411169a3abcbc3fa
     Pseudo is Projector augmented-wave + core cor, Zval =  5.0
     Generated using &quot;atomic&quot; code by A. Dal Corso  v.6.3
     Shape of augmentation charge: PSQ
     Using radial grid of 1085 points,  4 beta functions with: 
                l(1) =   0
                l(2) =   0
                l(3) =   1
                l(4) =   1
     Q(r) pseudized with 0 coefficients 


     atomic species   valence    mass     pseudopotential
     H                 1.00     1.00750     H ( 1.00)
     Zr               12.00    91.22400     Zr( 1.00)
     C                 4.00    12.01060     C ( 1.00)
     O                 6.00    15.99900     O ( 1.00)
     N                 5.00    14.00650     N ( 1.00)

     No symmetry found



   Cartesian axes

     site n.     atom                  positions (alat units)
         1        Zr     tau(   1) = (   0.9900351   0.1395721   0.1028148  )
         2        Zr     tau(   2) = (   0.5948311   0.8041031   0.0990732  )
         3        Zr     tau(   3) = (   0.5924712   0.3564570   0.7294772  )
         4        Zr     tau(   4) = (   1.3593131   0.8096220   0.1042222  )
         5        Zr     tau(   5) = (   0.9609403   1.0263134   0.7330459  )
         6        Zr     tau(   6) = (   1.3575073   0.3601294   0.7359093  )
         7        O      tau(   7) = (   1.0822206   0.2556387   0.0706772  )
         8        O      tau(   8) = (   0.6446423   0.8819793   0.2193084  )
         9        O      tau(   9) = (   0.7383762   0.3344255   0.7645307  )
        10        O      tau(  10) = (   1.3050849   0.2843358   0.6141994  )
        11        O      tau(  11) = (   0.8693500   0.9077934   0.7625462  )
        12        O      tau(  12) = (   1.2115304   0.8296993   0.0716142  )
        13        O      tau(  13) = (   1.3021148   0.6833735   0.0362806  )
        14        O      tau(  14) = (   1.2192337   0.2988655   0.7667885  )
        15        O      tau(  15) = (   0.7345818   0.8622163   0.0677781  )
        16        O      tau(  16) = (   0.8414196   1.0257378   0.6353683  )
        17        O      tau(  17) = (   0.8821769   0.0540665   0.0408540  )
        18        O      tau(  18) = (   0.4678065   0.7500255   0.0380477  )
        19        O      tau(  19) = (   0.6491321   0.4846731   0.7945690  )
        20        O      tau(  20) = (   1.1074825   0.1406542   0.2032725  )
        21        O      tau(  21) = (   0.6534953   0.6702597   0.0664010  )
        22        O      tau(  22) = (   0.5551547   0.4432001   0.6132612  )
        23        O      tau(  23) = (   0.8912274   0.2537272   0.0678963  )
        24        O      tau(  24) = (   1.3962336   0.7205419   0.2189193  )
        25        O      tau(  25) = (   1.0488275   1.0208990   0.6118008  )
        26        O      tau(  26) = (   1.2965981   0.4927793   0.7697897  )
        27        O      tau(  27) = (   0.4660363   0.2802902   0.6979083  )
        28        O      tau(  28) = (   1.3089800   0.8852955   0.2274430  )
        29        O      tau(  29) = (   0.5511899   0.7153797   0.2183932  )
        30        O      tau(  30) = (   1.4858087   0.8853650   0.1351118  )
        31        O      tau(  31) = (   1.4841876   0.4136454   0.7973944  )
        32        O      tau(  32) = (   1.0681407   1.1122427   0.7948240  )
        33        O      tau(  33) = (   1.4002517   0.4509953   0.6203258  )
        34        O      tau(  34) = (   0.6461007   0.2779890   0.6070828  )
        35        O      tau(  35) = (   1.0612093   0.9151157   0.7650530  )
        36        O      tau(  36) = (   0.9000321   0.1456770   0.2223356  )
        37        N      tau(  37) = (   1.0714438   0.4367846   0.0960603  )
        38        N      tau(  38) = (   0.7119933   0.8334486   0.3826577  )
        39        N      tau(  39) = (   0.8927354   0.3277623   0.6660268  )
        40        N      tau(  40) = (   1.3035223   0.6479163   0.3587113  )
        41        N      tau(  41) = (   1.1886863   0.6099629   0.6801534  )
        42        N      tau(  42) = (   1.1008050   0.8875820   0.4980622  )
        43        C      tau(  43) = (   0.8040020   0.9013582   0.8203017  )
        44        C      tau(  44) = (   1.3204081   0.2018493   0.5895252  )
        45        C      tau(  45) = (   0.1557334   0.0832754   0.2491964  )
        46        C      tau(  46) = (   1.1748689   0.8668573   0.0014535  )
        47        C      tau(  47) = (   0.1910103   0.3589529   0.0061845  )
        48        C      tau(  48) = (   0.4066049   0.0051788  -0.0039831  )
        49        C      tau(  49) = (   0.3051705   0.0124762  -0.0013245  )
        50        C      tau(  50) = (   0.1471801   0.2673477   0.0122387  )
        51        C      tau(  51) = (   1.1519119   0.4373571   0.0474079  )
        52        C      tau(  52) = (   0.7097701   0.9260516   0.3988519  )
        53        C      tau(  53) = (   0.7934923   0.7321772   0.7845492  )
        54        C      tau(  54) = (   1.2773572   0.1704730   0.5016588  )
        55        C      tau(  55) = (   0.7559594   0.8107582   0.8267775  )
        56        C      tau(  56) = (   1.0723214   0.8732078   0.0000129  )
        57        C      tau(  57) = (   0.1974220   0.1106009   0.3378791  )
        58        C      tau(  58) = (   1.1984927   0.2030724   0.3601715  )
        59        C      tau(  59) = (   1.1140866   0.8981334   0.8325402  )
        60        C      tau(  60) = (   1.3191110   0.9667624   0.2574336  )
        61        C      tau(  61) = (   1.4767775   0.4698285   0.5825340  )
        62        C      tau(  62) = (   0.7853648   0.3568087  -0.0024077  )
        63        C      tau(  63) = (   0.4740433   0.6947613   0.2542207  )
        64        C      tau(  64) = (   0.8364836   0.2689462   0.0013248  )
        65        C      tau(  65) = (   1.2377048   0.2344715   0.4408415  )
        66        C      tau(  66) = (   1.0279829   0.2974335   0.7537624  )
        67        C      tau(  67) = (   0.9262112   0.8623482   0.0763996  )
        68        C      tau(  68) = (   0.7472507   0.6494818   0.7919193  )
        69        C      tau(  69) = (   0.7494444   0.9594538   0.4807865  )
        70        C      tau(  70) = (   1.0209460   0.8558473   0.0801759  )
        71        C      tau(  71) = (   1.2001362   0.5210750   0.0391164  )
        72        C      tau(  72) = (   0.9314078   0.3044011   0.7484962  )
        73        C      tau(  73) = (   0.7449881   0.2289411   0.4506589  )
        74        C      tau(  74) = (   1.3932218   0.5615859   0.4654048  )
        75        C      tau(  75) = (   1.2078344   0.9318059   0.3819958  )
        76        C      tau(  76) = (   1.3877565   0.6159790   0.3853511  )
        77        C      tau(  77) = (   1.1539196   0.9546470   0.4592519  )
        78        C      tau(  78) = (   1.2647480   0.9954570   0.3397582  )
        79        C      tau(  79) = (   1.2005251   0.6639179   0.7561392  )
        80        C      tau(  80) = (   1.1552326   0.7495638   0.7593676  )
        81        C      tau(  81) = (   0.5549151   0.6027655   0.3731736  )
        82        C      tau(  82) = (   0.7938545   0.4185186   0.0717811  )
        83        C      tau(  83) = (   0.4715707   0.6380273   0.3386128  )
        84        C      tau(  84) = (   0.7487409   0.5021361   0.0738642  )
        85        C      tau(  85) = (   0.7972019   0.2053757   0.3748318  )
        86        C      tau(  86) = (   0.5589360   0.5493539   0.4516753  )
        87        C      tau(  87) = (   1.4762520   0.5280004   0.4978472  )
        88        C      tau(  88) = (   0.6866347   0.1657092   0.4951652  )
        89        C      tau(  89) = (   1.1650491   0.8089233   0.8332232  )
        90        C      tau(  90) = (   0.6335318   0.1971298   0.5760341  )
        91        H      tau(  91) = (   0.8583957   0.7374284   0.7479137  )
        92        H      tau(  92) = (   1.2394405   0.3072612   0.4576000  )
        93        H      tau(  93) = (   1.1721439   0.5829396   0.0707606  )
        94        H      tau(  94) = (   0.7750686   0.5873652   0.7608231  )
        95        H      tau(  95) = (   1.0563542   0.8387415   0.1437038  )
        96        H      tau(  96) = (   1.1681747   0.2510067   0.3113617  )
        97        H      tau(  97) = (   1.0691677   0.3100260   0.6924647  )
        98        H      tau(  98) = (   0.8847221   0.8502639   0.1374888  )
        99        H      tau(  99) = (   0.7800654   0.9111585   0.5291813  )
       100        H      tau( 100) = (   0.8413973   0.2551172   0.3408639  )
       101        H      tau( 101) = (   0.6236886   0.5221191   0.4771029  )
       102        H      tau( 102) = (   0.7554784   0.5487076   0.1318893  )
       103        H      tau( 103) = (   0.8370854   0.3973632   0.1290678  )
       104        H      tau( 104) = (   0.6171800   0.6183243   0.3347127  )
       105        H      tau( 105) = (   1.1115852   0.7701402   0.7021041  )
       106        H      tau( 106) = (   0.7468695   0.2986547   0.4777646  )
       107        H      tau( 107) = (   1.2052459   0.8620847   0.3547956  )
       108        H      tau( 108) = (   1.0337338   0.3781417   0.0964754  )
       109        H      tau( 109) = (   1.0391455   0.4974451   0.1064925  )
       110        H      tau( 110) = (   1.3306146   0.5457383   0.5033102  )
       111        H      tau( 111) = (   1.2990852   0.6781594   0.2960359  )
       112        H      tau( 112) = (   1.0550237   0.9072087   0.5468616  )
       113        H      tau( 113) = (   1.2471294   0.6185331   0.3866549  )
       114        H      tau( 114) = (   0.7225495   0.7910729   0.4367365  )
       115        H      tau( 115) = (   1.2132064   0.5447479   0.6830368  )
       116        H      tau( 116) = (   0.9308179   0.3192346   0.6085054  )
       117        H      tau( 117) = (   0.6778428   0.8090133   0.3269988  )
       118        H      tau( 118) = (   0.8232224   0.3264236   0.6607974  )
       119        H      tau( 119) = (   1.1360708   0.6249329   0.6373533  )
       120        H      tau( 120) = (   1.0890267   0.8298703   0.4612515  )

     number of k points=     1
                       cart. coord. in units 2pi/alat
        k(    1) = (   0.0000000   0.0000000   0.0000000), wk =   2.0000000

     Dense  grid:  1901487 G-vectors     FFT dimensions: ( 216, 216, 216)

     Smooth grid:  1035092 G-vectors     FFT dimensions: ( 180, 180, 180)

     Estimated max dynamical RAM per process >      72.64 MB

     Estimated total dynamical RAM >      18.16 GB

     Initial potential from superposition of free atoms

     starting charge     503.9847, renormalised to     504.0000

     negative rho (up, down):  1.701E-07 0.000E+00
     Starting wfcs are  444 randomized atomic wfcs
     Checking if some PAW data can be deallocated... 

     total cpu time spent up to now is        7.4 secs

     Self-consistent Calculation

     iteration #  1     ecut=   100.00 Ry     beta= 0.70
     Davidson diagonalization with overlap
     ethr =  1.00E-02,  avg # of iterations =  2.0

     total cpu time spent up to now is       14.9 secs

     total energy              =   -4177.03950160 Ry
     estimated scf accuracy    <      18.98617288 Ry

     iteration #  2     ecut=   100.00 Ry     beta= 0.70
     Davidson diagonalization with overlap
     ethr =  3.77E-03,  avg # of iterations = 10.0

     total cpu time spent up to now is       26.6 secs

     total energy              =   -4180.39307655 Ry
     estimated scf accuracy    <      22.04425124 Ry

     iteration #  3     ecut=   100.00 Ry     beta= 0.70
     Davidson diagonalization with overlap
     ethr =  3.77E-03,  avg # of iterations =  8.0

     negative rho (up, down):  1.386E-08 0.000E+00

     total cpu time spent up to now is       34.6 secs

     total energy              =   -4184.66612578 Ry
     estimated scf accuracy    <       4.01072252 Ry

     iteration #  4     ecut=   100.00 Ry     beta= 0.70
     Davidson diagonalization with overlap
     ethr =  7.96E-04,  avg # of iterations =  5.0

     negative rho (up, down):  5.396E-06 0.000E+00

     total cpu time spent up to now is       41.1 secs

     total energy              =   -4184.87312527 Ry
     estimated scf accuracy    <       0.64944333 Ry

     iteration #  5     ecut=   100.00 Ry     beta= 0.70
     Davidson diagonalization with overlap
     ethr =  1.29E-04,  avg # of iterations = 14.0

     negative rho (up, down):  7.240E-06 0.000E+00

     total cpu time spent up to now is       56.3 secs

     total energy              =   -4185.76899659 Ry
     estimated scf accuracy    <       2.05840434 Ry

     iteration #  6     ecut=   100.00 Ry     beta= 0.70
     Davidson diagonalization with overlap
     ethr =  1.29E-04,  avg # of iterations =  2.0

     negative rho (up, down):  1.279E-05 0.000E+00

     total cpu time spent up to now is       61.8 secs

     total energy              =   -4185.17495543 Ry
     estimated scf accuracy    <       1.26005644 Ry

     iteration #  7     ecut=   100.00 Ry     beta= 0.70
     Davidson diagonalization with overlap
     ethr =  1.29E-04,  avg # of iterations = 10.0

     negative rho (up, down):  1.683E-05 0.000E+00

     total cpu time spent up to now is       74.5 secs

     total energy              =   -4185.75028161 Ry
     estimated scf accuracy    <       0.18579793 Ry

     iteration #  8     ecut=   100.00 Ry     beta= 0.70
     Davidson diagonalization with overlap
     ethr =  3.69E-05,  avg # of iterations =  9.0

     negative rho (up, down):  2.193E-05 0.000E+00

     total cpu time spent up to now is       81.3 secs

     total energy              =   -4185.70011255 Ry
     estimated scf accuracy    <       0.22316896 Ry

     iteration #  9     ecut=   100.00 Ry     beta= 0.70
     Davidson diagonalization with overlap
     ethr =  3.69E-05,  avg # of iterations =  5.0

     negative rho (up, down):  2.608E-05 0.000E+00

     total cpu time spent up to now is       87.1 secs

     total energy              =   -4185.68336490 Ry
     estimated scf accuracy    <       0.08070382 Ry

     iteration # 10     ecut=   100.00 Ry     beta= 0.70
     Davidson diagonalization with overlap
     ethr =  1.60E-05,  avg # of iterations =  7.0

     negative rho (up, down):  2.684E-05 0.000E+00

     total cpu time spent up to now is       96.0 secs

     total energy              =   -4185.72656648 Ry
     estimated scf accuracy    <       0.01471222 Ry

     iteration # 11     ecut=   100.00 Ry     beta= 0.70
     Davidson diagonalization with overlap
     ethr =  2.92E-06,  avg # of iterations =  5.0

     negative rho (up, down):  2.651E-05 0.000E+00

     total cpu time spent up to now is      102.1 secs

     total energy              =   -4185.72568577 Ry
     estimated scf accuracy    <       0.00689114 Ry

     iteration # 12     ecut=   100.00 Ry     beta= 0.70
     Davidson diagonalization with overlap
     ethr =  1.37E-06,  avg # of iterations =  7.0

     negative rho (up, down):  2.647E-05 0.000E+00

     total cpu time spent up to now is      109.2 secs

     total energy              =   -4185.72720029 Ry
     estimated scf accuracy    <       0.00036074 Ry

     iteration # 13     ecut=   100.00 Ry     beta= 0.70
     Davidson diagonalization with overlap
     ethr =  7.16E-08,  avg # of iterations = 16.0

     negative rho (up, down):  2.702E-05 0.000E+00

     total cpu time spent up to now is      123.6 secs

     total energy              =   -4185.72778309 Ry
     estimated scf accuracy    <       0.00020602 Ry

     iteration # 14     ecut=   100.00 Ry     beta= 0.70
     Davidson diagonalization with overlap
     ethr =  4.09E-08,  avg # of iterations =  8.0

     negative rho (up, down):  2.714E-05 0.000E+00

     total cpu time spent up to now is      129.9 secs

     total energy              =   -4185.72771056 Ry
     estimated scf accuracy    <       0.00032115 Ry

     iteration # 15     ecut=   100.00 Ry     beta= 0.70
     Davidson diagonalization with overlap
     ethr =  4.09E-08,  avg # of iterations =  2.0

     negative rho (up, down):  2.728E-05 0.000E+00

     total cpu time spent up to now is      135.6 secs

     total energy              =   -4185.72763556 Ry
     estimated scf accuracy    <       0.00016156 Ry

     iteration # 16     ecut=   100.00 Ry     beta= 0.70
     Davidson diagonalization with overlap
     ethr =  3.21E-08,  avg # of iterations = 12.0

     negative rho (up, down):  2.726E-05 0.000E+00

     total cpu time spent up to now is      145.2 secs

     total energy              =   -4185.72774234 Ry
     estimated scf accuracy    <       0.00009131 Ry

     iteration # 17     ecut=   100.00 Ry     beta= 0.70
     Davidson diagonalization with overlap
     ethr =  1.81E-08,  avg # of iterations =  2.0

     negative rho (up, down):  2.722E-05 0.000E+00

     total cpu time spent up to now is      150.6 secs

     total energy              =   -4185.72771270 Ry
     estimated scf accuracy    <       0.00007283 Ry

     iteration # 18     ecut=   100.00 Ry     beta= 0.70
     Davidson diagonalization with overlap
     ethr =  1.45E-08,  avg # of iterations =  8.0

     negative rho (up, down):  2.723E-05 0.000E+00

     total cpu time spent up to now is      157.8 secs

     total energy              =   -4185.72772817 Ry
     estimated scf accuracy    <       0.00000178 Ry

     iteration # 19     ecut=   100.00 Ry     beta= 0.70
     Davidson diagonalization with overlap
     ethr =  3.54E-10,  avg # of iterations = 16.0

     negative rho (up, down):  2.723E-05 0.000E+00

     total cpu time spent up to now is      170.7 secs

     total energy              =   -4185.72773032 Ry
     estimated scf accuracy    <       0.00000042 Ry

     iteration # 20     ecut=   100.00 Ry     beta= 0.70
     Davidson diagonalization with overlap
     ethr =  8.39E-11,  avg # of iterations = 11.0

     negative rho (up, down):  2.724E-05 0.000E+00

     total cpu time spent up to now is      180.8 secs

     total energy              =   -4185.72773042 Ry
     estimated scf accuracy    <       0.00000034 Ry

     iteration # 21     ecut=   100.00 Ry     beta= 0.70
     Davidson diagonalization with overlap
     ethr =  6.67E-11,  avg # of iterations =  8.0

     negative rho (up, down):  2.724E-05 0.000E+00

     total cpu time spent up to now is      188.7 secs

     total energy              =   -4185.72773050 Ry
     estimated scf accuracy    <       0.00000012 Ry

     iteration # 22     ecut=   100.00 Ry     beta= 0.70
     Davidson diagonalization with overlap
     ethr =  2.43E-11,  avg # of iterations =  2.0

     negative rho (up, down):  2.724E-05 0.000E+00

     total cpu time spent up to now is      194.3 secs

     total energy              =   -4185.72773048 Ry
     estimated scf accuracy    <       0.00000008 Ry

     iteration # 23     ecut=   100.00 Ry     beta= 0.70
     Davidson diagonalization with overlap
     ethr =  1.56E-11,  avg # of iterations =  7.0

     negative rho (up, down):  2.724E-05 0.000E+00

     total cpu time spent up to now is      203.0 secs

     total energy              =   -4185.72773051 Ry
     estimated scf accuracy    <       0.00000007 Ry

     iteration # 24     ecut=   100.00 Ry     beta= 0.70
     Davidson diagonalization with overlap
     ethr =  1.32E-11,  avg # of iterations =  1.0

     negative rho (up, down):  2.724E-05 0.000E+00

     total cpu time spent up to now is      208.1 secs

     total energy              =   -4185.72773048 Ry
     estimated scf accuracy    <       0.00000005 Ry

     iteration # 25     ecut=   100.00 Ry     beta= 0.70
     Davidson diagonalization with overlap
     ethr =  9.72E-12,  avg # of iterations = 12.0

     negative rho (up, down):  2.724E-05 0.000E+00

     total cpu time spent up to now is      217.4 secs

     total energy              =   -4185.72773050 Ry
     estimated scf accuracy    <       0.00000004 Ry

     iteration # 26     ecut=   100.00 Ry     beta= 0.70
     Davidson diagonalization with overlap
     ethr =  8.34E-12,  avg # of iterations =  6.0

     negative rho (up, down):  2.724E-05 0.000E+00

     total cpu time spent up to now is      223.2 secs

     total energy              =   -4185.72773049 Ry
     estimated scf accuracy    <       0.00000002 Ry

     iteration # 27     ecut=   100.00 Ry     beta= 0.70
     Davidson diagonalization with overlap
     ethr =  3.20E-12,  avg # of iterations = 10.0

     negative rho (up, down):  2.724E-05 0.000E+00

     total cpu time spent up to now is      234.1 secs

     total energy              =   -4185.72773051 Ry
     estimated scf accuracy    <       0.00000003 Ry

     iteration # 28     ecut=   100.00 Ry     beta= 0.70
     Davidson diagonalization with overlap
     ethr =  3.20E-12,  avg # of iterations =  2.0

     negative rho (up, down):  2.724E-05 0.000E+00

     total cpu time spent up to now is      239.6 secs

     total energy              =   -4185.72773050 Ry
     estimated scf accuracy    <       0.00000002 Ry

     iteration # 29     ecut=   100.00 Ry     beta= 0.70
     Davidson diagonalization with overlap
     ethr =  3.02E-12,  avg # of iterations =  8.0

     negative rho (up, down):  2.724E-05 0.000E+00

     total cpu time spent up to now is      247.8 secs

     End of self-consistent calculation

          k = 0.0000 0.0000 0.0000 (129297 PWs)   bands (ev):

   -49.2821 -49.2661 -49.2661 -49.2511 -49.2478 -49.2478 -27.7858 -27.6805
   -27.6805 -27.5787 -27.5787 -27.5709 -27.4376 -27.3942 -27.3941 -27.3874
   -27.3874 -27.3599 -27.2879 -27.2879 -27.2515 -27.2363 -27.2362 -27.2362
   -22.4728 -22.4341 -22.4341 -22.4085 -22.4085 -22.3911 -22.2179 -22.1737
   -22.1505 -22.1504 -22.1143 -22.1143 -20.1862 -20.1695 -20.1695 -20.1334
   -20.1334 -20.0984 -19.9625 -19.9625 -19.9115 -19.9115 -19.8623 -19.8267
   -18.7049 -18.7013 -18.7013 -18.4522 -18.4521 -18.4521 -17.6690 -17.4426
   -17.4426 -17.2489 -17.2489 -17.2148 -16.5673 -16.5673 -16.5668 -16.3437
   -16.3435 -16.3435 -14.6169 -14.6169 -14.6088 -14.3917 -14.3717 -14.3716
   -13.6574 -13.6574 -13.6530 -13.4377 -13.4371 -13.4371 -11.9893 -11.9631
   -11.9631 -11.7638 -11.7119 -11.7119 -10.6567 -10.6530 -10.6530 -10.4259
   -10.4259 -10.4159  -9.9309  -9.9309  -9.8051  -9.7215  -9.6144  -9.5516
    -9.5516  -9.5218  -9.5218  -9.3942  -9.3172  -9.3172  -8.6571  -8.6071
    -8.6071  -8.3992  -8.3520  -8.3520  -8.2489  -8.0937  -8.0937  -8.0089
    -7.9687  -7.9687  -7.8190  -7.7537  -7.7537  -7.6364  -7.6364  -7.5992
    -7.5144  -7.5144  -7.4379  -7.4379  -7.4225  -7.3300  -7.3202  -7.3202
    -7.2334  -7.1461  -7.1461  -6.9547  -6.9547  -6.9409  -6.9313  -6.8002
    -6.7585  -6.7585  -6.7220  -6.5389  -6.5389  -6.4429  -6.4429  -6.4184
    -6.3478  -6.2175  -6.2175  -6.1552  -6.0164  -6.0164  -6.0025  -5.9598
    -5.9598  -5.8873  -5.8624  -5.8624  -5.7546  -5.7546  -5.7439  -5.6590
    -5.6570  -5.6570  -5.4210  -5.3503  -5.3503  -5.1707  -5.0075  -4.9950
    -4.9950  -4.9367  -4.9367  -4.8059  -4.7667  -4.7481  -4.7481  -4.5928
    -4.5928  -4.5649  -4.5438  -4.5437  -4.4678  -4.0738  -4.0738  -4.0542
    -3.9341  -3.9207  -3.9207  -3.8689  -3.8689  -3.8181  -3.8181  -3.7711
    -3.6917  -3.6917  -3.5208  -3.3304  -3.3304  -3.3233  -3.2636  -3.2465
    -3.2465  -3.1893  -3.1462  -3.0844  -3.0844  -3.0352  -2.9985  -2.9985
    -2.9098  -2.9098  -2.9032  -2.7867  -2.7867  -2.7772  -2.7754  -2.6655
    -2.6655  -2.6167  -2.6167  -2.5585  -2.5585  -2.4938  -2.4006  -2.3602
    -2.3602  -2.3500  -2.2608  -2.2608  -2.2305  -2.1957  -2.1956  -2.1685
    -2.1395  -2.1394  -2.0570  -2.0554  -2.0554  -1.9753  -1.9752  -1.9460
    -1.7686  -1.7366  -1.7366  -1.3223  -1.3223  -1.1856  -0.6784  -0.6784
    -0.6644  -0.4592  -0.4417  -0.4417

     highest occupied level (ev):    -0.4417

!    total energy              =   -4185.72773050 Ry
     total all-electron energy =    -52053.937600 Ry
     estimated scf accuracy    <          1.7E-09 Ry

     The total energy is the sum of the following terms:
     one-electron contribution =   -6006.38115226 Ry
     hartree contribution      =    3151.87233206 Ry
     xc contribution           =    -609.64836553 Ry
     ewald contribution        =    1169.92869226 Ry
     one-center paw contrib.   =   -1891.49923703 Ry

     convergence has been achieved in  29 iterations

     negative rho (up, down):  2.724E-05 0.000E+00

     Forces acting on atoms (cartesian axes, Ry/au):

     atom    1 type  2   force =     0.00000062   -0.00000005   -0.00000606
     atom    2 type  2   force =    -0.00000163    0.00000421    0.00000450
     atom    3 type  2   force =    -0.00000101   -0.00000736    0.00000519
     atom    4 type  2   force =     0.00000287    0.00000033   -0.00000346
     atom    5 type  2   force =    -0.00000196    0.00000247   -0.00000449
     atom    6 type  2   force =    -0.00001051    0.00000032   -0.00000266
     atom    7 type  4   force =     0.00000265   -0.00000050   -0.00000615
     atom    8 type  4   force =    -0.00000434    0.00000555    0.00000153
     atom    9 type  4   force =    -0.00000315   -0.00000467    0.00000209
     atom   10 type  4   force =     0.00000597   -0.00002627   -0.00001095
     atom   11 type  4   force =     0.00000396   -0.00000396   -0.00000448
     atom   12 type  4   force =     0.00000443   -0.00000792    0.00001760
     atom   13 type  4   force =    -0.00000258   -0.00000188   -0.00000364
     atom   14 type  4   force =    -0.00001149   -0.00001108    0.00001402
     atom   15 type  4   force =     0.00000302   -0.00000390    0.00000835
     atom   16 type  4   force =     0.00000587   -0.00001482    0.00000865
     atom   17 type  4   force =     0.00000912   -0.00000266    0.00000479
     atom   18 type  4   force =     0.00000409    0.00000793   -0.00000175
     atom   19 type  4   force =     0.00000804   -0.00000158   -0.00000838
     atom   20 type  4   force =    -0.00000256    0.00001029    0.00000207
     atom   21 type  4   force =     0.00000349    0.00000249    0.00000158
     atom   22 type  4   force =     0.00002012   -0.00000379    0.00000717
     atom   23 type  4   force =    -0.00000752    0.00000494    0.00000090
     atom   24 type  4   force =     0.00000411   -0.00000516   -0.00000168
     atom   25 type  4   force =    -0.00000160    0.00000679   -0.00000314
     atom   26 type  4   force =    -0.00000278    0.00000801    0.00001273
     atom   27 type  4   force =     0.00000656    0.00000081    0.00001128
     atom   28 type  4   force =    -0.00000057    0.00000485   -0.00000037
     atom   29 type  4   force =    -0.00000697   -0.00000874    0.00000619
     atom   30 type  4   force =    -0.00000316    0.00000110   -0.00000259
     atom   31 type  4   force =     0.00000240   -0.00000167   -0.00000197
     atom   32 type  4   force =    -0.00000348   -0.00000082    0.00000151
     atom   33 type  4   force =     0.00002533    0.00000367   -0.00001199
     atom   34 type  4   force =     0.00000007    0.00000449   -0.00000405
     atom   35 type  4   force =    -0.00000068    0.00000002    0.00000111
     atom   36 type  4   force =     0.00000388    0.00000198    0.00000209
     atom   37 type  5   force =    -0.00000423    0.00000822    0.00000848
     atom   38 type  5   force =     0.00000042   -0.00000634   -0.00001189
     atom   39 type  5   force =     0.00000981    0.00000510   -0.00000977
     atom   40 type  5   force =    -0.00000999    0.00000450   -0.00001853
     atom   41 type  5   force =     0.00000603   -0.00001936    0.00000472
     atom   42 type  5   force =    -0.00001545   -0.00000361    0.00000510
     atom   43 type  3   force =    -0.00000229   -0.00000244    0.00000073
     atom   44 type  3   force =    -0.00001617    0.00004218   -0.00000176
     atom   45 type  3   force =     0.00000481   -0.00000172    0.00000536
     atom   46 type  3   force =     0.00000123    0.00001645   -0.00003537
     atom   47 type  3   force =     0.00000703    0.00000857    0.00000195
     atom   48 type  3   force =     0.00000848    0.00000205    0.00000250
     atom   49 type  3   force =     0.00000779   -0.00000017    0.00000034
     atom   50 type  3   force =     0.00000031    0.00000651    0.00000411
     atom   51 type  3   force =     0.00000093   -0.00000673    0.00000311
     atom   52 type  3   force =     0.00000474   -0.00000246   -0.00000028
     atom   53 type  3   force =     0.00000542    0.00000862   -0.00000321
     atom   54 type  3   force =     0.00000017   -0.00001439   -0.00000297
     atom   55 type  3   force =    -0.00000169   -0.00000508   -0.00000038
     atom   56 type  3   force =    -0.00000428   -0.00000271    0.00000840
     atom   57 type  3   force =     0.00000537    0.00000658    0.00000488
     atom   58 type  3   force =     0.00000085   -0.00001143   -0.00000638
     atom   59 type  3   force =     0.00000401   -0.00000525    0.00000149
     atom   60 type  3   force =    -0.00000088    0.00000139    0.00000154
     atom   61 type  3   force =    -0.00004319    0.00000206    0.00000197
     atom   62 type  3   force =    -0.00000301   -0.00000198   -0.00000499
     atom   63 type  3   force =     0.00000468    0.00000018   -0.00000487
     atom   64 type  3   force =    -0.00000501   -0.00000915   -0.00000961
     atom   65 type  3   force =     0.00000111    0.00001380    0.00000845
     atom   66 type  3   force =     0.00000631    0.00000721   -0.00001157
     atom   67 type  3   force =     0.00000149    0.00000421   -0.00000631
     atom   68 type  3   force =    -0.00000699   -0.00000508    0.00000605
     atom   69 type  3   force =     0.00000511    0.00000523    0.00000054
     atom   70 type  3   force =     0.00000112   -0.00000088   -0.00000425
     atom   71 type  3   force =    -0.00000121    0.00000884    0.00000835
     atom   72 type  3   force =    -0.00000553    0.00000454    0.00000129
     atom   73 type  3   force =    -0.00000670   -0.00000310    0.00000809
     atom   74 type  3   force =    -0.00001396    0.00000252   -0.00000508
     atom   75 type  3   force =     0.00000035    0.00000326   -0.00000284
     atom   76 type  3   force =     0.00000832   -0.00000929    0.00000720
     atom   77 type  3   force =     0.00000206    0.00000146   -0.00000643
     atom   78 type  3   force =    -0.00000510   -0.00000195    0.00000561
     atom   79 type  3   force =    -0.00000928    0.00000844   -0.00000157
     atom   80 type  3   force =     0.00000033   -0.00000768   -0.00000144
     atom   81 type  3   force =     0.00000357   -0.00000517    0.00000792
     atom   82 type  3   force =    -0.00000449    0.00000761   -0.00000164
     atom   83 type  3   force =    -0.00001410    0.00000040    0.00000037
     atom   84 type  3   force =     0.00000752   -0.00000810   -0.00000267
     atom   85 type  3   force =     0.00000856    0.00000390   -0.00000288
     atom   86 type  3   force =    -0.00000660    0.00000996   -0.00000680
     atom   87 type  3   force =     0.00001585   -0.00000168   -0.00000076
     atom   88 type  3   force =    -0.00000060   -0.00000259   -0.00000206
     atom   89 type  3   force =     0.00000182    0.00000153    0.00000446
     atom   90 type  3   force =    -0.00000305   -0.00001024   -0.00000655
     atom   91 type  1   force =    -0.00001277    0.00000235   -0.00000422
     atom   92 type  1   force =    -0.00000885   -0.00001262    0.00000312
     atom   93 type  1   force =     0.00000164   -0.00000501   -0.00000240
     atom   94 type  1   force =     0.00000109    0.00000949    0.00001017
     atom   95 type  1   force =    -0.00000150   -0.00000915   -0.00000647
     atom   96 type  1   force =     0.00001100   -0.00000433    0.00000510
     atom   97 type  1   force =    -0.00000389   -0.00000150    0.00000531
     atom   98 type  1   force =     0.00000703    0.00000795   -0.00000486
     atom   99 type  1   force =    -0.00000127    0.00000085   -0.00000159
     atom  100 type  1   force =    -0.00000176   -0.00000413    0.00000944
     atom  101 type  1   force =     0.00000174    0.00000612   -0.00000002
     atom  102 type  1   force =     0.00000612   -0.00000118   -0.00000256
     atom  103 type  1   force =    -0.00000038   -0.00000128   -0.00000735
     atom  104 type  1   force =    -0.00000801    0.00000304    0.00000173
     atom  105 type  1   force =    -0.00000180   -0.00000337    0.00000896
     atom  106 type  1   force =    -0.00000093   -0.00000914    0.00000123
     atom  107 type  1   force =    -0.00000435    0.00000781   -0.00000253
     atom  108 type  1   force =     0.00000656    0.00000246   -0.00000110
     atom  109 type  1   force =     0.00000359   -0.00000559   -0.00000278
     atom  110 type  1   force =     0.00000911   -0.00000475   -0.00000770
     atom  111 type  1   force =     0.00000405   -0.00000873    0.00001596
     atom  112 type  1   force =     0.00001083   -0.00000148   -0.00001154
     atom  113 type  1   force =    -0.00000576   -0.00000528    0.00000473
     atom  114 type  1   force =    -0.00000092    0.00000067    0.00000301
     atom  115 type  1   force =    -0.00000598    0.00001760    0.00000166
     atom  116 type  1   force =    -0.00000432   -0.00000067    0.00000766
     atom  117 type  1   force =     0.00000704    0.00000823    0.00000927
     atom  118 type  1   force =     0.00000225    0.00000025    0.00000434
     atom  119 type  1   force =    -0.00001214    0.00000491   -0.00000726
     atom  120 type  1   force =     0.00000020   -0.00000371   -0.00000496

     Total force =     0.000144     Total SCF correction =     0.000115
     SCF correction compared to forces is large: reduce conv_thr to get better values


     Computing stress (Cartesian axis) and pressure


     negative rho (up, down):  2.724E-05 0.000E+00
          total   stress  (Ry/bohr**3)                   (kbar)     P=       -0.05
  -0.00000031   0.00000001   0.00000002           -0.05        0.00        0.00
   0.00000001  -0.00000033   0.00000000            0.00       -0.05        0.00
   0.00000002   0.00000000  -0.00000033            0.00        0.00       -0.05


     BFGS Geometry Optimization
     Energy error            =      0.0E+00 Ry
     Gradient error          =      4.3E-05 Ry/Bohr
     Cell gradient error     =      4.9E-02 kbar

     number of scf cycles    =   1
     number of bfgs steps    =   0

     enthalpy           new  =   -4185.7277305044 Ry

     new trust radius        =       0.0002061265 bohr
     new conv_thr            =       0.0000000100 Ry

     new unit-cell volume =  15323.13292 a.u.^3 (  2270.65403 Ang^3 )
     density =      1.25644 g/cm^3

CELL_PARAMETERS (alat= 27.52059178)
   0.999437966  -0.001435608  -0.001028427
   0.472795382   0.880535483  -0.001028524
   0.472795404   0.282315478   0.834051568

ATOMIC_POSITIONS (crystal)
Zr               0.8749136723        0.1200174368        0.1244976410
Zr               0.1244976013        0.8749138053        0.1200175468
Zr               0.1200174074        0.1244976113        0.8749137612
Zr               0.8835663108        0.8801374368        0.1271336258
Zr               0.1271339081        0.8835662803        0.8801372302
Zr               0.8801371680        0.1271339083        0.8835661716
O                0.9170721697        0.2641789560        0.0861959312
O                0.0861958068        0.9170718479        0.2641791136
O                0.2641788789        0.0861958511        0.9170718834
O                0.9152793368        0.0879019306        0.7376358580
O                0.0879028809        0.7376363073        0.9152783813
O                0.7376366631        0.9152785470        0.0879021764
O                0.9203452338        0.7629706055        0.0455753331
O                0.7629705353        0.0455754373        0.9203446339
O                0.2449927809        0.9530584830        0.0827412929
O                0.0455756209        0.9203443577        0.7629711961
O                0.8368816450        0.0467116858        0.0500724527
O                0.0500724380        0.8368818154        0.0467116209
O                0.0827413569        0.2449930099        0.9530580657
O                0.9530583663        0.0827411994        0.2449929363
O                0.2675781543        0.7357039264        0.0808496778
O                0.0808498586        0.2675780718        0.7357039486
O                0.7282919891        0.2628445896        0.0826275403
O                0.9241783388        0.7349894148        0.2645215998
O                0.2645216201        0.9241785555        0.7349891652
O                0.7349892813        0.2645221484        0.9241784384
O                0.0467116988        0.0500722885        0.8368819285
O                0.7452158941        0.9185242292        0.2747467988
O                0.0826271091        0.7282921471        0.2628447508
O                0.9574214424        0.9543437203        0.1643515181
O                0.9543437242        0.1643516285        0.9574216411
O                0.1643513446        0.9574216880        0.9543438104
O                0.9185246077        0.2747473976        0.7452155253
O                0.2628447064        0.0826273172        0.7282922173
O                0.2747473063        0.7452163119        0.9185239569
O                0.7357039033        0.0808494226        0.2675782506
N                0.7992493915        0.4599194129        0.1167259666
N                0.1167247883        0.7992487344        0.4599195391
N                0.4599197987        0.1167245572        0.7992485379
N                0.8167456143        0.5986961078        0.4318247477
N                0.5986957362        0.4318245444        0.8167462493
N                0.4318248066        0.8167457952        0.5986957247
C                0.0038305161        0.7080343338        0.9843847434
C                0.9843840047        0.0038313129        0.7080344203
C                0.0150408819       -0.0012011400        0.2987930501
C                0.7080346220        0.9843856579        0.0038289359
C               -0.0042655611        0.4051070902        0.0079095230
C                0.4051069135        0.0079098019       -0.0042658979
C                0.2987927984        0.0150409860       -0.0012008824
C               -0.0012008113        0.2987928880        0.0150409112
C                0.8980792255        0.4793857876        0.0585395105
C                0.0585390455        0.8980783502        0.4793864088
C                0.0979428425        0.5298325175        0.9414150636
C                0.9920169972        0.0019826483        0.6026934746
C                0.0019837020        0.6026932063        0.9920166043
C                0.6026932115        0.9920169318        0.0019831270
C                0.0079094108       -0.0042659956        0.4051072758
C                0.9501273831        0.0933056848        0.4331171427
C                0.3107486056        0.7000496788        0.9994269384
C                0.7000497143        0.9994267705        0.3107483775
C                0.9994258885        0.3107484413        0.7000496080
C                0.5941816422        0.4067130947       -0.0016522055
C                0.0028176472        0.6910209897        0.3056553708
C                0.6910207871        0.3056553518        0.0028175583
C                0.9414153916        0.0979425113        0.5298326664
C                0.5776181549        0.0487274475        0.9045009980
C                0.4331168843        0.9501280679        0.0933059656
C                0.0933062261        0.4331169955        0.9501269296
C                0.0487271855        0.9045014855        0.5776183017
C                0.5298321333        0.9414163510        0.0979422051
C                0.9045019875        0.5776180192        0.0487276562
C                0.4793858784        0.0585390702        0.8980785184
C                0.4481939321        0.0872823690        0.5409816890
C                0.9117064158        0.4598120222        0.5596920872
C                0.5596923733        0.9117067938        0.4598116393
C                0.9078319546        0.5523153647        0.4638210762
C                0.4638209851        0.9078319069        0.5523151639
C                0.5986364055        1.0002421306        0.4093282174
C                0.5523151029        0.4638210757        0.9078319482
C                0.4598119047        0.5596921899        0.9117068378
C                0.0872823492        0.5409816718        0.4481944979
C                0.5409813324        0.4481942504        0.0872826484
C               -0.0016527605        0.5941819991        0.4067132218
C                0.4501870355        0.5422049110        0.0897841000
C                0.5422053303        0.0897840182        0.4501867374
C                0.0897836083        0.4501873428        0.5422050636
C                1.0002426611        0.4093281669        0.5986363583
C                0.4067131236       -0.0016522533        0.5941815013
C                0.4093280893        0.5986365060        1.0002425521
C                0.3056554644        0.0028175960        0.6910204774
H                0.1740804663        0.5499648582        0.8976094227
H                0.8976102194        0.1740798369        0.5499650422
H                0.8311277712        0.6355972396        0.0866482623
H                0.1664311258        0.3746410759        0.9128621187
H                0.5499645584        0.8976112029        0.1740801222
H                0.9128629081        0.1664309052        0.3746410706
H                0.6355974272        0.0866475813        0.8311266736
H                0.3746405048        0.9128638983        0.1664312171
H                0.0866478616        0.8311266952        0.6355977380
H                0.5727274255        0.1593408241        0.4095847092
H                0.1593408469        0.4095848823        0.5727276834
H                0.4095844913        0.5727273032        0.1593412953
H                0.5735079017        0.4022056137        0.1559500695
H                0.1559495653        0.5735082677        0.4022060769
H                0.4271711317        0.6050143343        0.8430664156
H                0.4022058086        0.1559498448        0.5735078453
H                0.6050144164        0.8430663020        0.4271709404
H                0.7928981669        0.3931797698        0.1171330349
H                0.7303796410        0.5246880848        0.1292281490
H                0.8430663527        0.4271712827        0.6050140476
H                0.8201822697        0.6571150627        0.3567574614
H                0.3567573185        0.8201826521        0.6571149426
H                0.7654171504        0.5545382975        0.4652111953
H                0.1292267287        0.7303786011        0.5246888868
H                0.6571147828        0.3567573518        0.8201825876
H                0.5246884795        0.1292261086        0.7303788441
H                0.1171317468        0.7928974009        0.3931805362
H                0.3931799847        0.1171314696        0.7928974899
H                0.5545381632        0.4652115164        0.7654169928
H                0.4652112730        0.7654168159        0.5545386266



     Writing config-only to output data dir ./pwscf.save/ :
     XML data file
     NEW-OLD atomic charge density approx. for the potential

     negative rho (up, down):  2.723E-05 0.000E+00

     total cpu time spent up to now is      255.6 secs

     Self-consistent Calculation

     iteration #  1     ecut=   100.00 Ry     beta= 0.70
     Davidson diagonalization with overlap
     ethr =  1.00E-06,  avg # of iterations =  2.0

     Threshold (ethr) on eigenvalues was too large:
     Diagonalizing with lowered threshold

     Davidson diagonalization with overlap
     ethr =  7.15E-12,  avg # of iterations =  8.0

     negative rho (up, down):  2.724E-05 0.000E+00

     total cpu time spent up to now is      276.0 secs

     total energy              =   -4185.72773058 Ry
     estimated scf accuracy    <       0.00000003 Ry

     iteration #  2     ecut=   100.00 Ry     beta= 0.70
     Davidson diagonalization with overlap
     ethr =  6.72E-12,  avg # of iterations = 10.0

     negative rho (up, down):  2.724E-05 0.000E+00

     total cpu time spent up to now is      287.2 secs

     total energy              =   -4185.72773058 Ry
     estimated scf accuracy    <       0.00000006 Ry

     iteration #  3     ecut=   100.00 Ry     beta= 0.70
     Davidson diagonalization with overlap
     ethr =  6.72E-12,  avg # of iterations =  8.0

     negative rho (up, down):  2.724E-05 0.000E+00

     total cpu time spent up to now is      295.5 secs

     End of self-consistent calculation

          k = 0.0000 0.0000 0.0000 (129297 PWs)   bands (ev):

   -49.2818 -49.2658 -49.2658 -49.2508 -49.2476 -49.2475 -27.7856 -27.6804
   -27.6803 -27.5785 -27.5784 -27.5706 -27.4374 -27.3940 -27.3939 -27.3871
   -27.3871 -27.3596 -27.2877 -27.2877 -27.2513 -27.2360 -27.2360 -27.2359
   -22.4728 -22.4341 -22.4341 -22.4086 -22.4086 -22.3912 -22.2180 -22.1737
   -22.1506 -22.1505 -22.1143 -22.1143 -20.1861 -20.1695 -20.1695 -20.1334
   -20.1334 -20.0984 -19.9625 -19.9625 -19.9115 -19.9114 -19.8623 -19.8266
   -18.7049 -18.7013 -18.7012 -18.4522 -18.4521 -18.4521 -17.6689 -17.4425
   -17.4425 -17.2488 -17.2488 -17.2147 -16.5673 -16.5673 -16.5668 -16.3437
   -16.3435 -16.3435 -14.6168 -14.6168 -14.6088 -14.3917 -14.3716 -14.3716
   -13.6574 -13.6573 -13.6530 -13.4377 -13.4370 -13.4370 -11.9893 -11.9631
   -11.9631 -11.7637 -11.7118 -11.7118 -10.6566 -10.6529 -10.6529 -10.4259
   -10.4259 -10.4159  -9.9308  -9.9308  -9.8050  -9.7214  -9.6143  -9.5516
    -9.5516  -9.5217  -9.5217  -9.3941  -9.3171  -9.3171  -8.6571  -8.6070
    -8.6070  -8.3992  -8.3520  -8.3520  -8.2488  -8.0937  -8.0936  -8.0089
    -7.9687  -7.9687  -7.8189  -7.7537  -7.7537  -7.6364  -7.6364  -7.5991
    -7.5143  -7.5143  -7.4378  -7.4378  -7.4225  -7.3300  -7.3202  -7.3201
    -7.2333  -7.1460  -7.1460  -6.9546  -6.9546  -6.9408  -6.9313  -6.8002
    -6.7585  -6.7585  -6.7220  -6.5390  -6.5389  -6.4429  -6.4429  -6.4184
    -6.3478  -6.2175  -6.2175  -6.1552  -6.0164  -6.0164  -6.0025  -5.9598
    -5.9598  -5.8872  -5.8623  -5.8623  -5.7545  -5.7545  -5.7438  -5.6590
    -5.6569  -5.6569  -5.4210  -5.3502  -5.3502  -5.1706  -5.0074  -4.9949
    -4.9949  -4.9367  -4.9367  -4.8059  -4.7667  -4.7481  -4.7480  -4.5927
    -4.5927  -4.5648  -4.5437  -4.5437  -4.4677  -4.0737  -4.0736  -4.0541
    -3.9340  -3.9206  -3.9206  -3.8688  -3.8688  -3.8180  -3.8180  -3.7710
    -3.6917  -3.6917  -3.5207  -3.3303  -3.3303  -3.3232  -3.2635  -3.2464
    -3.2464  -3.1893  -3.1461  -3.0844  -3.0843  -3.0351  -2.9984  -2.9984
    -2.9097  -2.9097  -2.9031  -2.7866  -2.7866  -2.7771  -2.7753  -2.6654
    -2.6654  -2.6166  -2.6166  -2.5584  -2.5584  -2.4937  -2.4005  -2.3601
    -2.3601  -2.3498  -2.2607  -2.2607  -2.2304  -2.1955  -2.1955  -2.1684
    -2.1393  -2.1393  -2.0569  -2.0553  -2.0553  -1.9751  -1.9751  -1.9459
    -1.7685  -1.7365  -1.7365  -1.3222  -1.3222  -1.1855  -0.6783  -0.6783
    -0.6643  -0.4591  -0.4415  -0.4415

     highest occupied level (ev):    -0.4415

!    total energy              =   -4185.72773059 Ry
     total all-electron energy =    -52053.937600 Ry
     estimated scf accuracy    <          1.6E-09 Ry

     The total energy is the sum of the following terms:
     one-electron contribution =   -6006.40023208 Ry
     hartree contribution      =    3151.88424056 Ry
     xc contribution           =    -609.65002451 Ry
     ewald contribution        =    1169.93756561 Ry
     one-center paw contrib.   =   -1891.49928017 Ry

     convergence has been achieved in   3 iterations

     negative rho (up, down):  2.724E-05 0.000E+00

     Forces acting on atoms (cartesian axes, Ry/au):

     atom    1 type  2   force =     0.00000088    0.00001793    0.00000087
     atom    2 type  2   force =     0.00001301   -0.00000643    0.00001439
     atom    3 type  2   force =     0.00001328    0.00001232   -0.00000648
     atom    4 type  2   force =    -0.00001103   -0.00001139    0.00000199
     atom    5 type  2   force =    -0.00001004   -0.00002072   -0.00001022
     atom    6 type  2   force =    -0.00001499    0.00000831    0.00000085
     atom    7 type  4   force =    -0.00001140    0.00000042    0.00000846
     atom    8 type  4   force =     0.00000298   -0.00001668   -0.00000239
     atom    9 type  4   force =    -0.00000057    0.00000450   -0.00001118
     atom   10 type  4   force =    -0.00001221    0.00005903    0.00001048
     atom   11 type  4   force =     0.00000531   -0.00000404   -0.00000274
     atom   12 type  4   force =    -0.00000703    0.00000265    0.00000251
     atom   13 type  4   force =    -0.00001813    0.00002283    0.00001782
     atom   14 type  4   force =     0.00001970    0.00001180   -0.00003900
     atom   15 type  4   force =    -0.00000001   -0.00000724    0.00001930
     atom   16 type  4   force =    -0.00000524   -0.00000234    0.00000152
     atom   17 type  4   force =     0.00000137    0.00000424   -0.00000387
     atom   18 type  4   force =     0.00000424    0.00000020    0.00000158
     atom   19 type  4   force =     0.00001277   -0.00000498   -0.00001157
     atom   20 type  4   force =    -0.00000661    0.00001850   -0.00000256
     atom   21 type  4   force =     0.00000882    0.00000918    0.00001622
     atom   22 type  4   force =    -0.00000182    0.00000568   -0.00000220
     atom   23 type  4   force =     0.00000555   -0.00000046    0.00001425
     atom   24 type  4   force =    -0.00002050    0.00000025   -0.00000948
     atom   25 type  4   force =    -0.00001685   -0.00001554    0.00000209
     atom   26 type  4   force =    -0.00000820   -0.00002819   -0.00002372
     atom   27 type  4   force =    -0.00000323    0.00000864   -0.00000357
     atom   28 type  4   force =    -0.00000578   -0.00001964   -0.00000543
     atom   29 type  4   force =     0.00002222   -0.00000200   -0.00000585
     atom   30 type  4   force =    -0.00000186    0.00000070    0.00000834
     atom   31 type  4   force =    -0.00000515    0.00000538   -0.00000663
     atom   32 type  4   force =     0.00000583   -0.00000784   -0.00000122
     atom   33 type  4   force =    -0.00005147   -0.00001179    0.00002044
     atom   34 type  4   force =     0.00000465    0.00001300   -0.00000460
     atom   35 type  4   force =    -0.00000968   -0.00000188   -0.00001153
     atom   36 type  4   force =     0.00001136    0.00001472   -0.00000237
     atom   37 type  5   force =     0.00000130   -0.00001302    0.00000994
     atom   38 type  5   force =     0.00001633   -0.00000410    0.00001067
     atom   39 type  5   force =    -0.00001281    0.00001190    0.00000562
     atom   40 type  5   force =    -0.00000506   -0.00001746    0.00002748
     atom   41 type  5   force =    -0.00002539    0.00002238   -0.00001922
     atom   42 type  5   force =     0.00000963   -0.00001051   -0.00001609
     atom   43 type  3   force =     0.00000529   -0.00001504   -0.00001179
     atom   44 type  3   force =     0.00001462   -0.00006321   -0.00001080
     atom   45 type  3   force =     0.00000039    0.00001300    0.00000609
     atom   46 type  3   force =    -0.00001552   -0.00001998    0.00004399
     atom   47 type  3   force =    -0.00000634   -0.00000585    0.00000645
     atom   48 type  3   force =    -0.00000486    0.00000461   -0.00000299
     atom   49 type  3   force =     0.00000837   -0.00000234    0.00000690
     atom   50 type  3   force =     0.00001018    0.00000370   -0.00000749
     atom   51 type  3   force =    -0.00000008    0.00001140    0.00000808
     atom   52 type  3   force =     0.00000503   -0.00000218   -0.00000240
     atom   53 type  3   force =    -0.00000307   -0.00000814   -0.00000270
     atom   54 type  3   force =    -0.00000000    0.00002301    0.00000605
     atom   55 type  3   force =     0.00000293    0.00000817    0.00000041
     atom   56 type  3   force =     0.00000810    0.00000485   -0.00001644
     atom   57 type  3   force =     0.00000320   -0.00001173   -0.00000386
     atom   58 type  3   force =     0.00000561    0.00001728    0.00000855
     atom   59 type  3   force =     0.00000416   -0.00000410    0.00000342
     atom   60 type  3   force =    -0.00000305    0.00001134    0.00000863
     atom   61 type  3   force =     0.00006684    0.00000603   -0.00001663
     atom   62 type  3   force =    -0.00000268   -0.00000032   -0.00000266
     atom   63 type  3   force =    -0.00000582   -0.00001176    0.00001117
     atom   64 type  3   force =    -0.00000500    0.00001857    0.00001294
     atom   65 type  3   force =    -0.00000372   -0.00001354   -0.00000532
     atom   66 type  3   force =    -0.00000473    0.00000321    0.00000610
     atom   67 type  3   force =    -0.00000053    0.00000095    0.00000653
     atom   68 type  3   force =     0.00001277    0.00000891   -0.00000266
     atom   69 type  3   force =     0.00000654   -0.00002077   -0.00000023
     atom   70 type  3   force =     0.00000309   -0.00000450    0.00001023
     atom   71 type  3   force =    -0.00000328   -0.00000823    0.00000427
     atom   72 type  3   force =     0.00001163    0.00000639   -0.00000907
     atom   73 type  3   force =     0.00000614    0.00000443   -0.00000377
     atom   74 type  3   force =     0.00001468   -0.00001082    0.00000826
     atom   75 type  3   force =    -0.00000673   -0.00000836    0.00000031
     atom   76 type  3   force =    -0.00002024    0.00000683   -0.00000991
     atom   77 type  3   force =    -0.00000822   -0.00000665    0.00000370
     atom   78 type  3   force =     0.00000974    0.00001001   -0.00000737
     atom   79 type  3   force =     0.00000441   -0.00001387   -0.00000096
     atom   80 type  3   force =    -0.00000916    0.00000836   -0.00000175
     atom   81 type  3   force =    -0.00000669    0.00001466   -0.00001814
     atom   82 type  3   force =     0.00001185   -0.00001757    0.00000109
     atom   83 type  3   force =     0.00001188   -0.00000431    0.00000196
     atom   84 type  3   force =    -0.00000138    0.00001856    0.00000804
     atom   85 type  3   force =    -0.00000113    0.00000046    0.00000729
     atom   86 type  3   force =     0.00002094   -0.00000869    0.00001465
     atom   87 type  3   force =    -0.00002122    0.00000215    0.00000211
     atom   88 type  3   force =    -0.00000423   -0.00000572    0.00000070
     atom   89 type  3   force =     0.00000007   -0.00000042   -0.00000076
     atom   90 type  3   force =     0.00000577    0.00000581   -0.00000863
     atom   91 type  1   force =     0.00000766    0.00000462   -0.00001539
     atom   92 type  1   force =    -0.00000784    0.00001695    0.00000941
     atom   93 type  1   force =    -0.00000703    0.00001440    0.00000779
     atom   94 type  1   force =     0.00000743   -0.00000744    0.00000187
     atom   95 type  1   force =     0.00000442   -0.00001161    0.00000476
     atom   96 type  1   force =     0.00000335    0.00000566   -0.00000737
     atom   97 type  1   force =     0.00001040    0.00000355   -0.00001645
     atom   98 type  1   force =    -0.00000135    0.00000543    0.00000689
     atom   99 type  1   force =     0.00000492   -0.00000731    0.00000739
     atom  100 type  1   force =     0.00001262    0.00001147   -0.00000184
     atom  101 type  1   force =     0.00000679    0.00000435    0.00000164
     atom  102 type  1   force =     0.00000751    0.00000496    0.00000534
     atom  103 type  1   force =     0.00000653   -0.00000381    0.00000212
     atom  104 type  1   force =     0.00000602    0.00000576   -0.00000574
     atom  105 type  1   force =    -0.00001094    0.00000087   -0.00000358
     atom  106 type  1   force =    -0.00000101    0.00000728    0.00000814
     atom  107 type  1   force =    -0.00000453   -0.00000649   -0.00000839
     atom  108 type  1   force =    -0.00000404   -0.00000823    0.00000107
     atom  109 type  1   force =    -0.00001080    0.00002048    0.00000212
     atom  110 type  1   force =    -0.00001230   -0.00000911    0.00000404
     atom  111 type  1   force =    -0.00000231    0.00001077   -0.00002541
     atom  112 type  1   force =    -0.00001620    0.00000610    0.00001516
     atom  113 type  1   force =    -0.00001216   -0.00000567    0.00000405
     atom  114 type  1   force =     0.00000063   -0.00000665    0.00000773
     atom  115 type  1   force =     0.00000845   -0.00002569    0.00000176
     atom  116 type  1   force =     0.00001468   -0.00000446   -0.00002127
     atom  117 type  1   force =    -0.00000928   -0.00000615   -0.00001800
     atom  118 type  1   force =    -0.00000556    0.00000159    0.00000014
     atom  119 type  1   force =    -0.00000322   -0.00000051   -0.00000333
     atom  120 type  1   force =    -0.00000361   -0.00001403   -0.00000916

     Total force =     0.000232     Total SCF correction =     0.000086
     SCF correction compared to forces is large: reduce conv_thr to get better values


     Computing stress (Cartesian axis) and pressure


     negative rho (up, down):  2.724E-05 0.000E+00
          total   stress  (Ry/bohr**3)                   (kbar)     P=       -0.02
  -0.00000016   0.00000001  -0.00000001           -0.02        0.00       -0.00
   0.00000001  -0.00000015   0.00000000            0.00       -0.02        0.00
  -0.00000001   0.00000000  -0.00000016           -0.00        0.00       -0.02

     Energy error            =      9.0E-08 Ry
     Gradient error          =      6.7E-05 Ry/Bohr
     Cell gradient error     =      2.4E-02 kbar

     number of scf cycles    =   2
     number of bfgs steps    =   1

     enthalpy           old  =   -4185.7277305044 Ry
     enthalpy           new  =   -4185.7277305947 Ry

     CASE: enthalpy          _new < enthalpy          _old

     new trust radius        =       0.0003341848 bohr
     new conv_thr            =            1.0E-10 Ry

     new unit-cell volume =  15322.52528 a.u.^3 (  2270.56399 Ang^3 )
     density =      1.25649 g/cm^3

CELL_PARAMETERS (alat= 27.52059178)
   0.999425008  -0.001435020  -0.001028409
   0.472789754   0.880524134  -0.001028308
   0.472789439   0.282312212   0.834040377

ATOMIC_POSITIONS (crystal)
Zr               0.8749133247        0.1200185094        0.1244974407
Zr               0.1244979471        0.8749132755        0.1200185913
Zr               0.1200178948        0.1244980688        0.8749135936
Zr               0.8835661696        0.8801368165        0.1271335985
Zr               0.1271341028        0.8835654659        0.8801364338
Zr               0.8801358502        0.1271344071        0.8835661099
O                0.9170716152        0.2641788804        0.0861961769
O                0.0861961690        0.9170711531        0.2641790350
O                0.2641788938        0.0861961053        0.9170713057
O                0.9152778037        0.0879041624        0.7376360253
O                0.0879035764        0.7376360360        0.9152780315
O                0.7376362624        0.9152780987        0.0879030598
O                0.9203433796        0.7629715242        0.0455762402
O                0.7629715619        0.0455762211        0.9203429006
O                0.2449926711        0.9530574402        0.0827427893
O                0.0455757606        0.9203434946        0.7629716470
O                0.8368819771        0.0467118292        0.0500724231
O                0.0500726300        0.8368821343        0.0467116421
O                0.0827427662        0.2449930019        0.9530570282
O                0.9530572847        0.0827426686        0.2449928708
O                0.2675780911        0.7357042117        0.0808507091
O                0.0808503344        0.2675781884        0.7357041180
O                0.7282916381        0.2628444750        0.0826284253
O                0.9241777587        0.7349894277        0.2645209644
O                0.2645210178        0.9241779499        0.7349891567
O                0.7349896616        0.2645211595        0.9241775580
O                0.0467114385        0.0500727243        0.8368821876
O                0.7452161289        0.9185234226        0.2747464599
O                0.0826282139        0.7282917188        0.2628446624
O                0.9574210763        0.9543436784        0.1643519054
O                0.9543435932        0.1643520178        0.9574211644
O                0.1643517401        0.9574212174        0.9543438008
O                0.9185229532        0.2747466471        0.7452162374
O                0.2628446511        0.0826283696        0.7282917753
O                0.2747470575        0.7452164113        0.9185233172
O                0.7357041894        0.0808503481        0.2675781984
N                0.7992491982        0.4599187012        0.1167269111
N                0.1167257967        0.7992482092        0.4599196781
N                0.4599191161        0.1167254522        0.7992484644
N                0.8167451203        0.5986950252        0.4318256068
N                0.5986947562        0.4318253420        0.8167453025
N                0.4318253328        0.8167452994        0.5986949804
C                0.0038313610        0.7080336058        0.9843840725
C                0.9843852921        0.0038296510        0.7080337036
C                0.0150405662       -0.0012006638        0.2987936367
C                0.7080337536        0.9843848166        0.0038300741
C               -0.0042657845        0.4051069503        0.0079099880
C                0.4051068302        0.0079101665       -0.0042659711
C                0.2987934143        0.0150407119       -0.0012004572
C               -0.0012004279        0.2987934429        0.0150406379
C                0.8980788801        0.4793859678        0.0585401213
C                0.0585396139        0.8980781802        0.4793862547
C                0.0979430291        0.5298324944        0.9414147690
C                0.9920165833        0.0019832993        0.6026937112
C                0.0019836629        0.6026934629        0.9920166129
C                0.6026935867        0.9920172995        0.0019825006
C                0.0079099548       -0.0042663873        0.4051072498
C                0.9501273668        0.0933061286        0.4331173854
C                0.3107490741        0.7000491553        0.9994272042
C                0.7000490183        0.9994272790        0.3107489548
C                0.9994277917        0.3107491554        0.7000487039
C                0.5941815678        0.4067131157       -0.0016525724
C                0.0028176839        0.6910201858        0.3056558314
C                0.6910199225        0.3056559171        0.0028179265
C                0.9414153365        0.0979422826        0.5298327025
C                0.5776179584        0.0487279520        0.9045008776
C                0.4331167657        0.9501282478        0.0933060905
C                0.0933064434        0.4331172667        0.9501270249
C                0.0487281409        0.9045005202        0.5776183109
C                0.5298323238        0.9414159248        0.0979426363
C                0.9045016432        0.5776177113        0.0487282585
C                0.4793861630        0.0585397659        0.8980780338
C                0.4481939071        0.0872824593        0.5409818028
C                0.9117068094        0.4598114231        0.5596923662
C                0.5596922455        0.9117064840        0.4598115388
C                0.9078313251        0.5523154740        0.4638207863
C                0.4638208143        0.9078316057        0.5523151145
C                0.5986365463        1.0002426833        0.4093280140
C                0.5523152500        0.4638206672        0.9078318253
C                0.4598114356        0.5596924090        0.9117066734
C                0.0872820880        0.5409825329        0.4481937498
C                0.5409820910        0.4481935632        0.0872826451
C               -0.0016525972        0.5941817302        0.4067133536
C                0.4501867681        0.5422055185        0.0897844673
C                0.5422053866        0.0897840982        0.4501870507
C                0.0897842737        0.4501870597        0.5422056523
C                1.0002421046        0.4093281911        0.5986364510
C                0.4067131082       -0.0016526637        0.5941814560
C                0.4093280937        0.5986364980        1.0002426930
C                0.3056559339        0.0028177714        0.6910196905
H                0.1740805846        0.5499655620        0.8976083315
H                0.8976090849        0.1740800698        0.5499657319
H                0.8311270726        0.6355977357        0.0866486255
H                0.1664313809        0.3746408604        0.9128626552
H                0.5499652022        0.8976101834        0.1740801344
H                0.9128634601        0.1664311258        0.3746408465
H                0.6355979839        0.0866479655        0.8311259181
H                0.3746403228        0.9128644523        0.1664314244
H                0.0866481209        0.8311261976        0.6355981112
H                0.5727276705        0.1593412161        0.4095849951
H                0.1593409830        0.4095853390        0.5727277807
H                0.4095848989        0.5727274690        0.1593415069
H                0.5735083958        0.4022054069        0.1559498889
H                0.1559494606        0.5735087987        0.4022058082
H                0.4271705143        0.6050141979        0.8430665758
H                0.4022055307        0.1559497214        0.5735083809
H                0.6050142608        0.8430664389        0.4271703355
H                0.7928983621        0.3931793982        0.1171330526
H                0.7303787860        0.5246890135        0.1292281589
H                0.8430664180        0.4271706072        0.6050139656
H                0.8201824440        0.6571155956        0.3567566167
H                0.3567566221        0.8201828016        0.6571153622
H                0.7654164561        0.5545376276        0.4652116321
H                0.1292267049        0.7303780650        0.5246894720
H                0.6571152932        0.3567565450        0.8201827616
H                0.5246894921        0.1292261352        0.7303778995
H                0.1171317610        0.7928975989        0.3931798525
H                0.3931796794        0.1171315076        0.7928976796
H                0.5545376631        0.4652118425        0.7654164909
H                0.4652117862        0.7654161201        0.5545378738



     Writing config-only to output data dir ./pwscf.save/ :
     XML data file
     NEW-OLD atomic charge density approx. for the potential

     negative rho (up, down):  2.723E-05 0.000E+00

     total cpu time spent up to now is      303.2 secs

     Self-consistent Calculation

     iteration #  1     ecut=   100.00 Ry     beta= 0.70
     Davidson diagonalization with overlap
     ethr =  1.00E-06,  avg # of iterations =  2.0

     Threshold (ethr) on eigenvalues was too large:
     Diagonalizing with lowered threshold

     Davidson diagonalization with overlap
     ethr =  2.40E-11,  avg # of iterations =  8.0

     negative rho (up, down):  2.724E-05 0.000E+00

     total cpu time spent up to now is      324.0 secs

     total energy              =   -4185.72773065 Ry
     estimated scf accuracy    <       0.00000005 Ry

     iteration #  2     ecut=   100.00 Ry     beta= 0.70
     Davidson diagonalization with overlap
     ethr =  9.43E-12,  avg # of iterations =  8.0

     negative rho (up, down):  2.724E-05 0.000E+00

     total cpu time spent up to now is      334.9 secs

     total energy              =   -4185.72773066 Ry
     estimated scf accuracy    <       0.00000005 Ry

     iteration #  3     ecut=   100.00 Ry     beta= 0.70
     Davidson diagonalization with overlap
     ethr =  9.43E-12,  avg # of iterations =  7.0

     negative rho (up, down):  2.724E-05 0.000E+00

     total cpu time spent up to now is      342.2 secs

     total energy              =   -4185.72773067 Ry
     estimated scf accuracy    <          4.4E-09 Ry

     iteration #  4     ecut=   100.00 Ry     beta= 0.70
     Davidson diagonalization with overlap
     ethr =  8.79E-13,  avg # of iterations =  8.0

     negative rho (up, down):  2.724E-05 0.000E+00

     total cpu time spent up to now is      353.4 secs

     total energy              =   -4185.72773067 Ry
     estimated scf accuracy    <          1.7E-09 Ry

     iteration #  5     ecut=   100.00 Ry     beta= 0.70
     Davidson diagonalization with overlap
     ethr =  3.36E-13,  avg # of iterations =  6.0

     negative rho (up, down):  2.725E-05 0.000E+00

     total cpu time spent up to now is      359.8 secs

     total energy              =   -4185.72773067 Ry
     estimated scf accuracy    <          3.5E-10 Ry

     iteration #  6     ecut=   100.00 Ry     beta= 0.70
     Davidson diagonalization with overlap
     ethr =  1.00E-13,  avg # of iterations = 10.0

     negative rho (up, down):  2.725E-05 0.000E+00

     total cpu time spent up to now is      369.5 secs

     total energy              =   -4185.72773067 Ry
     estimated scf accuracy    <          1.2E-10 Ry

     iteration #  7     ecut=   100.00 Ry     beta= 0.70
     Davidson diagonalization with overlap
     ethr =  1.00E-13,  avg # of iterations =  2.0

     negative rho (up, down):  2.725E-05 0.000E+00

     total cpu time spent up to now is      375.0 secs

     End of self-consistent calculation

          k = 0.0000 0.0000 0.0000 (129297 PWs)   bands (ev):

   -49.2812 -49.2652 -49.2652 -49.2502 -49.2470 -49.2470 -27.7851 -27.6799
   -27.6799 -27.5780 -27.5780 -27.5701 -27.4369 -27.3934 -27.3934 -27.3866
   -27.3866 -27.3591 -27.2872 -27.2872 -27.2507 -27.2355 -27.2355 -27.2354
   -22.4726 -22.4339 -22.4338 -22.4084 -22.4084 -22.3910 -22.2177 -22.1735
   -22.1503 -22.1503 -22.1141 -22.1141 -20.1859 -20.1693 -20.1692 -20.1332
   -20.1332 -20.0982 -19.9623 -19.9622 -19.9113 -19.9113 -19.8620 -19.8264
   -18.7049 -18.7013 -18.7013 -18.4522 -18.4521 -18.4521 -17.6685 -17.4421
   -17.4421 -17.2484 -17.2484 -17.2143 -16.5674 -16.5674 -16.5668 -16.3437
   -16.3435 -16.3435 -14.6169 -14.6168 -14.6088 -14.3917 -14.3716 -14.3716
   -13.6573 -13.6572 -13.6529 -13.4377 -13.4370 -13.4370 -11.9893 -11.9631
   -11.9631 -11.7638 -11.7119 -11.7118 -10.6566 -10.6529 -10.6529 -10.4259
   -10.4258 -10.4158  -9.9306  -9.9306  -9.8049  -9.7213  -9.6142  -9.5515
    -9.5515  -9.5216  -9.5216  -9.3941  -9.3171  -9.3171  -8.6571  -8.6070
    -8.6070  -8.3991  -8.3519  -8.3519  -8.2487  -8.0935  -8.0935  -8.0088
    -7.9686  -7.9685  -7.8187  -7.7535  -7.7535  -7.6362  -7.6362  -7.5990
    -7.5142  -7.5142  -7.4377  -7.4376  -7.4224  -7.3298  -7.3200  -7.3200
    -7.2332  -7.1459  -7.1459  -6.9545  -6.9545  -6.9407  -6.9311  -6.8001
    -6.7584  -6.7584  -6.7218  -6.5388  -6.5388  -6.4428  -6.4427  -6.4182
    -6.3477  -6.2174  -6.2173  -6.1550  -6.0162  -6.0162  -6.0023  -5.9596
    -5.9596  -5.8871  -5.8622  -5.8622  -5.7544  -5.7544  -5.7437  -5.6589
    -5.6568  -5.6568  -5.4208  -5.3500  -5.3500  -5.1704  -5.0074  -4.9948
    -4.9947  -4.9366  -4.9366  -4.8055  -4.7666  -4.7480  -4.7480  -4.5925
    -4.5925  -4.5646  -4.5434  -4.5434  -4.4674  -4.0735  -4.0735  -4.0540
    -3.9338  -3.9204  -3.9204  -3.8686  -3.8686  -3.8178  -3.8178  -3.7708
    -3.6914  -3.6914  -3.5205  -3.3302  -3.3301  -3.3230  -3.2634  -3.2463
    -3.2462  -3.1889  -3.1460  -3.0842  -3.0842  -3.0349  -2.9982  -2.9982
    -2.9095  -2.9095  -2.9029  -2.7864  -2.7864  -2.7769  -2.7751  -2.6652
    -2.6652  -2.6164  -2.6164  -2.5582  -2.5582  -2.4935  -2.4003  -2.3599
    -2.3598  -2.3496  -2.2605  -2.2605  -2.2301  -2.1953  -2.1953  -2.1682
    -2.1391  -2.1391  -2.0567  -2.0550  -2.0550  -1.9750  -1.9750  -1.9458
    -1.7684  -1.7363  -1.7363  -1.3218  -1.3218  -1.1851  -0.6781  -0.6781
    -0.6641  -0.4589  -0.4414  -0.4414

     highest occupied level (ev):    -0.4414

!    total energy              =   -4185.72773067 Ry
     total all-electron energy =    -52053.937600 Ry
     estimated scf accuracy    <          5.8E-11 Ry

     The total energy is the sum of the following terms:
     one-electron contribution =   -6006.40086691 Ry
     hartree contribution      =    3151.88955118 Ry
     xc contribution           =    -609.65194072 Ry
     ewald contribution        =    1169.93488753 Ry
     one-center paw contrib.   =   -1891.49936175 Ry

     convergence has been achieved in   7 iterations

     negative rho (up, down):  2.725E-05 0.000E+00

     Forces acting on atoms (cartesian axes, Ry/au):

     atom    1 type  2   force =     0.00000504    0.00000294    0.00000681
     atom    2 type  2   force =     0.00000521    0.00000220    0.00000076
     atom    3 type  2   force =     0.00000755   -0.00000239   -0.00000150
     atom    4 type  2   force =    -0.00000829   -0.00000648    0.00000327
     atom    5 type  2   force =     0.00000090    0.00000503   -0.00000404
     atom    6 type  2   force =    -0.00000756   -0.00000471   -0.00001171
[...]
     atom   26 type  4   force =    -0.00000670   -0.00000690   -0.00000442
     atom   27 type  4   force =     0.00000389    0.00000335   -0.00000399
     atom   28 type  4   force =    -0.00000183   -0.00002388   -0.00000904
     atom   29 type  4   force =    -0.00001570   -0.00000545    0.00000445
     atom   30 type  4   force =    -0.00000388   -0.00000318    0.00000389
     atom   31 type  4   force =    -0.00000242    0.00000315   -0.00000270
     atom   32 type  4   force =     0.00000203   -0.00000436   -0.00000358
     atom   33 type  4   force =     0.00000804    0.00000218   -0.00000265
     atom   34 type  4   force =    -0.00000181    0.00000532    0.00000136
     atom   35 type  4   force =     0.00001375    0.00000086    0.00001703
     atom   36 type  4   force =    -0.00000937   -0.00001492    0.00000838
     atom   37 type  5   force =     0.00000105   -0.00002184    0.00000303
     atom   38 type  5   force =     0.00000979   -0.00001307    0.00001271
     atom   39 type  5   force =    -0.00001039    0.00000563    0.00001091
     atom   40 type  5   force =    -0.00000796   -0.00000791    0.00000536
     atom   41 type  5   force =    -0.00002114    0.00000575   -0.00001660
     atom   42 type  5   force =     0.00000029   -0.00001039   -0.00001255
     atom   43 type  3   force =     0.00003684   -0.00002457   -0.00004804
     atom   44 type  3   force =     0.00000363   -0.00001969    0.00000149
     atom   45 type  3   force =     0.00000266    0.00001362    0.00000459
     atom   46 type  3   force =    -0.00000906    0.00001168   -0.00003011
     atom   47 type  3   force =     0.00000794   -0.00000188   -0.00000095
     atom   48 type  3   force =     0.00000548    0.00000223    0.00000503
     atom   49 type  3   force =     0.00000458    0.00000222    0.00000241
     atom   50 type  3   force =    -0.00000177    0.00001021    0.00001076
     atom   51 type  3   force =    -0.00000190    0.00001332    0.00000762
     atom   52 type  3   force =     0.00000003    0.00001564   -0.00000458
     atom   53 type  3   force =     0.00001108   -0.00000392   -0.00000883
     atom   54 type  3   force =    -0.00000669    0.00002423   -0.00000440
     atom   55 type  3   force =    -0.00001759    0.00000792    0.00001214
     atom   56 type  3   force =    -0.00000152    0.00000019   -0.00000589
     atom   57 type  3   force =     0.00000793   -0.00001376    0.00000368
     atom   58 type  3   force =     0.00000247    0.00001687    0.00000339
     atom   59 type  3   force =    -0.00001007   -0.00000525   -0.00002402
     atom   60 type  3   force =     0.00001375    0.00004382    0.00000830
     atom   61 type  3   force =     0.00000353    0.00000052    0.00000120
     atom   62 type  3   force =    -0.00001010   -0.00000021   -0.00001467
     atom   63 type  3   force =     0.00002509   -0.00000719    0.00000237
     atom   64 type  3   force =     0.00000412    0.00000996    0.00002065
     atom   65 type  3   force =     0.00000104   -0.00001685    0.00000091
     atom   66 type  3   force =     0.00000245    0.00000023    0.00000778
     atom   67 type  3   force =    -0.00000014    0.00000216    0.00000045
     atom   68 type  3   force =    -0.00000125    0.00000233    0.00000387
     atom   69 type  3   force =     0.00000534   -0.00002303    0.00000084
     atom   70 type  3   force =     0.00000132   -0.00000208    0.00000307
     atom   71 type  3   force =     0.00001229   -0.00001284   -0.00000756
     atom   72 type  3   force =     0.00000175    0.00000520   -0.00000921
     atom   73 type  3   force =     0.00000019    0.00000033    0.00000222
     atom   74 type  3   force =     0.00001354   -0.00000793    0.00000485
     atom   75 type  3   force =    -0.00000272    0.00000034   -0.00000011
     atom   76 type  3   force =    -0.00000200    0.00000024   -0.00000441
     atom   77 type  3   force =    -0.00000199    0.00000159   -0.00000068
     atom   78 type  3   force =    -0.00000055   -0.00000097    0.00000093
     atom   79 type  3   force =     0.00000661    0.00000108    0.00001743
     atom   80 type  3   force =    -0.00000952   -0.00000391   -0.00001546
     atom   81 type  3   force =     0.00000092    0.00001193   -0.00001569
     atom   82 type  3   force =     0.00000843    0.00000001    0.00001189
     atom   83 type  3   force =    -0.00000014   -0.00000601    0.00000668
     atom   84 type  3   force =    -0.00000419    0.00000311   -0.00001034
     atom   85 type  3   force =     0.00000466    0.00000298   -0.00000013
     atom   86 type  3   force =     0.00001334   -0.00000898    0.00001498
     atom   87 type  3   force =    -0.00001406    0.00000812   -0.00000811
     atom   88 type  3   force =     0.00000202   -0.00000215   -0.00000527
     atom   89 type  3   force =     0.00001138    0.00000102    0.00001954
     atom   90 type  3   force =    -0.00000403   -0.00001036   -0.00000679
     atom   91 type  1   force =    -0.00000543    0.00000616   -0.00000230
     atom   92 type  1   force =    -0.00000264    0.00000638    0.00000872
     atom   93 type  1   force =    -0.00000002    0.00000810    0.00000473
     atom   94 type  1   force =     0.00000313   -0.00000291    0.00000123
     atom   95 type  1   force =     0.00000428   -0.00000558   -0.00000320
     atom   96 type  1   force =     0.00000313   -0.00000102   -0.00000083
     atom   97 type  1   force =     0.00000429    0.00000215   -0.00000058
     atom   98 type  1   force =    -0.00000013    0.00000271    0.00000185
     atom   99 type  1   force =     0.00000128    0.00000581   -0.00000128
     atom  100 type  1   force =     0.00000441   -0.00000134    0.00000297
     atom  101 type  1   force =    -0.00000368    0.00000664    0.00000077
     atom  102 type  1   force =     0.00000495    0.00000492    0.00000129
     atom  103 type  1   force =     0.00000030   -0.00000176   -0.00000588
     atom  104 type  1   force =    -0.00000393    0.00000258    0.00000070
     atom  105 type  1   force =    -0.00000344    0.00000233    0.00000891
     atom  106 type  1   force =    -0.00000085   -0.00000004    0.00000449
     atom  107 type  1   force =    -0.00000015    0.00000148   -0.00000834
     atom  108 type  1   force =    -0.00000297    0.00001427    0.00000628
     atom  109 type  1   force =    -0.00001344    0.00000455    0.00000332
     atom  110 type  1   force =    -0.00000078   -0.00000849    0.00000264
     atom  111 type  1   force =    -0.00001469   -0.00000222   -0.00000097
     atom  112 type  1   force =    -0.00001005   -0.00001071    0.00000076
     atom  113 type  1   force =    -0.00000342    0.00000423   -0.00000883
     atom  114 type  1   force =    -0.00000494   -0.00000273   -0.00001345
     atom  115 type  1   force =    -0.00000693   -0.00000763   -0.00001005
     atom  116 type  1   force =    -0.00000375   -0.00000106   -0.00001311
     atom  117 type  1   force =     0.00000036   -0.00001149   -0.00000051
     atom  118 type  1   force =     0.00000779    0.00000262   -0.00001118
     atom  119 type  1   force =     0.00000771   -0.00001132    0.00000212
     atom  120 type  1   force =    -0.00000747    0.00000070    0.00000710

     Total force =     0.000176     Total SCF correction =     0.000023
     SCF correction compared to forces is large: reduce conv_thr to get better values


     Computing stress (Cartesian axis) and pressure


     negative rho (up, down):  2.725E-05 0.000E+00
          total   stress  (Ry/bohr**3)                   (kbar)     P=        0.00
  -0.00000001  -0.00000000   0.00000000           -0.00       -0.00        0.00
  -0.00000000   0.00000002   0.00000001           -0.00        0.00        0.00
   0.00000000   0.00000001   0.00000000            0.00        0.00        0.00

     Message from routine bfgs:
     history already reset at previous step: exiting
     Energy error            =      3.4E-09 Ry
     Gradient error          =      4.8E-05 Ry/Bohr
     Cell gradient error     =      3.1E-03 kbar

     bfgs failed after   8 scf cycles and   7 bfgs steps, convergence not achieved
     (criteria: energy <  3.6E-06 Ry, force <  1.0E-05 Ry/Bohr, cell <  5.0E-01 kbar)

     End of BFGS Geometry Optimization

     Final enthalpy           =   -4185.7277307972 Ry

     File ./pwscf.bfgs deleted, as requested
Begin final coordinates
     new unit-cell volume =  15321.82853 a.u.^3 (  2270.46074 Ang^3 )
     density =      1.25655 g/cm^3

CELL_PARAMETERS (alat= 27.52059178)
   0.999410041  -0.001434937  -0.001028272
   0.472782727   0.880510613  -0.001028381
   0.472782477   0.282307758   0.834027787

ATOMIC_POSITIONS (crystal)
Zr               0.8749128917        0.1200197220        0.1244985005
Zr               0.1244987898        0.8749127412        0.1200198412
Zr               0.1200195243        0.1244986769        0.8749128819
Zr               0.8835649608        0.8801352522        0.1271343588
Zr               0.1271343383        0.8835650976        0.8801352396
Zr               0.8801348878        0.1271346566        0.8835647165
O                0.9170703283        0.2641805339        0.0861963380
O                0.0861961691        0.9170700708        0.2641807634
O                0.2641804660        0.0861961849        0.9170701065
O                0.9152767133        0.0879074052        0.7376329943
O                0.0879083677        0.7376332359        0.9152757857
O                0.7376331958        0.9152769414        0.0879066977
O                0.9203411556        0.7629738912        0.0455735482
O                0.7629745608        0.0455743196        0.9203395949
O                0.2449926554        0.9530560708        0.0827478166
O                0.0455739166        0.9203399877        0.7629746393
O                0.8368773428        0.0467137115        0.0500744192
O                0.0500748800        0.8368774766        0.0467132959
O                0.0827475116        0.2449930572        0.9530556652
O                0.9530558549        0.0827475675        0.2449929107
O                0.2675801147        0.7357035578        0.0808535151
O                0.0808534730        0.2675800325        0.7357037001
O                0.7282894798        0.2628443288        0.0826320076
O                0.9241773609        0.7349866983        0.2645199031
O                0.2645197891        0.9241773618        0.7349865766
O                0.7349866925        0.2645201986        0.9241771875
O                0.0467131676        0.0500744730        0.8368778176
O                0.7452154385        0.9185226124        0.2747469365
O                0.0826319141        0.7282896469        0.2628443983
O                0.9574184427        0.9543414944        0.1643584177
O                0.9543411177        0.1643588244        0.9574183290
O                0.1643583782        0.9574184762        0.9543415618
O                0.9185221108        0.2747470342        0.7452156861
O                0.2628445773        0.0826316388        0.7282895237
O                0.2747471652        0.7452160559        0.9185219103
O                0.7357037903        0.0808536131        0.2675798877
N                0.7992432353        0.4599174608        0.1167342414
N                0.1167329777        0.7992428730        0.4599174869
N                0.4599177522        0.1167328708        0.7992423598
N                0.8167394337        0.5986957680        0.4318243615
N                0.5986955485        0.4318241632        0.8167399668
N                0.4318242256        0.8167396869        0.5986956281
C                0.0038296607        0.7080349886        0.9843842815
C                0.9843833739        0.0038306227        0.7080349434
C                0.0150402438       -0.0011991113        0.2987933238
C                0.7080350817        0.9843833637        0.0038304976
C               -0.0042651600        0.4051072758        0.0079112833
C                0.4051071707        0.0079115117       -0.0042655078
C                0.2987930654        0.0150403433       -0.0011987595
C               -0.0011984062        0.2987931395        0.0150399737
C                0.8980756473        0.4793853745        0.0585446177
C                0.0585443168        0.8980744963        0.4793860914
C                0.0979464052        0.5298340300        0.9414118303
C                0.9920173211        0.0019820107        0.6026942266
C                0.0019834745        0.6026938489        0.9920166719
C                0.6026939688        0.9920173533        0.0019824284
C                0.0079109349       -0.0042652649        0.4051074742
C                0.9501262909        0.0933101288        0.4331158021
C                0.3107485466        0.7000500590        0.9994284358
C                0.7000503135        0.9994271141        0.3107482353
C                0.9994278932        0.3107484686        0.7000499704
C                0.5941807195        0.4067133026       -0.0016525466
C                0.0028180932        0.6910191770        0.3056546149
C                0.6910189806        0.3056546121        0.0028182959
C                0.9414120105        0.0979464203        0.5298341477
C                0.5776202614        0.0487317582        0.9044966242
C                0.4331154880        0.9501268884        0.0933105455
C                0.0933108493        0.4331157223        0.9501257309
C                0.0487313764        0.9044972978        0.5776204398
C                0.5298338035        0.9414129738        0.0979461024
C                0.9044973572        0.5776202086        0.0487320464
C                0.4793857220        0.0585441436        0.8980749527
C                0.4481928972        0.0872855611        0.5409831496
C                0.9117041726        0.4598090987        0.5596935191
C                0.5596937200        0.9117044396        0.4598088026
C                0.9078279890        0.5523147363        0.4638210465
C                0.4638209570        0.9078280818        0.5523145410
C                0.5986366563        1.0002433491        0.4093280550
C                0.5523145645        0.4638209866        0.9078279014
C                0.4598088635        0.5596936716        0.9117048220
C                0.0872853273        0.5409832246        0.4481934053
C                0.5409831483        0.4481928847        0.0872855300
C               -0.0016531366        0.5941810727        0.4067134171
C                0.4501871268        0.5422063359        0.0897883300
C                0.5422065301        0.0897878646        0.4501871103
C                0.0897876158        0.4501875796        0.5422064059
C                1.0002436148        0.4093279788        0.5986367426
C                0.4067132665       -0.0016528418        0.5941806776
C                0.4093280717        0.5986366963        1.0002431928
C                0.3056544951        0.0028189270        0.6910188556
H                0.1740853226        0.5499703288        0.8976009614
H                0.8976018567        0.1740846648        0.5499703918
H                0.8311208422        0.6356026267        0.0866523496
H                0.1664375408        0.3746357829        0.9128623573
H                0.5499699981        0.8976028499        0.1740848536
H                0.9128630672        0.1664373638        0.3746357058
H                0.6356030270        0.0866517121        0.8311195939
H                0.3746352444        0.9128641094        0.1664375805
H                0.0866519428        0.8311197470        0.6356032441
H                0.5727307938        0.1593464825        0.4095842594
H                0.1593464508        0.4095844287        0.5727310103
H                0.4095841728        0.5727306261        0.1593467241
H                0.5735133450        0.4022009284        0.1559535611
H                0.1559530542        0.5735137240        0.4022013670
H                0.4271647341        0.6050169613        0.8430634517
H                0.4022010936        0.1559532981        0.5735132783
H                0.6050168350        0.8430634271        0.4271647079
H                0.7928956327        0.3931761668        0.1171348877
H                0.7303726549        0.5246919961        0.1292294341
H                0.8430634940        0.4271648260        0.6050166447
H                0.8201797301        0.6571175224        0.3567534669
H                0.3567534101        0.8201800450        0.6571172991
H                0.7654106009        0.5545344932        0.4652132037
H                0.1292280056        0.7303715461        0.5246929503
H                0.6571172380        0.3567533987        0.8201799764
H                0.5246925506        0.1292273945        0.7303717777
H                0.1171336292        0.7928949006        0.3931770016
H                0.3931765690        0.1171333745        0.7928949778
H                0.5545343862        0.4652134937        0.7654105126
H                0.4652133982        0.7654104045        0.5545346739
End final coordinates



     Writing config-only to output data dir ./pwscf.save/ :
     XML data file

     Writing all to output data dir ./pwscf.save/ :
     XML data file, charge density, pseudopotentials, collected wavefunctions

     init_run     :      5.12s CPU      5.83s WALL (       1 calls)
     electrons    :    753.61s CPU    766.74s WALL (       8 calls)
     update_pot   :      0.97s CPU      1.05s WALL (       7 calls)
     forces       :     20.60s CPU     20.93s WALL (       8 calls)
     stress       :     31.52s CPU     31.72s WALL (       8 calls)

     Called by init_run:
     wfcinit      :      3.39s CPU      3.50s WALL (       1 calls)
     potinit      :      0.26s CPU      0.30s WALL (       1 calls)
     hinit0       :      0.32s CPU      0.52s WALL (       1 calls)

     Called by electrons:
     c_bands      :    667.72s CPU    677.73s WALL (      85 calls)
     sum_band     :     63.44s CPU     64.84s WALL (      85 calls)
     v_of_rho     :      3.01s CPU      3.32s WALL (      86 calls)
     newd         :     14.72s CPU     15.19s WALL (      86 calls)
     PAW_pot      :      5.02s CPU      5.46s WALL (      93 calls)
     mix_rho      :      0.89s CPU      0.92s WALL (      85 calls)

     Called by c_bands:
     init_us_2    :      1.40s CPU      1.68s WALL (     178 calls)
     regterg      :    666.40s CPU    676.20s WALL (      85 calls)

     Called by *egterg:
     rdiaghg      :     48.82s CPU     49.34s WALL (     618 calls)
     h_psi        :    340.41s CPU    345.53s WALL (     633 calls)
     s_psi        :    133.29s CPU    133.41s WALL (     633 calls)
     g_psi        :      0.14s CPU      0.14s WALL (     547 calls)

     Called by h_psi:
     h_psi:calbec :    139.91s CPU    142.88s WALL (     633 calls)
     vloc_psi     :     64.55s CPU     66.57s WALL (     633 calls)
     vloc_psi:tg_ :      0.17s CPU      0.18s WALL (     633 calls)
     add_vuspsi   :    135.50s CPU    135.62s WALL (     633 calls)

     General routines
     calbec       :    203.24s CPU    207.38s WALL (     765 calls)
     fft          :      3.66s CPU      3.86s WALL (    1104 calls)
     ffts         :      0.48s CPU      0.50s WALL (     171 calls)
     fftw         :     71.01s CPU     73.25s WALL (   83642 calls)
     interpolate  :      0.63s CPU      0.64s WALL (      86 calls)

     Parallel routines
     fft_scatt_xy :      2.95s CPU      3.02s WALL (   84917 calls)
     fft_scatt_yz :     60.04s CPU     62.14s WALL (   84917 calls)
     fft_scatt_tg :      0.27s CPU      0.28s WALL (   83642 calls)

     PWSCF        :  13m39.67s CPU  13m55.75s WALL


   This run was terminated on:   8:13:46   4Jun2025            

=------------------------------------------------------------------------------=
   JOB DONE.
=------------------------------------------------------------------------------=
