
                                 *****************
                                 * O   R   C   A *
                                 *****************

                                            #,                                       
                                            ###                                      
                                            ####                                     
                                            #####                                    
                                            ######                                   
                                           ########,                                 
                                     ,,################,,,,,                         
                               ,,#################################,,                 
                          ,,##########################################,,             
                       ,#########################################, ''#####,          
                    ,#############################################,,   '####,        
                  ,##################################################,,,,####,       
                ,###########''''           ''''###############################       
              ,#####''   ,,,,##########,,,,          '''####'''          '####       
            ,##' ,,,,###########################,,,                        '##       
           ' ,,###''''                  '''############,,,                           
         ,,##''                                '''############,,,,        ,,,,,,###''
      ,#''                                            '''#######################'''  
     '                                                          ''''####''''         
             ,#######,   #######,   ,#######,      ##                                
            ,#'     '#,  ##    ##  ,#'     '#,    #''#        ,####,    ,#,          
            ##       ##  ##   ,#'  ##            #'  '#       #'       ,# #          
            ##       ##  #######   ##           ,######,      #####,      #          
            '#,     ,#'  ##    ##  '#,     ,#' ,#      #,     #,   #      #          
             '#######'   ##     ##  '#######'  #'      '#     '####' #    #          



                #########################################################
                #                        -***-                          #
                #          Department of theory and spectroscopy        #
                #                                                       #
                #                      Frank Neese                      #
                #                                                       #
                #     Directorship, Architecture, Infrastructure        #
                #                    SHARK, DRIVERS                     #
                #        Core code/Algorithms in most modules           #
                #                                                       #
                #        Max Planck Institute fuer Kohlenforschung      #
                #                Kaiser Wilhelm Platz 1                 #
                #                 D-45470 Muelheim/Ruhr                 #
                #                      Germany                          #
                #                                                       #
                #                  All rights reserved                  #
                #                        -***-                          #
                #########################################################


                         Program Version 6.1.0  -  RELEASE   -
                                (GIT: $679e74b$)
                          ($2025-06-10 18:02:51 +0200$)


 With contributions from (in alphabetic order):
[Max-Planck-Institut fuer Kohlenforschung]                               
  Daniel Aravena         : Magnetic Suceptibility                        
  Michael Atanasov       : Ab Initio Ligand Field Theory (pilot matlab implementation)
  Alexander A. Auer      : GIAO ZORA, VPT2 properties, NMR spectrum      
  Ute Becker             : All parallelization in ORCA, NUMFREQ, NUMCALC 
  Giovanni Bistoni       : ED, misc. LED, open-shell LED, HFLD           
  Dmytro Bykov           : pre 5.0 version of the SCF Hessian            
  Marcos Casanova-Páez   : Triplet and SCS-CIS(D). UHF-(DLPNO)-IP/EA/STEOM-CCSD. UHF-CVS-IP/STEOM-CCSD   
  Vijay G. Chilkuri      : MRCI spin determinant printing, contributions to CSF-ICE 
  Pauline Colinet        : FMM embedding                                 
  Dipayan Datta          : RHF DLPNO-CCSD density                        
  Achintya Kumar Dutta   : EOM-CC, STEOM-CC                              
  Nicolas Foglia         : Exact transition moments, OPA infrastructure, MCD improvements    
  Dmitry Ganyushin       : Spin-Orbit,Spin-Spin,Magnetic field MRCI      
  Miquel Garcia-Rates    : C-PCM and meta-GGA Hessian, CCSD/C-PCM, Gaussian charge scheme 
  Tiago L. C. Gouveia    : GS-ROHF, GS-ROCIS                             
  Yang Guo               : DLPNO-NEVPT2, F12-NEVPT2, CIM, IAO-localization        
  Andreas Hansen         : Spin unrestricted coupled pair/coupled cluster methods 
  Ingolf Harden          : AUTO-CI MPn and infrastructure                
  Benjamin Helmich-Paris : MC-RPA, TRAH-(SCF,CASSCF), AVAS, COSX integrals, SCF dyn. polar., MC-PDFT, srDFT 
  Lee Huntington         : MR-EOM, pCC                                   
  Robert Izsak           : Overlap fitted RIJCOSX, COSX-SCS-MP3, EOM     
  Riya Kayal             : Wick's Theorem for AUTO-CI, AUTO-CI UHF-CCSDT 
  Emily Kempfer          : AUTO-CI RHF CISDT and CCSDT, approximate NEVPT4
  Christian Kollmar      : KDIIS, OOCD, Brueckner-CCSD(T), CCSD density, CASPT2, CASPT2-K, improved NEVPT2 
  Axel Koslowski         : Symmetry handling                             
  Simone Kossmann        : meta-GGA functionals, TD-DFT gradient, OOMP2, (MP2 Hessian; deprecated post 5.0) 
  Lucas Lang             : DCDCAS, Hyperfine gauge corrections, ICE-SOC+SSC
  Marvin Lechner         : AUTO-CI (C++ implementation), FIC-MRCC        
  Spencer Leger          : CASSCF response                               
  Dagmar Lenk            : GEPOL surface, SMD, ORCA-2-JSON               
  Dimitrios Liakos       : Extrapolation schemes; Compound Job, Property file
  Dimitrios Manganas     : Further ROCIS development; embedding schemes. LFT, Crystal Embedding 
  Dimitrios Pantazis     : SARC Basis sets                               
  Anastasios Papadopoulos: AUTO-CI, single reference methods and gradients 
  Taras Petrenko         : pre 6.0 DFT Hessian and TD-DFT gradient,  ECA, NRVS 
  Petra Pikulova         : Analytic Raman intensities                    
  Peter Pinski           : DLPNO-MP2, DLPNO-MP2 Gradient                 
  Shashank Vittal Rao    : ES-AILFT, MagRelax                            
  Christoph Reimann      : Effective Core Potentials                     
  Marius Retegan         : Local ZFS, SOC                                
  Christoph Riplinger    : Optimizer, TS searches, QM/MM, DLPNO-CCSD(T), (RO)-DLPNO pert. Triples 
  Michael Roemelt        : Original ROCIS implementation, recursive CI coupling coefficients
  Masaaki Saitow         : Open-shell DLPNO-CCSD energy and density      
  Barbara Sandhoefer     : DKH picture change effects                    
  Yorick L. A. Schmerwitz: GMF and freeze-and-release deltaSCF, NEB S-IDPP initial path                    
  Kantharuban Sivalingam : CASSCF convergence/infrastructure, NEVPT2, NEVPT3, NEVPT4(SD), FIC-MRCI and CEPA variants
  Bernardo de Souza      : ESD, SOC TD-DFT                               
  Georgi L. Stoychev     : AutoAux, RI-MP2 NMR, DLPNO-MP2 response, X2C  
  Van Anh Tran           : RI-MP2 g-tensors                              
  Willem Van den Heuvel  : Paramagnetic NMR                              
  Zikuan Wang            : NOTCH, Electric field optimization            
  Frank Wennmohs         : Technical directorship and infrastructure     
  Hang Xu                : AUTO-CI-Response properties                   
                                                                         
[FACCTs GmbH]                                                            
  Markus Bursch, Nicolas Foglia, Miquel Garcia-Rates, Ingolf Harden, Hagen Neugebauer, Anastasios Papadopoulos, 
  Christoph Riplinger, Bernardo de Souza, Georgi L. Stoychev                                                    
                                                                 
  APM, various basis sets, CI-OPT, improved COSX, DLPNO-Multilevel,           
  DOCKER, DRACO, updates on ESD, Fragmentator, GOAT, IRC, LR-CPCM, L-BFGS, MBIS, meta-GGA TD-DFT gradient, ML-optimized integration grids, 
  MM, NACMEs, nearIR, NEB, NEB-TS, NL-DFT gradient (VV10), 2- and 3-layer-ONIOM, interface openCOSMO-RS, QMMM,   
  Crystal-QMMM, RESP, rigid body optimization, SF, symmetry and pop. for TD-DFT, various functionals, SOLVATOR                                   
                                                                         
[Other institutions]                                                     
  V. Asgeirsson          : NEB                                           
  Christoph Bannwarth    : sTDA-DFT, sTD-DFT, PBEh-3c, B97-3c, D3        
  Giovanni Bistoni       : ETS/NOCV, ADLD/ADEX, COVALED                  
  Martin Brehm           : Molecular dynamics                            
  Ronald Cardenas        : ETS/NOCV                                      
  Martina Colucci        : COVALED                                       
  Sebastian Ehlert       : rSCAN, r2SCAN, r2SCAN-3c, D4, dhf basis sets  
  Marvin Friede          : D4 for Fr, Ra, Ac-Lr                          
  Lars Goerigk           : TD-DFT with DH, B97 family of functionals     
  Stefan Grimme          : VdW corrections, initial TS optimization, DFT functionals, gCP, sTDA/sTD-DF 
  Waldemar Hujo          : DFT-NL                                        
  H. Jonsson             : NEB                                           
  Holger Kruse           : gCP                                           
  Marcel Mueller         : wB97X-3c, vDZP basis set                      
  Hagen Neugebauer       : wr2SCAN, Native XTB                           
  Gianluca Regni         : ADLD/ADEX                                     
  Tobias Risthaus        : pre 6.0 range-separated hybrid DFT and stability analysis
  Lukas Wittmann         : regularized MP2, r2SCAN double-hybrids, wr2SCAN        
                                                                         
We gratefully acknowledge several colleagues who have allowed us to      
interface, adapt or use parts of their codes:                            
  Ed Valeev, F. Pavosevic, A. Kumar             : LibInt (2-el integral package), F12 methods 
  Garnet Chan, S. Sharma, J. Yang, R. Olivares  : DMRG                   
  Ulf Ekstrom                                   : XCFun DFT Library      
  Mihaly Kallay                                 : mrcc  (arbitrary order and MRCC methods)
  Frank Weinhold                                : gennbo (NPA and NBO analysis)           
  Simon Mueller                                 : openCOSMO-RS                            
  Christopher J. Cramer and Donald G. Truhlar   : smd solvation model                     
  S Lehtola, MJT Oliveira, MAL Marques          : LibXC Library                           
  Liviu Ungur et al                             : ANISO software                          


 Your calculation uses the libint2 library for the computation of 2-el integrals
 For citations please refer to: http://libint.valeyev.net

 Your ORCA version has been built with support for libXC version: 7.0.0
 For citations please refer to: https://libxc.gitlab.io

 This ORCA versions uses:
   CBLAS   interface :  Fast vector & matrix operations
   LAPACKE interface :  Fast linear algebra routines
   SCALAPACK package :  Parallel linear algebra routines
   Shared memory     :  Shared parallel matrices
   BLAS/LAPACK       :  OpenBLAS 0.3.29  USE64BITINT DYNAMIC_ARCH NO_AFFINITY Prescott SINGLE_THREADED
        Core in use  :  Prescott
   Copyright (c) 2011-2014, The OpenBLAS Project


  ***********************************
  * Starting time: Wed Aug 13 11:07:13 2025
  * Host name:     cuda6
  * Process ID:    222649
  * Working dir.:  /local/scratch/mehlhorn/61896
  ***********************************

================================================================================

----- Orbital basis set information -----
Your calculation utilizes the basis: def2-SVP
   F. Weigend and R. Ahlrichs, Phys. Chem. Chem. Phys. 7, 3297 (2005).

The basis set includes element-specific modifications.

----- AuxJ basis set information -----
Your calculation utilizes the auxiliary basis: def2/J
   H-Rn: F. Weigend, Phys. Chem. Chem. Phys. 8, 1057 (2006).
   Fr-Lr: K. Eichkorn, F. Weigend, O. Treutler, R. Ahlrichs; Theor. Chem. Acc. 97, 119 (1997).

The basis set includes element-specific modifications.

================================================================================
                                        WARNINGS
                       Please study these warnings very carefully!
================================================================================

WARNING: Frozen-Core approximation turned on, but there are no core electrons.
  ===> : Turning off frozen-core approximation


WARNING: ROHF and Conv is not properly working
  ===> : Setting Mode to Direct


WARNING: Found SCFConvIgnored == true
  ===> : Will try to continue after any unconverged SCF -
         no matter how far from convergence the wavefunction might be.

         Please be very careful with your results!


WARNING: TRAH-SCF with ROHF wave function is not implemented yet
  ===> : Turning TRAH off


================================================================================
                                       INPUT FILE
================================================================================
NAME = run_atom40.inp
|  1> # input to generate an atomic fitting density for Zr
|  2> # this file is used internally by ORCA
|  3> #
|  4> # atomic ground state (Mult=3): 1s2 2s2 2p6 3s2 3p6 4s2 3d10 4p6 4d2 5s2 
|  5> #
|  6> ! ROHF def2-SVP def2/J Conv LeanSCF AODIIS SOSCF NoMulliken NoLoewdin NoMayer NoPrintMOs 
|  7> 
|  8> %output print[p_atomdensfit] 2 end
|  9> 
| 10> %scf
| 11>   guess     HCore
| 12>   maxiter    1000
| 13>   maxdisk  500000
| 14>   diismaxeq     8
| 15>   soscfstart 1e-4
| 16>   lshift  0.300000
| 17>   ignoreconv true
| 18> 
| 19>   hftyp        rohf
| 20>   rohf_case    sahf
| 21>   rohf_numop   3
| 22>   rohf_norb[1] 5,1
| 23>   rohf_nel[1]  2,2
| 24> 
| 25> end
| 26> 
| 27> %basis
| 28>   NewECP 40
| 29>     N_core 28
| 30>     lmax f
| 31>     s 4
| 32>       1       8.2000000000    150.2675911000  2
| 33>       2       4.0897278000     18.9762165000  2
| 34>       3       7.5400000000     21.0937760000  2
| 35>       4       3.7700000000      3.0806943000  2
| 36>     p 4
| 37>       1       7.1100000000     99.6221237000  2
| 38>       2       3.5967980000     14.1687333000  2
| 39>       3       7.5400000000     21.0937760000  2
| 40>       4       3.7700000000      3.0806943000  2
| 41>     d 4
| 42>       1       5.3500000000     35.0451235000  2
| 43>       2       2.4918215000      6.1112595000  2
| 44>       3       7.5400000000     21.0937760000  2
| 45>       4       3.7700000000      3.0806943000  2
| 46>     f 2
| 47>       1       7.5400000000    -21.0937760000  2
| 48>       2       3.7700000000     -3.0806943000  2
| 49>   end
| 50>   NewGTO 40
| 51>     s 3 
| 52>      1       5.8737890000      0.9717450200
| 53>      2       4.2872700000     -1.7058213661
| 54>      3       1.4641370000     -0.2454443851
| 55>     s 1 
| 56>      1       0.8372768234      1.0000000000
| 57>     s 1 
| 58>      1       0.3684980651      1.0000000000
| 59>     s 1 
| 60>      1       0.0778068591      1.0000000000
| 61>     s 1 
| 62>      1       0.0302730883      1.0000000000
| 63>     p 4 
| 64>      1       2.8742240000     -0.4817495790
| 65>      2       2.1199010000      0.4740935833
| 66>      3       0.7884582111      0.6081158782
| 67>      4       0.3633257985      0.3701379789
| 68>     p 1 
| 69>      1       0.1495176202      1.0000000000
| 70>     p 1 
| 71>      1       0.0300000000      1.0000000000
| 72>     d 4 
| 73>      1       4.2898623878     -0.0135480233
| 74>      2       1.3615557498      0.2184527100
| 75>      3       0.5693755069      0.4665574703
| 76>      4       0.2267494868      0.4743138206
| 77>     d 1 
| 78>      1       0.0830110316      1.0000000000
| 79>   end
| 80>   NewAuxGTO 40
| 81>     S 1
| 82>      1 1310.72 1.0
| 83>     S 1
| 84>      1  655.36 1.0
| 85>     S 1
| 86>      1  327.68 1.0
| 87>     S 1
| 88>      1  163.84 1.0
| 89>     S 1
| 90>      1   81.82 1.0
| 91>     S 1
| 92>      1   40.96 1.0
| 93>     S 1
| 94>      1   20.48 1.0
| 95>     S 1
| 96>      1   10.24 1.0
| 97>     S 1
| 98>      1    5.12 1.0
| 99>     S 1
|100>      1    2.56 1.0
|101>     S 1
|102>      1    1.28 1.0
|103>     S 1
|104>      1    0.64 1.0
|105>     S 1
|106>      1    0.32 1.0
|107>     S 1
|108>      1    0.16 1.0
|109>     S 1
|110>      1    0.08 1.0
|111>     S 1
|112>      1    0.04 1.0
|113>     S 1
|114>      1    0.02 1.0
|115>     S 1
|116>      1    0.01 1.0
|117>   end
|118> end
|119> 
|120> * xyz 0 3
|121> 40  0.0 0.0 0.0
|122> *
|123> 
|124> 
|125>                          ****END OF INPUT****
================================================================================

                       ****************************
                       * Single Point Calculation *
                       ****************************

---------------------------------
CARTESIAN COORDINATES (ANGSTROEM)
---------------------------------
  Zr     0.000000    0.000000    0.000000

----------------------------
CARTESIAN COORDINATES (A.U.)
----------------------------
  NO LB      ZA    FRAG     MASS         X           Y           Z
   0 Zr   12.0000*   0    91.220    0.000000    0.000000    0.000000
* core charge reduced due to ECP

--------------------------------
INTERNAL COORDINATES (ANGSTROEM)
--------------------------------
 Zr     0   0   0     0.000000000000     0.00000000     0.00000000

---------------------------
INTERNAL COORDINATES (A.U.)
---------------------------
 Zr     0   0   0     0.000000000000     0.00000000     0.00000000

---------------------
BASIS SET INFORMATION
---------------------
There are 1 groups of distinct atoms

 Group   1 Type Zr  : 7s6p5d contracted to 5s3p2d pattern {31111/411/41}

Atom   0Zr   basis set group =>   1
---------------------------------
AUXILIARY/J BASIS SET INFORMATION
---------------------------------
There are 1 groups of distinct atoms

 Group   1 Type Zr  : 18s contracted to 18s pattern {111111111111111111}

Atom   0Zr   basis set group =>   1
-------------------------
ECP PARAMETER INFORMATION
-------------------------

 Group 1, Type Zr ECP (replacing 28 core electrons, lmax=3)

Atom   0Zr   ECP group =>   1

------------------------------------------------------------------------------
                             ORCA STARTUP CALCULATIONS
------------------------------------------------------------------------------
------------------------------------------------------------------------------
                   ___                                                        
                  /   \      - P O W E R E D   B Y -                         
                 /     \                                                     
                 |  |  |   _    _      __       _____    __    __             
                 |  |  |  | |  | |    /  \     |  _  \  |  |  /  |          
                  \  \/   | |  | |   /    \    | | | |  |  | /  /          
                 / \  \   | |__| |  /  /\  \   | |_| |  |  |/  /          
                |  |  |   |  __  | /  /__\  \  |    /   |      \           
                |  |  |   | |  | | |   __   |  |    \   |  |\   \          
                \     /   | |  | | |  |  |  |  | |\  \  |  | \   \       
                 \___/    |_|  |_| |__|  |__|  |_| \__\ |__|  \__/        
                                                                              
                      - O R C A' S   B I G   F R I E N D -                    
                                      &                                       
                       - I N T E G R A L  F E E D E R -                       
                                                                              
 v1 FN, 2020, v2 2021, v3 2022-2024                                           
------------------------------------------------------------------------------


----------------------
SHARK INTEGRAL PACKAGE
----------------------

Number of atoms                             ...      1
Number of basis functions                   ...     24
Number of shells                            ...     10
Maximum angular momentum                    ...      2
Integral batch strategy                     ... SHARK/LIBINT Hybrid
RI-J (if used) integral strategy            ... SPLIT-RIJ (Revised 2003 algorithm where possible)
Printlevel                                  ...      1
Contraction scheme used                     ... SEGMENTED contraction
Prescreening option                         ... SCHWARTZ
   Thresh                                   ... 1.000e-10
   Tcut                                     ... 1.000e-11
   Tpresel                                  ... 1.000e-11 
Coulomb Range Separation                    ... NOT USED
Exchange Range Separation                   ... NOT USED
Multipole approximations                    ... NOT USED
Finite Nucleus Model                        ... NOT USED
CABS basis                                  ... NOT available
Auxiliary Coulomb fitting basis             ... AVAILABLE
   # of basis functions in Aux-J            ...     18
   # of shells in Aux-J                     ...     18
   Maximum angular momentum in Aux-J        ...      0
Auxiliary J/K fitting basis                 ... NOT available
Auxiliary Correlation fitting basis         ... NOT available
Auxiliary 'external' fitting basis          ... NOT available

Checking pre-screening integrals            ... done (  0.0 sec) Dimension = 10
   => SHARK Basis and OBASIS are compatible. Storing Pre-screening
Shell pair information
Shell pair cut-off parameter TPreSel        ...   1.0e-11
Total number of shell pairs                 ...        55
Shell pairs after pre-screening             ...        55
Total number of primitive shell pairs       ...       186
Primitive shell pairs kept                  ...       186
          la=0 lb=0:     15 shell pairs
          la=1 lb=0:     15 shell pairs
          la=1 lb=1:      6 shell pairs
          la=2 lb=0:     10 shell pairs
          la=2 lb=1:      6 shell pairs
          la=2 lb=2:      3 shell pairs

Checking whether 4 symmetric matrices of dimension 24 fit in memory
:Max Core in MB      =   4096.00
 MB in use           =      1.24
 MB left             =   4094.76
 MB needed           =      0.01
 Data fit in memory  = YES
Calculating RI/J V-Matrix + Cholesky decomp.... done (  0.0 sec)
Calculating Nuclear repulsion               ... done (  0.0 sec) ENN=      0.000000000000 Eh

Diagonalization of the overlap matrix:
Smallest eigenvalue                        ... 2.348e-02
Time for diagonalization                   ...    0.000 sec
Threshold for overlap eigenvalues          ... 1.000e-07
Number of eigenvalues below threshold      ... 0
Time for construction of square roots      ...    0.000 sec
Total time needed                          ...    0.001 sec

-------------------
DFT GRID GENERATION
-------------------

General Integration Accuracy     IntAcc      ... 4.388
Radial Grid Type                 RadialGrid  ... OptM3 with GC (2021)
Angular Grid (max. ang.)         AngularGrid ... 4 (Lebedev-302)
Angular grid pruning method      GridPruning ... 4 (adaptive)
Weight generation scheme         WeightScheme... mBecke (2022)
Basis function cutoff            BFCut       ... 1.0000e-10
Integration weight cutoff        WCut        ... 1.0000e-14
Partially contracted basis set               ... off
Rotationally invariant grid construction     ... off
Angular grids for H and He will be reduced by one unit

Total number of grid points                  ...    11810
Total number of batches                      ...      185
Average number of points per batch           ...       63
Average number of grid points per atom       ...    11810
Grids setup in   1.2 sec
Initializing property integral containers    ... done (  0.0 sec)

SHARK setup successfully completed in   1.3 seconds

Maximum memory used throughout the entire STARTUP-calculation: 6.3 MB
-------------------------------------------------------------------------------
                                 ORCA GUESS
                   Start orbitals & Density for SCF / CASSCF
-------------------------------------------------------------------------------

------------
SCF SETTINGS
------------
Hamiltonian:
 Ab initio Hamiltonian  Method          .... Hartree-Fock(GTOs)


General Settings:
 Integral files         IntName         .... run_atom40
 Hartree-Fock type      HFTyp           .... ROHF
 Total Charge           Charge          ....    0
 Multiplicity           Mult            ....    3
 Number of Electrons    NEL             ....   12
 Basis Dimension        Dim             ....   24
 Nuclear Repulsion      ENuc            ....      0.0000000000 Eh

Convergence Acceleration:
 AO-DIIS                CNVDIIS         .... on
   Start iteration      DIISMaxIt       ....    12
   Startup error        DIISStart       ....  0.200000
   # of expansion vecs  DIISMaxEq       ....     8
   Bias factor          DIISBfac        ....   1.050
   Max. coefficient     DIISMaxC        ....  10.000
 MO-DIIS                CNVKDIIS        .... off
 Trust-Rad. Augm. Hess. CNVTRAH         .... off
 SOSCF                 CNVSOSCF           .... on
   Start iteration     SOSCFMaxIt         ....   150
   Startup grad/error  SOSCFStart         ....  0.000100
   Hessian update      SOSCFHessUp        .... L-BFGS
   Autom. constraints  SOSCFAutoConstrain .... off
 Level Shifting         CNVShift        .... on
   Level shift para.    LevelShift      ....    0.3000
   Turn off err/grad.   ShiftErr        ....    0.0010
 Zerner damping         CNVZerner       .... off
 Static damping         CNVDamp         .... on
   Fraction old density DampFac         ....    0.7000
   Max. Damping (<1)    DampMax         ....    0.9800
   Min. Damping (>=0)   DampMin         ....    0.0000
   Turn off err/grad.   DampErr         ....    0.1000

SCF Procedure:
 Maximum # iterations   MaxIter         ....  1000
 SCF integral mode      SCFMode         .... Direct
   Integral package                     .... SHARK and LIBINT hybrid scheme
 Reset frequency        DirectResetFreq ....    20
 Integral Threshold     Thresh          ....  1.000e-10 Eh
 Primitive CutOff       TCut            ....  1.000e-11 Eh

Convergence Tolerance:
 Convergence Check Mode ConvCheckMode   .... Total+1el-Energy
 Convergence forced     ConvForced      .... -1
 Energy Change          TolE            ....  1.000e-06 Eh
 1-El. energy change                    ....  1.000e-03 Eh
 Orbital Gradient       TolG            ....  5.000e-05
 Orbital Rotation angle TolX            ....  5.000e-05
 DIIS Error             TolErr          ....  1.000e-06


--------------------
INITIAL GUESS: HCORE
--------------------

Orthogonalizing HCORE                      ... done
Diagonalizing the Hamiltonian (no sym.)    ... done
Back transforming and storing orbitals     ... done
AVERAGE-CONFIGURATION (SAHF) CASE FOUND

-------------------
FINAL ROHF SETTINGS
-------------------
Number of operators             ... 3
  operator   0:   4 orbitals   8 electrons n(mue)= 2.000
  operator   1:   5 orbitals   2 electrons n(mue)= 0.400
  operator   2:   1 orbitals   2 electrons n(mue)= 2.000
Vector coupling coefficients a and b (Zerner convention):
   1.000    1.000    1.000           1.000    1.000    1.000 
   1.000    0.625    1.000           1.000    1.250    1.000 
   1.000    1.000    1.000           1.000    1.000    1.000 


   => ROHF data were saved in the ROHF file

Making the density                         ... done

                      -----------------
                      INTIAL GUESS DONE 
                      -----------------

             **** ENERGY FILE WAS UPDATED (run_atom40.en.tmp) ****
Finished Guess after   0.1 sec
Maximum memory used throughout the entire GUESS-calculation: 3.7 MB

-------------------------------------------------------------------------------------------
                                      ORCA LEAN-SCF
                              memory conserving SCF solver
-------------------------------------------------------------------------------------------

----------------------------------------D-I-I-S--------------------------------------------
Iteration    Energy (Eh)           Delta-E    RMSDP     MaxDP     DIISErr   Damp  Time(sec)
-------------------------------------------------------------------------------------------
               ***  Starting incremental Fock matrix formation  ***
    1    -43.9763458202005353     0.00e+00  1.52e-01  2.41e+00  7.28e-01  0.700   0.0
    2    -44.4639565913746395    -4.88e-01  1.10e-01  1.68e+00  4.02e-01  0.700   0.0
                               ***Turning on AO-DIIS***
    3    -44.9757086181104881    -5.12e-01  7.71e-02  1.18e+00  5.83e-02  0.700   0.0
    4    -45.3140944491456494    -3.38e-01  1.80e-01  2.75e+00  4.51e-02  0.000   0.0
    5    -46.0554537927758645    -7.41e-01  5.38e-03  1.01e-01  1.47e-01  0.000   0.0
    6    -45.9862649603268423     6.92e-02  3.16e-06  6.59e-05  1.91e-01  0.700   0.0
    7    -45.9863148659026848    -4.99e-05  4.87e-06  1.02e-04  1.91e-01  0.700   0.0
    8    -45.9863918283258997    -7.70e-05  5.67e-06  1.18e-04  1.91e-01  0.700   0.0
    9    -45.9864814126543138    -8.96e-05  2.12e-04  3.47e-03  1.91e-01  0.700   0.0
   10    -45.9854750480999002     1.01e-03  2.83e-04  4.86e-03  1.92e-01  0.700   0.0
   11    -45.9817351310854860     3.74e-03  7.80e-04  1.58e-02  1.99e-01  0.700   0.0
   12    -45.9684563724022723     1.33e-02  1.20e-01  1.60e+00  2.16e-01  0.700   0.0
   13    -45.8069926648121566     1.61e-01  6.30e-02  1.18e+00  3.94e-02  0.700   0.0
   14    -45.8530919754030393    -4.61e-02  1.53e-01  2.76e+00  8.06e-02  0.000   0.0
   15    -46.1864320406459115    -3.33e-01  8.75e-03  1.41e-01  5.84e-02  0.000   0.0
   16    -46.2044083154926284    -1.80e-02  1.24e-02  2.12e-01  4.85e-02  0.000   0.0
   17    -46.2247317682604830    -2.03e-02  9.84e-03  2.06e-01  3.09e-02  0.000   0.0
   18    -46.2356186757382090    -1.09e-02  6.17e-02  1.02e+00  1.86e-02  0.000   0.0
   19    -45.8673199381906258     3.68e-01  6.77e-02  1.01e+00  1.03e-01  0.000   0.0
   20    -45.8668142201196289     5.06e-04  1.84e-02  3.00e-01  1.03e-01  0.700   0.0
               *** Restarting incremental Fock matrix formation ***
                             ****Resetting DIIS****
   21    -45.9607077154769073    -9.39e-02  1.77e-02  3.02e-01  3.85e-02  0.700   0.0
   22    -45.9155084653216363     4.52e-02  4.02e-02  7.04e-01  7.24e-02  0.000   0.0
   23    -45.9276512448866754    -1.21e-02  2.45e-03  4.20e-02  8.01e-02  0.000   0.0
   24    -45.9139473396110134     1.37e-02  1.49e-03  2.78e-02  8.76e-02  0.000   0.0
   25    -45.9047301860318058     9.22e-03  5.00e-04  8.84e-03  9.20e-02  0.000   0.0
   26    -45.9075218295766305    -2.79e-03  1.85e-04  2.94e-03  9.07e-02  0.000   0.0
   27    -45.9064701300061202     1.05e-03  1.47e-05  2.51e-04  9.12e-02  0.000   0.0
   28    -45.9063903651045706     7.98e-05  5.49e-06  8.31e-05  9.12e-02  0.000   0.0
   29    -45.9063622124044883     2.82e-05  1.82e-02  3.20e-01  9.12e-02  0.000   0.0
   30    -45.9816983165672966    -7.53e-02  6.67e-03  8.51e-02  2.60e-02  0.000   0.0
   31    -45.9917496275001554    -1.01e-02  5.23e-03  8.65e-02  1.53e-02  0.000   0.0
   32    -45.9972039380551081    -5.45e-03  4.16e-03  7.27e-02  1.36e-02  0.000   0.1
   33    -46.0010355086232394    -3.83e-03  7.38e-03  1.30e-01  1.23e-02  0.000   0.0
   34    -46.0067723616810014    -5.74e-03  1.80e-02  3.27e-01  1.02e-02  0.000   0.0
   35    -46.0149757884369848    -8.20e-03  8.61e-03  1.50e-01  4.91e-03  0.000   0.0
   36    -46.0164305604536921    -1.45e-03  1.04e-03  1.34e-02  2.60e-03  0.000   0.0
   37    -46.0166217370641348    -1.91e-04  1.95e-03  3.35e-02  2.29e-03  0.000   0.0
   38    -46.0168754450236790    -2.54e-04  2.56e-03  3.98e-02  1.48e-03  0.000   0.0
   39    -46.0170717926121711    -1.96e-04  1.14e-03  1.47e-02  5.97e-04  0.000   0.0
   40    -46.0171054124246766    -3.36e-05  2.94e-04  4.16e-03  4.17e-04  0.000   0.0
               *** Restarting incremental Fock matrix formation ***
                             ****Resetting DIIS****
   41    -46.0171085291538517    -3.12e-06  6.60e-05  1.10e-03  3.74e-04  0.000   0.0
   42    -46.0171091667497905    -6.38e-07  1.54e-04  2.56e-03  3.25e-04  0.000   0.0
                 **** Energy Check signals convergence ****

               *****************************************************
               *                     SUCCESS                       *
               *           SCF CONVERGED AFTER  42 CYCLES          *
               *****************************************************

             **** ENERGY FILE WAS UPDATED (run_atom40.en.tmp) ****

----------------
TOTAL SCF ENERGY
----------------

Total Energy       :        -46.01711038074394 Eh           -1252.18923 eV

Components:
Nuclear Repulsion  :          0.00000000000000 Eh               0.00000 eV
Electronic Energy  :        -46.01711038074394 Eh           -1252.18923 eV
One Electron Energy:        -74.60924319338936 Eh           -2030.22072 eV
Two Electron Energy:         28.59213281264542 Eh             778.03149 eV

Virial components:
Potential Energy   :        -60.40289614034147 Eh           -1643.64637 eV
Kinetic Energy     :         14.38578575959753 Eh             391.45713 eV
Virial Ratio       :          4.19879019121659

---------------
SCF CONVERGENCE
---------------

  Last Energy change         ...    6.3760e-07  Tolerance :   1.0000e-06
  Last MAX-Density change    ...    2.5589e-03  Tolerance :   1.0000e-05
  Last RMS-Density change    ...    1.5413e-04  Tolerance :   1.0000e-06
  Last DIIS Error            ...    3.2468e-04  Tolerance :   1.0000e-06


----------------
ORBITAL ENERGIES
----------------

  NO   OCC          E(Eh)            E(eV) 
   0   2.0000      -2.829711       -77.0003 
   1   2.0000      -1.789898       -48.7056 
   2   2.0000      -1.789897       -48.7056 
   3   2.0000      -1.779621       -48.4260 
   4   0.4000      -0.420264       -11.4360 
   5   0.4000      -0.483076       -13.1452 
   6   0.4000      -0.460729       -12.5371 
   7   0.4000      -0.226371        -6.1599 
   8   0.4000      -0.226375        -6.1600 
   9   2.0000      -0.159999        -4.3538 
  10   0.0000      -0.116338        -3.1657 
  11   0.0000      -0.105670        -2.8754 
  12   0.0000      -0.105669        -2.8754 
  13   0.0000       0.078942         2.1481 
  14   0.0000       0.205491         5.5917 
  15   0.0000       0.215024         5.8511 
  16   0.0000       0.216200         5.8831 
  17   0.0000       0.219511         5.9732 
  18   0.0000       0.219537         5.9739 
  19   0.0000       0.223657         6.0860 
  20   0.0000       0.223658         6.0860 
*Only the first 10 virtual orbitals were printed.

Warning: MO coefficients are modified such that the real solid harmonic m components
have the correct order within each shell (0, +1, -1, +2, -2, ...) and all s orbitals
come before all p orbitals etc. (with increasing orbital energy within each block of given angular momentum).

CleanUpVectors: The p-vectors have cracked symmetry
CleanUpVectors: The p-vectors have cracked symmetry
CleanUpVectors: The p-vectors have cracked symmetry
CleanUpVectors: The d-vectors have cracked symmetry at i=5
CleanUpVectors: The d-vectors have cracked symmetry at i=6
CleanUpVectors: The p-vectors have cracked symmetry
CleanUpVectors: The p-vectors have cracked symmetry
CleanUpVectors: The p-vectors have cracked symmetry
CleanUpVectors: The d-vectors have cracked symmetry at i=10
CleanUpVectors: The d-vectors have cracked symmetry at i=11
CleanUpVectors: The d-vectors have cracked symmetry at i=12
CleanUpVectors: The d-vectors have cracked symmetry at i=14
CleanUpVectors: The d-vectors have cracked symmetry at i=15
CleanUpVectors: The d-vectors have cracked symmetry at i=16
CleanUpVectors: The p-vectors have cracked symmetry
CleanUpVectors: The p-vectors have cracked symmetry
CleanUpVectors: The d-vectors have cracked symmetry at i=19
--------------------------
ATOM BASIS FOR ELEMENT Zr
--------------------------
 NewGTO Zr
 S 7
    1          5.873789000000        -0.551418445553
    2          4.287270000000         0.967971378012
    3          1.464137000000         0.139277854289
    4          0.837276823400        -0.915883402795
    5          0.368498065100        -0.452274320631
    6          0.077806859100        -0.002903040411
    7          0.030273088300        -0.000825297109
 P 18
    1          2.874224000000        -0.016200469980
    2          2.119901000000         0.015943011056
    3          0.788458211100         0.020449967076
    4          0.363325798500         0.012447149883
    5          2.874224000000         0.474983668989
    6          2.119901000000        -0.467435197572
    7          0.788458211100        -0.599575222458
    8          0.363325798500        -0.364939592921
    9          2.874224000000         0.038412404770
   10          2.119901000000        -0.037801952330
   11          0.788458211100        -0.048488248415
   12          0.363325798500        -0.029513030184
   13          0.149517620200         0.000552050587
   14          0.149517620200        -0.016185642357
   15          0.149517620200        -0.001308949099
   16          0.030000000000         0.000128726148
   17          0.030000000000        -0.003774138532
   18          0.030000000000        -0.000305218361
 S 7
    1          5.873789000000        -0.250575931569
    2          4.287270000000         0.439866188253
    3          1.464137000000         0.063290733864
    4          0.837276823400        -0.583251512007
    5          0.368498065100        -0.272208766152
    6          0.077806859100         1.113820535107
    7          0.030273088300         0.076761205234
 S 7
    1          5.873789000000        -0.121625205549
    2          4.287270000000         0.213503408828
    3          1.464137000000         0.030720223077
    4          0.837276823400        -0.210083738500
    5          0.368498065100        -0.449429608454
    6          0.077806859100         2.175608769118
    7          0.030273088300        -2.101316072875
 D 18
    1          5.873789000000        -0.000006025114
    2          4.287270000000         0.000014490520
    3          1.464137000000         0.000006105239
    4          0.837276823400        -0.000106957361
    5          0.368498065100        -0.000049615465
    6          0.077806859100         0.001768011066
    7          0.030273088300         0.000192900116
    8          4.289862387800         0.000006811804
    9          1.361555749800        -0.000109835723
   10          0.569375506900        -0.000234580185
   11          0.226749486800        -0.000238479996
   12          4.289862387800        -0.000411061444
   13          1.361555749800         0.006628087693
   14          0.569375506900         0.014155850146
   15          0.226749486800         0.014391186068
   16          4.289862387800        -0.000343570781
   17          1.361555749800         0.005539846404
   18          0.569375506900         0.011831653287
 D 18
    1          4.289862387800         0.000016485337
    2          1.361555749800        -0.000265814908
    3          0.569375506900        -0.000567710655
    4          0.226749486800        -0.000577148640
    5          4.289862387800        -0.000310648102
    6          1.361555749800         0.005008990473
    7          0.569375506900         0.010697884790
    8          0.226749486800         0.010875733281
    9          4.289862387800         0.000372119424
   10          1.361555749800        -0.006000173963
   11          0.569375506900        -0.012814791749
   12          0.226749486800        -0.013027833057
   13          4.289862387800         0.001862140215
   14          1.361555749800        -0.030025751172
   15          0.569375506900        -0.064127098769
   16          0.226749486800        -0.065193188744
   17          4.289862387800        -0.011496961574
   18          1.361555749800         0.185380727277
 D 18
    1          5.873789000000         0.000208766724
    2          4.287270000000        -0.000502088192
    3          1.464137000000        -0.000211543010
    4          0.837276823400         0.007010609928
    5          0.368498065100        -0.022019089824
    6          0.077806859100         0.144848104754
    7          0.030273088300        -0.303433086393
    8          4.289862387800        -0.007902978935
    9          1.361555749800         0.127430188680
   10          0.569375506900         0.272157330850
   11          0.226749486800         0.276681848684
   12          4.289862387800        -0.000490821949
   13          1.361555749800         0.007914171872
   14          0.569375506900         0.016902587328
   15          0.226749486800         0.017183586769
   16          4.289862387800         0.000291088982
   17          1.361555749800        -0.004693612902
   18          0.569375506900        -0.010024321338
 P 18
    1          2.874224000000         0.332887920958
    2          2.119901000000        -0.327597644428
    3          0.788458211100        -0.420206761396
    4          0.363325798500        -0.255764545803
    5          2.874224000000         0.011925941500
    6          2.119901000000        -0.011736413660
    7          0.788458211100        -0.015054199743
    8          0.363325798500        -0.009162942897
    9          2.874224000000        -0.007072889107
   10          2.119901000000         0.006960486293
   11          0.788458211100         0.008928157612
   12          0.363325798500         0.005434244249
   13          0.149517620200         1.358225387377
   14          0.149517620200         0.048659369996
   15          0.149517620200        -0.028858294166
   16          0.030000000000        -0.885101902719
   17          0.030000000000        -0.031709391806
   18          0.030000000000         0.018805811843
 end
-------------------------------------------
RADIAL EXPECTATION VALUES <R**-3> TO <R**3>
-------------------------------------------
   0 :     0.000006     0.891137     0.897115     1.230805     1.669962     2.494225
   1 :     0.761891     0.741293     0.813016     1.374571     2.105454     3.584225
   2 :     0.761891     0.741293     0.813016     1.374571     2.105455     3.584226
   3 :     0.763206     0.742310     0.813662     1.373370     2.103187     3.593603
   4 :     0.007099     0.173655     0.356685     3.353627    12.650141    53.636688
   5 :     0.335882     0.402740     0.581304     2.034455     4.853592    67.247786
   6 :     0.326488     0.394820     0.573741     2.080588     5.142670    68.810173
   7 :     0.079111     0.117038     0.283459     4.510887    24.495195   155.235579
   8 :     0.079146     0.117078     0.283510     4.510108    24.487260   155.167166
   9 :     0.057440     0.091784     0.250505     5.035468    29.899085   202.189784
  10 :     0.288147     0.355384     0.538154     2.281174     6.350238   106.189604
  11 :     0.284076     0.351287     0.534346     2.304141     6.493812   110.036745
  12 :     0.284076     0.351287     0.534345     2.304145     6.493835   110.037352
  13 :     0.000051     0.056918     0.189894     6.443060    45.779919   346.178882
  14 :     0.093127     0.126978     0.285630     4.436437    21.957869   578.648792
  15 :     0.140862     0.174333     0.328781     4.189717    20.461221   539.706981
  16 :     0.095345     0.129154     0.287560     4.426506    21.903416   577.062822
  17 :     0.103059     0.131932     0.279159     5.281607    35.066097   264.626306
  18 :     0.103094     0.131972     0.279210     5.280828    35.058163   264.557894
  19 :     0.144933     0.178430     0.332588     4.166750    20.317647   535.859840
  20 :     0.144934     0.178431     0.332589     4.166746    20.317624   535.859233
  21 :     0.123451     0.156210     0.311518     4.757448    29.656539   217.594311
  22 :     0.000020     0.522821     0.602566     2.513941     9.644377    52.865245
  23 :     0.000000    10.991145     2.693085     0.528872     0.550973     1.667061
Making the total density                ... o.k.
Making exponents                        ... done
Making rho(0)                           ... done (         0.000834105)
Integral calculation                    ... Solving the equation system             ... done
atomic density will be written to file run_atom40.adf

-------
TIMINGS
-------

Total SCF time: 0 days 0 hours 0 min 1 sec 

Total time                  ....       1.151 sec
Sum of individual times     ....       1.067 sec  ( 92.8%)

SCF preparation             ....       0.047 sec  (  4.1%)
Fock matrix formation       ....       0.885 sec  ( 76.9%)
  Startup                   ....       0.004 sec  (  0.5% of F)
  Coulomb+Exchange Fock     ....       0.871 sec  ( 98.4% of F)
Diagonalization             ....       0.000 sec  (  0.0%)
Density matrix formation    ....       0.025 sec  (  2.2%)
Total Energy calculation    ....       0.004 sec  (  0.3%)
Population analysis         ....       0.000 sec  (  0.0%)
Orbital Transformation      ....       0.001 sec  (  0.1%)
Orbital Orthonormalization  ....       0.000 sec  (  0.0%)
DIIS solution               ....       0.105 sec  (  9.1%)
SOSCF solution              ....       0.000 sec  (  0.0%)
Finished LeanSCF after   1.2 sec

Maximum memory used throughout the entire LEANSCF-calculation: 5.9 MB

-------------------------   --------------------
FINAL SINGLE POINT ENERGY       -46.017110380744
-------------------------   --------------------


------------------------------------------------------------------------------
                              ORCA PROPERTY CALCULATIONS
------------------------------------------------------------------------------

GBWName                                 ... run_atom40.gbw
Number of atoms                         ...      1
Number of basis functions               ...     24
Max core memory                         ...   4096 MB

Electric properties:
Dipole moment                           ... YES
Quadrupole moment                       ...  NO
Static polarizability (Dipole/Dipole)   ...  NO
Static polarizability (Dipole/Quad.)    ...  NO
Static polarizability (Quad./Quad.)     ...  NO
Static polarizability (Velocity)        ...  NO
Static hyperpolarizability              ...  NO

Atomic electric properties:
Dipole moment                           ...  NO
Quadrupole moment                       ...  NO
Static polarizability                   ...  NO

Choice of electric origin               ... Center of mass
Position of electric origin             ...     0.000000     0.000000     0.000000

General magnetic properties:
Magnetizability                         ...  NO

EPR properties:
g-Tensor (aka g-matrix)                 ...  NO
Zero-Field splitting spin-orbit         ...  NO
Zero-field splitting spin-spin          ...  NO
Hyperfine couplings                     ...  NO (   0 nuclei)
Quadrupole couplings                    ...  NO (   0 nuclei)
Contact density                         ...  NO (   0 nuclei)

NMR properties:
Chemical shifts                         ...  NO (   0 nuclei)
Spin-rotation constants                 ...  NO (   0 nuclei)
Spin-spin couplings                     ...  NO (   0 nuclei,    0 pairs)

Choice of magnetic origin               ... GIAO
Position of magnetic origin             ...     0.000000     0.000000     0.000000

Properties with geometric perturbations:
SCF Hessian                             ...  NO
IR spectrum                             ...  NO
VCD spectrum                            ...  NO
X-ray spectroscopy properties:
SCF XES/XAS/RIXS spectra                ...  NO

SCF SOC stabilization energy            ...  NO
Diagonal Born-Oppenheimer correction    ...  NO

-------------
DIPOLE MOMENT
-------------

Method             : SCF
Type of density    : Electron Density
Multiplicity       :   3
Irrep              :   0
Energy             :   -46.0171103807439366 Eh
Basis              : AO
                                X                 Y                 Z
Electronic contribution:      0.000000003      -0.000000002      -0.000000001
Nuclear contribution   :      0.000000000       0.000000000       0.000000000
                        -----------------------------------------
Total Dipole Moment    :      0.000000003      -0.000000002      -0.000000001
                        -----------------------------------------
Magnitude (a.u.)       :      0.000000003
Magnitude (Debye)      :      0.000000009



--------------------
Rotational spectrum 
--------------------
 
Rotational constants in cm-1:             0.000000             0.000000             0.000000 
Rotational constants in MHz :             0.000000             0.000000             0.000000 

Dipole components along the rotational axes: 
x,y,z [a.u.] :     0.000000    -0.000000    -0.000000 
x,y,z [Debye]:     0.000000    -0.000000    -0.000000 

 

Dipole moment calculation done in   0.0 sec 

Maximum memory used throughout the entire PROP-calculation: 1.6 MB

--------------------------------
SUGGESTED CITATIONS FOR THIS RUN
--------------------------------

Below you find a list of papers that are relevant to this ORCA run
We neither can nor want to force you to cite these papers, but we appreciate if you do
You receive ORCA, which is the product of decades of hard work by many enthusiastic individuals, for free
The only thing we kindly ask in return is that you cite our papers,
We deeply appreciate it, if you show your appreciation for ORCA by not just citing the generic ORCA reference.

Please note that relegating all ORCA citations to the supporting information does *not* help us.
SI sections are not indexed - citations you put there will not count into any citation statistics
But we need these citations in order to attract the funding resources that allow us to do what we are doing

Therefore, if you are a happy ORCA user, please consider citing a few of the papers listed below in the main body of your paper

In addition to the list printed below, the program has created the file run_atom40.bibtex that contains the list in bibtex format
You can import this file easily into all common literature databanks and citation aid programs


List of essential papers. We consider these as the minimum necessary citations

  1. Neese, F.
     Software update: the ORCA program system, version 6.0
     WIRES Comput. Molec. Sci. 2025 15(1), e70019
     doi.org/10.1002/wcms.7019

List of papers to cite with high priority. The work reported in these papers was absolutely
necessary for this run to complete.
Our perspective: the developers of density functionals and basis sets usually get cited in chemistry papers
Good! But without the algorithms to do something with them, the functionals or basis sets would not do anything.
Hence, in our opinion, the algorithm design and method developments papers are equally worthy of getting cited

  1. Neese, F.
     The SHARK Integral Generation and Digestion System
     J. Comp. Chem. 2022 44(3), 381
     doi.org/10.1002/jcc.26942

List of suggested additional citations. These are papers that are important in the 'surrounding' of 
of this run, or papers that preceded the highly important papers. If you like your results we are grateful for a citation.

  1. Neese, F.
     The ORCA program system
     WIRES Comput. Molec. Sci. 2012 2(1), 73-78
     doi.org/10.1002/wcms.81
  2. Neese, F.
     Software update: the ORCA program system, version 4.0
     WIRES Comput. Molec. Sci. 2018 8(1), 1-6
     doi.org/10.1002/wcms.1327
  3. Neese, F.; Wennmohs, F.; Becker, U.; Riplinger, C.
     The ORCA quantum chemistry program package
     J. Chem. Phys. 2020 152(22), 224108
     doi.org/10.1063/5.0004608
  4. Neese, F.
     Software update: The ORCA program system—Version 5.0
     WIRES Comput. Molec. Sci. 2022 12(1), e1606
     doi.org/10.1002/wcms.1606

List of optional additional citations

  1. Neese, F.
     Approximate second-order SCF convergence for spin unrestricted wavefunctions
     Chem. Phys. Lett. 2000 325(1-3), 93-98
     doi.org/10.1016/s0009-2614(00)00662-x

Timings for individual modules:

Sum of individual times          ...        2.740 sec (=   0.046 min)
Startup calculation              ...        1.386 sec (=   0.023 min)  50.6 %
SCF iterations                   ...        1.274 sec (=   0.021 min)  46.5 %
Property calculations            ...        0.079 sec (=   0.001 min)   2.9 %
                             ****ORCA TERMINATED NORMALLY****
TOTAL RUN TIME: 0 days 0 hours 0 minutes 2 seconds 875 msec
