
     Program PWSCF v.7.3.1 starts on  3Jun2025 at 12:31:22 

     This program is part of the open-source Quantum ESPRESSO suite
     for quantum simulation of materials; please cite
         "P. Giannozzi et al., J. Phys.:Condens. Matter 21 395502 (2009);
         "P. Giannozzi et al., J. Phys.:Condens. Matter 29 465901 (2017);
         "P. Giannozzi et al., J. Chem. Phys. 152 154105 (2020);
          URL http://www.quantum-espresso.org", 
     in publications or presentations arising from this work. More details at
     http://www.quantum-espresso.org/quote

     Parallel version (MPI), running on   256 processors

     MPI processes distributed on     1 nodes
     1533017 MiB available memory on the printing compute node when the environment starts

     Waiting for input...
     Reading input from standard input

     Current dimensions of program PWSCF are:
     Max number of different atomic species (ntypx) = 10
     Max number of k-points (npk) =  40000
     Max angular momentum in pseudopotentials (lmaxx) =  4
     file H.pbe-kjpaw_psl.1.0.0.UPF: wavefunction(s)  1S renormalized
     file Zr.pbe-spn-kjpaw_psl.1.0.0.UPF: wavefunction(s)  4S 4P renormalized
     file C.pbe-n-kjpaw_psl.1.0.0.UPF: wavefunction(s)  2S 2P renormalized
     file O.pbe-n-kjpaw_psl.1.0.0.UPF: wavefunction(s)  2S 2P renormalized

     IMPORTANT: XC functional enforced from input :
     Exchange-correlation= PBE
                           (   1   4   3   4   0   0   0)
     Any further DFT definition will be discarded
     Please, verify this is what you really want


     gamma-point specific algorithms are used
     Message from routine setup:
     using ibrav=0 with symmetry is DISCOURAGED, use correct ibrav instead

     R & G space division:  proc/nbgrp/npool/nimage =     256
     WARNING: too many processors for an effective parallelization!
     wavefunctions fft division:  task group distribution
                                  #TG    x Z-proc =       8     32
     Subspace diagonalization in iterative solution of the eigenvalue problem:
     one sub-group per band group will be used
     custom distributed-memory algorithm (size of sub-group:  2*  2 procs)


     Parallelization info
     --------------------
     sticks:   dense  smooth     PW     G-vecs:    dense   smooth      PW
     Min          98      66     16                10594     5766     714
     Max         100      68     18                10626     5784     734
     Sum       25455   16987   4247              2716409  1478899  184725

     Using Pencil Decomposition


     Title: 
     UiO-66-dehydrox GeomOpt                                                    


     bravais-lattice index     =            0
     lattice parameter (alat)  =      27.5901  a.u.
     unit-cell volume          =   15298.8039 (a.u.)^3
     number of atoms/cell      =          108
     number of atomic types    =            4
     number of electrons       =       468.00
     number of Kohn-Sham states=          234
     kinetic-energy cutoff     =      80.0000  Ry
     charge density cutoff     =     480.0000  Ry
     scf convergence threshold =      1.0E-08
     mixing beta               =       0.7000
     number of iterations used =            8  plain     mixing
     energy convergence thresh.=      3.6E-06
     force convergence thresh. =      1.0E-05
     press convergence thresh. =      5.0E-01
     Exchange-correlation= PBE
                           (   1   4   3   4   0   0   0)
     nstep                     =          750


     celldm(1)=  27.590096  celldm(2)=   0.000000  celldm(3)=   0.000000
     celldm(4)=   0.000000  celldm(5)=   0.000000  celldm(6)=   0.000000

     crystal axes: (cart. coord. in units of alat)
               a(1) = (   0.997656   0.000096   0.000069 )  
               a(2) = (   0.473345   0.878216   0.000069 )  
               a(3) = (   0.473345   0.282627   0.831498 )  

     reciprocal axes: (cart. coord. in units 2 pi/alat)
               b(1) = (  1.002428 -0.540263 -0.387014 )  
               b(2) = ( -0.000083  1.138747 -0.387014 )  
               b(3) = ( -0.000083 -0.000049  1.202713 )  


     PseudoPot. # 1 for H  read from file:
     /home/mehlhorn/pseudos/UiO-66_pbe-spn-kjpaw/H.pbe-kjpaw_psl.1.0.0.UPF
     MD5 check sum: d81a744832360e4a8af0b0b5b123bc2a
     Pseudo is Projector augmented-wave, Zval =  1.0
     Generated using &quot;atomic&quot; code by A. Dal Corso  v.6.3MaX
     Shape of augmentation charge: PSQ
     Using radial grid of  929 points,  2 beta functions with: 
                l(1) =   0
                l(2) =   0
     Q(r) pseudized with 0 coefficients 


     PseudoPot. # 2 for Zr read from file:
     /home/mehlhorn/pseudos/UiO-66_pbe-spn-kjpaw/Zr.pbe-spn-kjpaw_psl.1.0.0.UPF
     MD5 check sum: 02112c41713a0468aff2bb39ef194e36
     Pseudo is Projector augmented-wave + core cor, Zval = 12.0
     Generated using &quot;atomic&quot; code by A. Dal Corso  v.6.2.2
     Shape of augmentation charge: PSQ
     Using radial grid of 1225 points,  6 beta functions with: 
                l(1) =   0
                l(2) =   0
                l(3) =   1
                l(4) =   1
                l(5) =   2
                l(6) =   2
     Q(r) pseudized with 0 coefficients 


     PseudoPot. # 3 for C  read from file:
     /home/mehlhorn/pseudos/UiO-66_pbe-spn-kjpaw/C.pbe-n-kjpaw_psl.1.0.0.UPF
     MD5 check sum: 5f16ad9a65e90284d1d834d4ab3b0f7d
     Pseudo is Projector augmented-wave + core cor, Zval =  4.0
     Generated using &quot;atomic&quot; code by A. Dal Corso  v.6.3
     Shape of augmentation charge: PSQ
     Using radial grid of 1073 points,  4 beta functions with: 
                l(1) =   0
                l(2) =   0
                l(3) =   1
                l(4) =   1
     Q(r) pseudized with 0 coefficients 


     PseudoPot. # 4 for O  read from file:
     /home/mehlhorn/pseudos/UiO-66_pbe-spn-kjpaw/O.pbe-n-kjpaw_psl.1.0.0.UPF
     MD5 check sum: e99d9cef9b487d1ca56f5b95ecd0fd7a
     Pseudo is Projector augmented-wave + core cor, Zval =  6.0
     Generated using &quot;atomic&quot; code by A. Dal Corso  v.6.3
     Shape of augmentation charge: PSQ
     Using radial grid of 1095 points,  4 beta functions with: 
                l(1) =   0
                l(2) =   0
                l(3) =   1
                l(4) =   1
     Q(r) pseudized with 0 coefficients 


     atomic species   valence    mass     pseudopotential
     H                 1.00     1.00750     H ( 1.00)
     Zr               12.00    91.22400     Zr( 1.00)
     C                 4.00    12.01060     C ( 1.00)
     O                 6.00    15.99900     O ( 1.00)

      2 Sym. Ops., with inversion, found



   Cartesian axes

     site n.     atom                  positions (alat units)
         1        Zr     tau(   1) = (   0.9851027   0.1391082   0.1016587  )
         2        Zr     tau(   2) = (   0.9592436   1.0218298   0.7299761  )
         3        Zr     tau(   3) = (   0.5914413   0.8003187   0.0990032  )
         4        Zr     tau(   4) = (   1.3529050   0.3606198   0.7326309  )
         5        Zr     tau(   5) = (   0.5897657   0.3540424   0.7259098  )
         6        Zr     tau(   6) = (   1.3545800   0.8068964   0.1057250  )
         7        O      tau(   7) = (   1.0813102   0.2536948   0.0705110  )
         8        O      tau(   8) = (   0.8630365   0.9072440   0.7611238  )
         9        O      tau(   9) = (   0.6435727   0.8815129   0.2175194  )
        10        O      tau(  10) = (   1.3007741   0.2794259   0.6141155  )
        11        O      tau(  11) = (   0.7362778   0.3343108   0.7646534  )
        12        O      tau(  12) = (   1.2080689   0.8266280   0.0669815  )
        13        O      tau(  13) = (   1.2129753   0.3069371   0.7631532  )
        14        O      tau(  14) = (   0.7313714   0.8540017   0.0684817  )
        15        O      tau(  15) = (   1.2984364   0.6781963   0.0450781  )
        16        O      tau(  16) = (   0.6459104   0.4827425   0.7865568  )
        17        O      tau(  17) = (   0.8456077   1.0192882   0.6276320  )
        18        O      tau(  18) = (   1.0987390   0.1416506   0.2040028  )
        19        O      tau(  19) = (   1.0496874   1.0173912   0.6102479  )
        20        O      tau(  20) = (   0.8946594   0.1435476   0.2213870  )
        21        O      tau(  21) = (   1.2947573   0.4946919   0.7669510  )
        22        O      tau(  22) = (   0.6495894   0.6662469   0.0646839  )
        23        O      tau(  23) = (   1.3935781   0.7198291   0.2216258  )
        24        O      tau(  24) = (   0.5507686   0.4411097   0.6100091  )
        25        O      tau(  25) = (   0.5500744   0.7116369   0.2154499  )
        26        O      tau(  26) = (   1.3942723   0.4493020   0.6161849  )
        27        O      tau(  27) = (   0.6420824   0.2788588   0.6044774  )
        28        O      tau(  28) = (   1.3022643   0.8820800   0.2271574  )
        29        O      tau(  29) = (   0.8874101   0.2511807   0.0695429  )
        30        O      tau(  30) = (   1.0569367   0.9097581   0.7620920  )
        31        O      tau(  31) = (   0.8779399   0.0527690   0.0396895  )
        32        O      tau(  32) = (   1.0664068   1.1081698   0.7919453  )
        33        O      tau(  33) = (   0.4644993   0.7469917   0.0371936  )
        34        O      tau(  34) = (   1.4798475   0.4139471   0.7944413  )
        35        O      tau(  35) = (   0.4629250   0.2781934   0.6953060  )
        36        O      tau(  36) = (   1.4814218   0.8827454   0.1363289  )
        37        C      tau(  37) = (   1.3136767   0.9631299   0.2572053  )
        38        C      tau(  38) = (   0.6306700   0.1978089   0.5744295  )
        39        C      tau(  39) = (   1.1103523   0.8939388   0.8291632  )
        40        C      tau(  40) = (   0.8339944   0.2670000   0.0024717  )
        41        C      tau(  41) = (   1.4710374   0.4686144   0.5796267  )
        42        C      tau(  42) = (   0.4733094   0.6923244   0.2520082  )
        43        C      tau(  43) = (   0.8010489   0.8978008   0.8217477  )
        44        C      tau(  44) = (   1.1432978   0.2631380   0.0098871  )
        45        C      tau(  45) = (   1.3192249   0.1990689   0.5856690  )
        46        C      tau(  46) = (   0.6251218   0.9618699   0.2459659  )
        47        C      tau(  47) = (   1.1703505   0.8679114   0.0000475  )
        48        C      tau(  48) = (   0.7739962   0.2930274   0.8315874  )
        49        C      tau(  49) = (   1.1900008   0.3542087   0.0042498  )
        50        C      tau(  50) = (   0.7543460   0.8067301   0.8273850  )
        51        C      tau(  51) = (   0.6683722   0.9916162   0.3340078  )
        52        C      tau(  52) = (   1.2759746   0.1693226   0.4976270  )
        53        C      tau(  53) = (   0.8763219   0.2870181   0.8314247  )
        54        C      tau(  54) = (   1.0680248   0.8739207   0.0002102  )
        55        C      tau(  55) = (   0.6845059   0.1687816   0.4922646  )
        56        C      tau(  56) = (   1.2598408   0.9921572   0.3393703  )
        57        C      tau(  57) = (   0.7828253   0.3557273   0.0014235  )
        58        C      tau(  58) = (   1.1615215   0.8052115   0.8302113  )
        59        C      tau(  59) = (   0.4732942   0.6342073   0.3363549  )
        60        C      tau(  60) = (   1.4710525   0.5267315   0.4952799  )
        61        C      tau(  61) = (   1.1608478   0.4267681   0.0601262  )
        62        C      tau(  62) = (   0.7834989   0.7341708   0.7715087  )
        63        C      tau(  63) = (   0.7216677   0.9297805   0.3847319  )
        64        C      tau(  64) = (   1.2226790   0.2311583   0.4469029  )
        65        C      tau(  65) = (   0.9263693   0.3205902   0.7565565  )
        66        C      tau(  66) = (   1.0179774   0.8403486   0.0750783  )
        67        C      tau(  67) = (   1.0215054   0.3162146   0.7565960  )
        68        C      tau(  68) = (   0.9228413   0.8447242   0.0750388  )
        69        C      tau(  69) = (   1.2047711   0.5111698   0.0559708  )
        70        C      tau(  70) = (   0.7395756   0.6497690   0.7756641  )
        71        C      tau(  71) = (   0.7629461   0.9574322   0.4659822  )
        72        C      tau(  72) = (   1.1814007   0.2035066   0.3656527  )
        73        C      tau(  73) = (   1.1496105   0.9574892   0.4583313  )
        74        C      tau(  74) = (   0.7947363   0.2034496   0.3733036  )
        75        C      tau(  75) = (   1.1985682   0.6600334   0.7591117  )
        76        C      tau(  76) = (   0.7457785   0.5009055   0.0725232  )
        77        C      tau(  77) = (   1.3882452   0.6134370   0.3806963  )
        78        C      tau(  78) = (   0.5561016   0.5475018   0.4509385  )
        79        C      tau(  79) = (   0.5560499   0.6009164   0.3720710  )
        80        C      tau(  80) = (   1.3882968   0.5600224   0.4595639  )
        81        C      tau(  81) = (   0.7441026   0.2306727   0.4492535  )
        82        C      tau(  82) = (   1.2002441   0.9302661   0.3823813  )
        83        C      tau(  83) = (   0.7927752   0.4180641   0.0738623  )
        84        C      tau(  84) = (   1.1515716   0.7428747   0.7577725  )
        85        H      tau(  85) = (   1.1915195   0.6110894   0.7032573  )
        86        H      tau(  86) = (   0.7528272   0.5498494   0.1283776  )
        87        H      tau(  87) = (   1.3244829   0.6397890   0.3523249  )
        88        H      tau(  88) = (   0.6198638   0.5211498   0.4793100  )
        89        H      tau(  89) = (   1.1031798   0.9100786   0.4924093  )
        90        H      tau(  90) = (   0.8411670   0.2508602   0.3392256  )
        91        H      tau(  91) = (   0.8377350   0.4003950   0.1307157  )
        92        H      tau(  92) = (   1.1066117   0.7605438   0.7009192  )
        93        H      tau(  93) = (   0.6197611   0.6176568   0.3370500  )
        94        H      tau(  94) = (   1.3245856   0.5432820   0.4945849  )
        95        H      tau(  95) = (   0.7498760   0.2999339   0.4763718  )
        96        H      tau(  96) = (   1.1944707   0.8610049   0.3552630  )
        97        H      tau(  97) = (   0.7299071   0.8601184   0.3593436  )
        98        H      tau(  98) = (   1.2144396   0.3008205   0.4722913  )
        99        H      tau(  99) = (   0.8893850   0.3498791   0.6987672  )
       100        H      tau( 100) = (   1.0549617   0.8110597   0.1328677  )
       101        H      tau( 101) = (   1.1034321   0.4156950   0.1064522  )
       102        H      tau( 102) = (   0.8409146   0.7452438   0.7251827  )
       103        H      tau( 103) = (   0.8040190   0.9099254   0.5062597  )
       104        H      tau( 104) = (   1.1403277   0.2510134   0.3253751  )
       105        H      tau( 105) = (   1.0611051   0.3415316   0.6986554  )
       106        H      tau( 106) = (   0.8832417   0.8194073   0.1329795  )
       107        H      tau( 107) = (   1.1824332   0.5681891   0.0985846  )
       108        H      tau( 108) = (   0.7619136   0.5927497   0.7330503  )

     number of k points=     1
                       cart. coord. in units 2pi/alat
        k(    1) = (   0.0000000   0.0000000   0.0000000), wk =   2.0000000

     Dense  grid:  1358205 G-vectors     FFT dimensions: ( 192, 192, 192)

     Smooth grid:   739450 G-vectors     FFT dimensions: ( 160, 160, 160)

     Estimated max dynamical RAM per process >      51.64 MB

     Estimated total dynamical RAM >      12.91 GB

     Check: negative core charge=   -0.000001

     Initial potential from superposition of free atoms

     starting charge     467.9848, renormalised to     468.0000

     negative rho (up, down):  4.388E-05 0.000E+00
     Starting wfcs are  414 randomized atomic wfcs
     Checking if some PAW data can be deallocated... 

     total cpu time spent up to now is        4.8 secs

     Self-consistent Calculation

     iteration #  1     ecut=    80.00 Ry     beta= 0.70
     Davidson diagonalization with overlap
     ethr =  1.00E-02,  avg # of iterations =  2.0

     negative rho (up, down):  9.114E-06 0.000E+00

     total cpu time spent up to now is        9.2 secs

     total energy              =   -4001.12687222 Ry
     estimated scf accuracy    <      17.31051563 Ry

     iteration #  2     ecut=    80.00 Ry     beta= 0.70
     Davidson diagonalization with overlap
     ethr =  3.70E-03,  avg # of iterations = 12.0

     negative rho (up, down):  2.319E-05 0.000E+00

     total cpu time spent up to now is       16.0 secs

     total energy              =   -4005.56972304 Ry
     estimated scf accuracy    <      15.41022993 Ry

     iteration #  3     ecut=    80.00 Ry     beta= 0.70
     Davidson diagonalization with overlap
     ethr =  3.29E-03,  avg # of iterations =  8.0

     negative rho (up, down):  5.754E-05 0.000E+00

     total cpu time spent up to now is       20.4 secs

     total energy              =   -4008.09634670 Ry
     estimated scf accuracy    <       2.01089600 Ry

     iteration #  4     ecut=    80.00 Ry     beta= 0.70
     Davidson diagonalization with overlap
     ethr =  4.30E-04,  avg # of iterations =  8.0

     negative rho (up, down):  2.962E-04 0.000E+00

     total cpu time spent up to now is       25.7 secs

     total energy              =   -4009.04974372 Ry
     estimated scf accuracy    <       0.11068643 Ry

     iteration #  5     ecut=    80.00 Ry     beta= 0.70
     Davidson diagonalization with overlap
     ethr =  2.37E-05,  avg # of iterations = 12.0

     negative rho (up, down):  3.759E-04 0.000E+00

     total cpu time spent up to now is       34.3 secs

     total energy              =   -4009.15974626 Ry
     estimated scf accuracy    <       0.11754268 Ry

     iteration #  6     ecut=    80.00 Ry     beta= 0.70
     Davidson diagonalization with overlap
     ethr =  2.37E-05,  avg # of iterations =  2.0

     negative rho (up, down):  4.576E-04 0.000E+00

     total cpu time spent up to now is       37.8 secs

     total energy              =   -4009.14822162 Ry
     estimated scf accuracy    <       0.03659353 Ry

     iteration #  7     ecut=    80.00 Ry     beta= 0.70
     Davidson diagonalization with overlap
     ethr =  7.82E-06,  avg # of iterations =  8.0

     negative rho (up, down):  4.682E-04 0.000E+00

     total cpu time spent up to now is       45.1 secs

     total energy              =   -4009.17515237 Ry
     estimated scf accuracy    <       0.02971335 Ry

     iteration #  8     ecut=    80.00 Ry     beta= 0.70
     Davidson diagonalization with overlap
     ethr =  6.35E-06,  avg # of iterations =  2.0

     negative rho (up, down):  4.960E-04 0.000E+00

     total cpu time spent up to now is       48.2 secs

     total energy              =   -4009.16274351 Ry
     estimated scf accuracy    <       0.01944780 Ry

     iteration #  9     ecut=    80.00 Ry     beta= 0.70
     Davidson diagonalization with overlap
     ethr =  4.16E-06,  avg # of iterations =  8.0

     negative rho (up, down):  4.967E-04 0.000E+00

     total cpu time spent up to now is       54.3 secs

     total energy              =   -4009.17147135 Ry
     estimated scf accuracy    <       0.01077675 Ry

     iteration # 10     ecut=    80.00 Ry     beta= 0.70
     Davidson diagonalization with overlap
     ethr =  2.30E-06,  avg # of iterations =  2.0

     negative rho (up, down):  4.970E-04 0.000E+00

     total cpu time spent up to now is       57.4 secs

     total energy              =   -4009.16817867 Ry
     estimated scf accuracy    <       0.00569380 Ry

     iteration # 11     ecut=    80.00 Ry     beta= 0.70
     Davidson diagonalization with overlap
     ethr =  1.22E-06,  avg # of iterations =  8.0

     negative rho (up, down):  4.973E-04 0.000E+00

     total cpu time spent up to now is       64.0 secs

     total energy              =   -4009.17212943 Ry
     estimated scf accuracy    <       0.00768788 Ry

     iteration # 12     ecut=    80.00 Ry     beta= 0.70
     Davidson diagonalization with overlap
     ethr =  1.22E-06,  avg # of iterations =  1.0

     negative rho (up, down):  4.994E-04 0.000E+00

     total cpu time spent up to now is       66.8 secs

     total energy              =   -4009.17002737 Ry
     estimated scf accuracy    <       0.00447479 Ry

     iteration # 13     ecut=    80.00 Ry     beta= 0.70
     Davidson diagonalization with overlap
     ethr =  9.56E-07,  avg # of iterations = 11.0

     negative rho (up, down):  4.999E-04 0.000E+00

     total cpu time spent up to now is       72.3 secs

     total energy              =   -4009.17198655 Ry
     estimated scf accuracy    <       0.00069728 Ry

     iteration # 14     ecut=    80.00 Ry     beta= 0.70
     Davidson diagonalization with overlap
     ethr =  1.49E-07,  avg # of iterations =  7.0

     negative rho (up, down):  5.002E-04 0.000E+00

     total cpu time spent up to now is       77.0 secs

     total energy              =   -4009.17193418 Ry
     estimated scf accuracy    <       0.00076891 Ry

     iteration # 15     ecut=    80.00 Ry     beta= 0.70
     Davidson diagonalization with overlap
     ethr =  1.49E-07,  avg # of iterations =  2.0

     negative rho (up, down):  5.009E-04 0.000E+00

     total cpu time spent up to now is       80.1 secs

     total energy              =   -4009.17177453 Ry
     estimated scf accuracy    <       0.00038207 Ry

     iteration # 16     ecut=    80.00 Ry     beta= 0.70
     Davidson diagonalization with overlap
     ethr =  8.16E-08,  avg # of iterations = 12.0

     negative rho (up, down):  5.008E-04 0.000E+00

     total cpu time spent up to now is       86.3 secs

     total energy              =   -4009.17199700 Ry
     estimated scf accuracy    <       0.00016534 Ry

     iteration # 17     ecut=    80.00 Ry     beta= 0.70
     Davidson diagonalization with overlap
     ethr =  3.53E-08,  avg # of iterations =  2.0

     negative rho (up, down):  5.009E-04 0.000E+00

     total cpu time spent up to now is       89.4 secs

     total energy              =   -4009.17197494 Ry
     estimated scf accuracy    <       0.00010217 Ry

     iteration # 18     ecut=    80.00 Ry     beta= 0.70
     Davidson diagonalization with overlap
     ethr =  2.18E-08,  avg # of iterations =  8.0

     negative rho (up, down):  5.010E-04 0.000E+00

     total cpu time spent up to now is       93.4 secs

     total energy              =   -4009.17199431 Ry
     estimated scf accuracy    <       0.00000964 Ry

     iteration # 19     ecut=    80.00 Ry     beta= 0.70
     Davidson diagonalization with overlap
     ethr =  2.06E-09,  avg # of iterations =  7.0

     negative rho (up, down):  5.011E-04 0.000E+00

     total cpu time spent up to now is       98.4 secs

     total energy              =   -4009.17199440 Ry
     estimated scf accuracy    <       0.00001224 Ry

     iteration # 20     ecut=    80.00 Ry     beta= 0.70
     Davidson diagonalization with overlap
     ethr =  2.06E-09,  avg # of iterations =  2.0

     negative rho (up, down):  5.013E-04 0.000E+00

     total cpu time spent up to now is      101.6 secs

     total energy              =   -4009.17199329 Ry
     estimated scf accuracy    <       0.00000586 Ry

     iteration # 21     ecut=    80.00 Ry     beta= 0.70
     Davidson diagonalization with overlap
     ethr =  1.25E-09,  avg # of iterations =  7.0

     negative rho (up, down):  5.013E-04 0.000E+00

     total cpu time spent up to now is      106.9 secs

     total energy              =   -4009.17199600 Ry
     estimated scf accuracy    <       0.00000078 Ry

     iteration # 22     ecut=    80.00 Ry     beta= 0.70
     Davidson diagonalization with overlap
     ethr =  1.66E-10,  avg # of iterations =  7.0

     negative rho (up, down):  5.013E-04 0.000E+00

     total cpu time spent up to now is      111.8 secs

     total energy              =   -4009.17199566 Ry
     estimated scf accuracy    <       0.00000138 Ry

     iteration # 23     ecut=    80.00 Ry     beta= 0.70
     Davidson diagonalization with overlap
     ethr =  1.66E-10,  avg # of iterations =  7.0

     negative rho (up, down):  5.013E-04 0.000E+00

     total cpu time spent up to now is      116.9 secs

     total energy              =   -4009.17199596 Ry
     estimated scf accuracy    <       0.00000008 Ry

     iteration # 24     ecut=    80.00 Ry     beta= 0.70
     Davidson diagonalization with overlap
     ethr =  1.78E-11,  avg # of iterations = 13.0

     negative rho (up, down):  5.013E-04 0.000E+00

     total cpu time spent up to now is      126.1 secs

     total energy              =   -4009.17199584 Ry
     estimated scf accuracy    <       0.00000102 Ry

     iteration # 25     ecut=    80.00 Ry     beta= 0.70
     Davidson diagonalization with overlap
     ethr =  1.78E-11,  avg # of iterations = 15.0

     negative rho (up, down):  5.013E-04 0.000E+00

     total cpu time spent up to now is      134.0 secs

     total energy              =   -4009.17199595 Ry
     estimated scf accuracy    <       0.00000006 Ry

     iteration # 26     ecut=    80.00 Ry     beta= 0.70
     Davidson diagonalization with overlap
     ethr =  1.36E-11,  avg # of iterations =  2.0

     negative rho (up, down):  5.013E-04 0.000E+00

     total cpu time spent up to now is      137.1 secs

     total energy              =   -4009.17199594 Ry
     estimated scf accuracy    <       0.00000006 Ry

     iteration # 27     ecut=    80.00 Ry     beta= 0.70
     Davidson diagonalization with overlap
     ethr =  1.21E-11,  avg # of iterations =  8.0

     negative rho (up, down):  5.013E-04 0.000E+00

     total cpu time spent up to now is      141.0 secs

     total energy              =   -4009.17199594 Ry
     estimated scf accuracy    <       0.00000002 Ry

     iteration # 28     ecut=    80.00 Ry     beta= 0.70
     Davidson diagonalization with overlap
     ethr =  3.23E-12,  avg # of iterations =  7.0

     negative rho (up, down):  5.013E-04 0.000E+00

     total cpu time spent up to now is      146.1 secs

     End of self-consistent calculation

          k = 0.0000 0.0000 0.0000 ( 92363 PWs)   bands (ev):

   -49.6143 -49.5980 -49.5979 -49.5858 -49.5837 -49.5836 -28.1044 -28.0014
   -28.0014 -27.9079 -27.9079 -27.8998 -27.7725 -27.7276 -27.7276 -27.7210
   -27.7209 -27.6945 -27.6218 -27.6218 -27.5861 -27.5725 -27.5725 -27.5719
   -22.8391 -22.7920 -22.7920 -22.7863 -22.7863 -22.7608 -22.5839 -22.5772
   -22.5199 -22.5198 -22.5175 -22.5175 -20.5526 -20.5363 -20.5363 -20.5067
   -20.5067 -20.4710 -20.3469 -20.3468 -20.3235 -20.3235 -20.2401 -20.2360
   -17.9950 -17.7627 -17.7626 -17.5689 -17.5689 -17.5267 -17.3917 -17.3907
   -17.3907 -17.2136 -17.2136 -17.2114 -15.0496 -15.0496 -15.0402 -14.8617
   -14.8410 -14.8410 -14.4883 -14.4860 -14.4860 -14.3139 -14.3139 -14.3117
   -12.2911 -12.2548 -12.2548 -12.0949 -12.0363 -12.0363 -10.9631 -10.9631
   -10.9516 -10.7860 -10.7860 -10.7693 -10.2309 -10.2308 -10.1499 -10.0274
    -9.8543  -9.8543  -9.6148  -9.5557  -9.5557  -9.4464  -9.3768  -9.3768
    -8.7841  -8.6119  -8.5367  -8.5367  -8.3947  -8.3946  -8.3546  -8.1971
    -8.1971  -8.1493  -8.1493  -7.8692  -7.8668  -7.8667  -7.7622  -7.7622
    -7.6627  -7.6483  -7.6482  -7.6395  -7.5377  -7.3855  -7.3855  -7.2541
    -7.1553  -6.9174  -6.9174  -6.8586  -6.8322  -6.8321  -6.8321  -6.7358
    -6.7358  -6.6987  -6.6885  -6.6885  -6.6665  -6.6665  -6.6561  -6.5693
    -6.5340  -6.5340  -6.5118  -6.4525  -6.4248  -6.4248  -6.3474  -6.3474
    -6.2154  -6.1887  -6.1887  -6.0311  -6.0310  -6.0137  -5.7284  -5.6344
    -5.6344  -5.4576  -5.2485  -5.2484  -5.1314  -5.0007  -4.9573  -4.9573
    -4.8901  -4.8901  -4.8900  -4.8900  -4.8662  -4.7827  -4.7680  -4.7680
    -4.7318  -4.2509  -4.2509  -4.1981  -4.1503  -4.1503  -4.1502  -4.1441
    -4.1441  -3.9868  -3.9868  -3.9769  -3.9769  -3.9589  -3.8052  -3.6426
    -3.6426  -3.6107  -3.5193  -3.4019  -3.3714  -3.3714  -3.2986  -3.2417
    -3.2417  -3.2066  -3.1676  -3.1675  -3.0819  -3.0424  -3.0424  -2.9793
    -2.9793  -2.9226  -2.9226  -2.8179  -2.7473  -2.6840  -2.6839  -2.6834
    -2.6362  -2.6362  -2.5825  -2.5825  -2.5319  -2.5310  -2.5310  -2.4834
    -2.4262  -2.4262  -2.3925  -2.3789  -2.3783  -2.3724  -2.3724  -2.3448
    -2.3448  -2.2860  -2.2392  -2.2391  -2.1743  -2.1743  -2.1576  -1.6323
    -1.6323  -1.4967

     highest occupied level (ev):    -1.4967

!    total energy              =   -4009.17199595 Ry
     total all-electron energy =    -51389.589103 Ry
     estimated scf accuracy    <          4.5E-09 Ry

     The total energy is the sum of the following terms:
     one-electron contribution =   -6098.87818868 Ry
     hartree contribution      =    3180.92204024 Ry
     xc contribution           =    -570.38672633 Ry
     ewald contribution        =    1322.88837622 Ry
     one-center paw contrib.   =   -1843.71749740 Ry

     convergence has been achieved in  28 iterations

     negative rho (up, down):  5.013E-04 0.000E+00

     Forces acting on atoms (cartesian axes, Ry/au):

     atom    1 type  2   force =     0.00001852   -0.00002165    0.00001812
     atom    2 type  2   force =    -0.00001852    0.00002165   -0.00001812
     atom    3 type  2   force =     0.00002157    0.00000486   -0.00003081
     atom    4 type  2   force =    -0.00002157   -0.00000486    0.00003081
     atom    5 type  2   force =    -0.00000775    0.00003321    0.00002691
     atom    6 type  2   force =     0.00000775   -0.00003321   -0.00002691
     atom    7 type  4   force =     0.00001430   -0.00001333    0.00003938
     atom    8 type  4   force =    -0.00001430    0.00001333   -0.00003938
     atom    9 type  4   force =     0.00003723   -0.00000441   -0.00002290
     atom   10 type  4   force =    -0.00003723    0.00000441    0.00002290
     atom   11 type  4   force =     0.00001435    0.00002477    0.00003648
     atom   12 type  4   force =    -0.00001435   -0.00002477   -0.00003648
     atom   13 type  4   force =    -0.00001883   -0.00001369    0.00000563
     atom   14 type  4   force =     0.00001883    0.00001369   -0.00000563
     atom   15 type  4   force =    -0.00000220   -0.00002805   -0.00002720
     atom   16 type  4   force =     0.00000220    0.00002805    0.00002720
     atom   17 type  4   force =    -0.00002781    0.00001348   -0.00001648
     atom   18 type  4   force =     0.00002781   -0.00001348    0.00001648
     atom   19 type  4   force =    -0.00004430   -0.00000834    0.00002492
     atom   20 type  4   force =     0.00004430    0.00000834   -0.00002492
     atom   21 type  4   force =     0.00000001   -0.00002972    0.00000462
     atom   22 type  4   force =    -0.00000001    0.00002972   -0.00000462
     atom   23 type  4   force =    -0.00004646    0.00001743   -0.00004559
     atom   24 type  4   force =     0.00004646   -0.00001743    0.00004559
     atom   25 type  4   force =    -0.00001656    0.00001199    0.00002942
     atom   26 type  4   force =     0.00001656   -0.00001199   -0.00002942
     atom   27 type  4   force =     0.00002481   -0.00001120    0.00000541
     atom   28 type  4   force =    -0.00002481    0.00001120   -0.00000541
     atom   29 type  4   force =     0.00002935    0.00001573    0.00000730
     atom   30 type  4   force =    -0.00002935   -0.00001573   -0.00000730
     atom   31 type  4   force =     0.00000781   -0.00000964   -0.00003363
     atom   32 type  4   force =    -0.00000781    0.00000964    0.00003363
     atom   33 type  4   force =    -0.00002920    0.00002204    0.00000061
     atom   34 type  4   force =     0.00002920   -0.00002204   -0.00000061
     atom   35 type  4   force =    -0.00000738   -0.00003114    0.00002353
     atom   36 type  4   force =     0.00000738    0.00003114   -0.00002353
     atom   37 type  3   force =     0.00003382    0.00001083    0.00000523
     atom   38 type  3   force =    -0.00003382   -0.00001083   -0.00000523
     atom   39 type  3   force =     0.00003851    0.00003580    0.00003828
     atom   40 type  3   force =    -0.00003851   -0.00003580   -0.00003828
     atom   41 type  3   force =    -0.00002352    0.00001853    0.00002132
     atom   42 type  3   force =     0.00002352   -0.00001853   -0.00002132
     atom   43 type  3   force =    -0.00000562   -0.00001362    0.00000925
     atom   44 type  3   force =     0.00000562    0.00001362   -0.00000925
     atom   45 type  3   force =     0.00000127   -0.00001049   -0.00001367
     atom   46 type  3   force =    -0.00000127    0.00001049    0.00001367
     atom   47 type  3   force =     0.00000084   -0.00001665    0.00003606
     atom   48 type  3   force =    -0.00000084    0.00001665   -0.00003606
     atom   49 type  3   force =     0.00000873    0.00001767   -0.00000444
     atom   50 type  3   force =    -0.00000873   -0.00001767    0.00000444
     atom   51 type  3   force =     0.00001226   -0.00000376    0.00002342
     atom   52 type  3   force =    -0.00001226    0.00000376   -0.00002342
     atom   53 type  3   force =     0.00003702    0.00000175   -0.00001109
     atom   54 type  3   force =    -0.00003702   -0.00000175    0.00001109
     atom   55 type  3   force =    -0.00001288    0.00000603    0.00001312
     atom   56 type  3   force =     0.00001288   -0.00000603   -0.00001312
     atom   57 type  3   force =     0.00000125   -0.00001215   -0.00000315
     atom   58 type  3   force =    -0.00000125    0.00001215    0.00000315
     atom   59 type  3   force =     0.00003096    0.00000532   -0.00001733
     atom   60 type  3   force =    -0.00003096   -0.00000532    0.00001733
     atom   61 type  3   force =    -0.00000517    0.00001916    0.00002014
     atom   62 type  3   force =     0.00000517   -0.00001916   -0.00002014
     atom   63 type  3   force =     0.00001036   -0.00001432    0.00000018
     atom   64 type  3   force =    -0.00001036    0.00001432   -0.00000018
     atom   65 type  3   force =    -0.00001389    0.00001016   -0.00001021
     atom   66 type  3   force =     0.00001389   -0.00001016    0.00001021
     atom   67 type  3   force =     0.00002801    0.00001948   -0.00001718
     atom   68 type  3   force =    -0.00002801   -0.00001948    0.00001718
     atom   69 type  3   force =    -0.00000247    0.00000331    0.00001759
     atom   70 type  3   force =     0.00000247   -0.00000331   -0.00001759
     atom   71 type  3   force =     0.00002546   -0.00001374    0.00001084
     atom   72 type  3   force =    -0.00002546    0.00001374   -0.00001084
     atom   73 type  3   force =     0.00000323    0.00000173    0.00000370
     atom   74 type  3   force =    -0.00000323   -0.00000173   -0.00000370
     atom   75 type  3   force =     0.00001367   -0.00000974    0.00000409
     atom   76 type  3   force =    -0.00001367    0.00000974   -0.00000409
     atom   77 type  3   force =    -0.00002837    0.00000718    0.00000199
     atom   78 type  3   force =     0.00002837   -0.00000718   -0.00000199
     atom   79 type  3   force =    -0.00002393    0.00001037   -0.00001140
     atom   80 type  3   force =     0.00002393   -0.00001037    0.00001140
     atom   81 type  3   force =     0.00000089    0.00000163   -0.00000117
     atom   82 type  3   force =    -0.00000089   -0.00000163    0.00000117
     atom   83 type  3   force =     0.00000883   -0.00001236    0.00000322
     atom   84 type  3   force =    -0.00000883    0.00001236   -0.00000322
     atom   85 type  1   force =     0.00001569    0.00000077   -0.00000078
     atom   86 type  1   force =    -0.00001569   -0.00000077    0.00000078
     atom   87 type  1   force =     0.00001558    0.00001050    0.00000477
     atom   88 type  1   force =    -0.00001558   -0.00001050   -0.00000477
     atom   89 type  1   force =     0.00000701    0.00000162    0.00001418
     atom   90 type  1   force =    -0.00000701   -0.00000162   -0.00001418
     atom   91 type  1   force =    -0.00000670    0.00001679    0.00001466
     atom   92 type  1   force =     0.00000670   -0.00001679   -0.00001466
     atom   93 type  1   force =     0.00001910   -0.00001384    0.00000856
     atom   94 type  1   force =    -0.00001910    0.00001384   -0.00000856
     atom   95 type  1   force =     0.00001161    0.00001285   -0.00001532
     atom   96 type  1   force =    -0.00001161   -0.00001285    0.00001532
     atom   97 type  1   force =     0.00001786   -0.00002694    0.00000540
     atom   98 type  1   force =    -0.00001786    0.00002694   -0.00000540
     atom   99 type  1   force =     0.00000650    0.00001574   -0.00002631
     atom  100 type  1   force =    -0.00000650   -0.00001574    0.00002631
     atom  101 type  1   force =    -0.00001600    0.00001468    0.00002478
     atom  102 type  1   force =     0.00001600   -0.00001468   -0.00002478
     atom  103 type  1   force =     0.00002524   -0.00001211    0.00002043
     atom  104 type  1   force =    -0.00002524    0.00001211   -0.00002043
     atom  105 type  1   force =     0.00002494    0.00001445   -0.00001464
     atom  106 type  1   force =    -0.00002494   -0.00001445    0.00001464
     atom  107 type  1   force =     0.00000175    0.00003339    0.00002291
     atom  108 type  1   force =    -0.00000175   -0.00003339   -0.00002291

     Total force =     0.000343     Total SCF correction =     0.000194
     SCF correction compared to forces is large: reduce conv_thr to get better values


     Computing stress (Cartesian axis) and pressure


     negative rho (up, down):  5.013E-04 0.000E+00
          total   stress  (Ry/bohr**3)                   (kbar)     P=        0.01
   0.00000004  -0.00000003  -0.00000003            0.01       -0.00       -0.00
  -0.00000003   0.00000007  -0.00000001           -0.00        0.01       -0.00
  -0.00000003  -0.00000001   0.00000006           -0.00       -0.00        0.01


     BFGS Geometry Optimization
     Energy error            =      0.0E+00 Ry
     Gradient error          =      4.6E-05 Ry/Bohr
     Cell gradient error     =      9.6E-03 kbar

     number of scf cycles    =   1
     number of bfgs steps    =   0

     enthalpy           new  =   -4009.1719959465 Ry

     new trust radius        =       0.0000673871 bohr
     new conv_thr            =       0.0000000100 Ry

     new unit-cell volume =  15298.86749 a.u.^3 (  2267.05826 Ang^3 )
     density =      1.19245 g/cm^3

CELL_PARAMETERS (alat= 27.59009591)
   0.997657118   0.000094941   0.000067862
   0.473345082   0.878217118   0.000067977
   0.473344969   0.282626870   0.831498665

ATOMIC_POSITIONS (crystal)
Zr               0.8729966536        0.1189830026        0.1221788509
Zr               0.1270033464        0.8810159974        0.8778211491
Zr               0.1221798247        0.8729964526        0.1189826273
Zr               0.8778201753        0.1270035474        0.8810163727
Zr               0.1189826708        0.1221794345        0.8729960761
Zr               0.8810163292        0.8778205655        0.1270039239
O                0.9195848455        0.2615148531        0.0847044019
O                0.0804151545        0.7384851469        0.9152955981
O                0.0847047102        0.9195837904        0.2615156087
O                0.9152952898        0.0804162096        0.7384843913
O                0.2615173262        0.0847031629        0.9195827541
O                0.7384826738        0.9152968371        0.0804172459
O                0.7547417018        0.0540715268        0.9177390334
O                0.2452582982        0.9459284732        0.0822609666
O                0.9177390316        0.7547398859        0.0540740844
O                0.0822609684        0.2452601141        0.9459259156
O                0.0540730938        0.9177394939        0.7547401868
O                0.9459269062        0.0822605061        0.2452598132
O                0.2664002444        0.9222887991        0.7338170760
O                0.7335997556        0.0777112009        0.2661829240
O                0.7338164150        0.2663994496        0.9222906290
O                0.2661835850        0.7336005504        0.0777093710
O                0.9222903894        0.7338168566        0.2663995122
O                0.0777096106        0.2661831434        0.7336004878
O                0.0835551513        0.7269465717        0.2590450715
O                0.9164448487        0.2730534283        0.7409549285
O                0.2590437488        0.0835545535        0.7269461946
O                0.7409562512        0.9164454465        0.2730538054
O                0.7269473631        0.2590442735        0.0835547366
O                0.2730526369        0.7409557265        0.9164452634
O                0.8362027152        0.0446576372        0.0476585540
O                0.1637972848        0.9553423628        0.9523414460
O                0.0476587914        0.8362024401        0.0446579636
O                0.9523412086        0.1637975599        0.9553420364
O                0.0446578839        0.0476586328        0.8362024787
O                0.9553421161        0.9523413672        0.1637975213
C                0.6969810684        0.9971106713        0.3091882797
C                0.3030189316        0.0028893287        0.6908117203
C                0.3091878869        0.6969810504        0.9971110249
C                0.6908121131        0.3030189496        0.0028889751
C                0.9971082657        0.3091881572        0.6969807237
C                0.0028917343        0.6908118428        0.3030192763
C               -0.0000832496        0.7042727414        0.9882164537
C                1.0000832496        0.2957272586        0.0117835463
C                0.9882162903       -0.0000824622        0.7042722504
C                0.0117837097        1.0000824622        0.2957277496
C                0.7042726001        0.9882149971       -0.0000808532
C                0.2957273999        0.0117850029        1.0000808532
C                0.9998791139        0.4016116952        0.0049953412
C                0.0001208861        0.5983883048        0.9950046588
C                0.0049953806        0.9998781857        0.4016123440
C                0.9950046194        0.0001218143        0.5983876560
C                0.4016124324        0.0049954463        0.9998781068
C                0.5983875676        0.9950045537        0.0001218932
C                0.4044670620        0.0016295479        0.5919886847
C                0.5955329380        0.9983704521        0.4080113153
C                0.5919887296        0.4044672570        0.0016297426
C                0.4080112704        0.5955327430        0.9983702574
C                0.0016315029        0.5919886477        0.4044672127
C                0.9983684971        0.4080113523        0.5955327873
C                0.9098283776        0.4626155827        0.0721984807
C                0.0901716224        0.5373844173        0.9278015193
C                0.0721973942        0.9098275354        0.4626165144
C                0.9278026058        0.0901724646        0.5373834856
C                0.4626165092        0.0721968650        0.9098274681
C                0.5373834908        0.9278031350        0.0901725319
C                0.5603337545        0.0671914448        0.9098670476
C                0.4396662455        0.9328085552        0.0901329524
C                0.9098678110        0.5603318125        0.0671927863
C                0.0901321890        0.4396681875        0.9328072137
C                0.0671921383        0.9098673043        0.5603328792
C                0.9328078617        0.0901326957        0.4396671208
C                0.4577244695        0.9128619968        0.5510988249
C                0.5422755305        0.0871380032        0.4489011751
C                0.5510999267        0.4577242268        0.9128619590
C                0.4489000733        0.5422757732        0.0871380410
C                0.9128618689        0.5511000090        0.4577235116
C                0.0871381311        0.4488999910        0.5422764884
C                0.0887491116        0.5402494741        0.4474184026
C                0.9112508884        0.4597505259        0.5525815974
C                0.4474176633        0.0887487834        0.5402500957
C                0.5525823367        0.9112512166        0.4597499043
C                0.5402498702        0.4474172881        0.0887491870
C                0.4597501298        0.5525827119        0.9112508130
H                0.5920930624        0.4236070271        0.8456879345
H                0.4079069376        0.5763929729        0.1543120655
H                0.8456894594        0.5920938282        0.4236048398
H                0.1543105406        0.4079061718        0.5763951602
H                0.4236065627        0.8456883235        0.5920915423
H                0.5763934373        0.1543116765        0.4079084577
H                0.5728604753        0.4052909242        0.1571250881
H                0.4271395247        0.5947090758        0.8428749119
H                0.1571261784        0.5728595821        0.4052929852
H                0.8428738216        0.4271404179        0.5947070148
H                0.4052910332        0.1571247753        0.5728611061
H                0.5947089668        0.8428752247        0.4271388939
H                0.1279187619        0.8403243608        0.4320846135
H                0.8720812381        0.1596756392        0.5679153865
H                0.4320848858        0.1279183460        0.8403243789
H                0.5679151142        0.8720816540        0.1596756211
H                0.8403265097        0.4320818317        0.1279208080
H                0.1596734903        0.5679181683        0.8720791920
H                0.1184428694        0.8401775824        0.6087745945
H                0.8815571306        0.1598224176        0.3912254055
H                0.6087755066        0.1184414015        0.8401767040
H                0.3912244934        0.8815585985        0.1598232960
H                0.8401774981        0.6087732054        0.1184442384
H                0.1598225019        0.3912267946        0.8815557616



     Writing config-only to output data dir ./pwscf.save/ :
     XML data file
     NEW-OLD atomic charge density approx. for the potential

     Check: negative core charge=   -0.000001

     negative rho (up, down):  5.013E-04 0.000E+00

     total cpu time spent up to now is      150.6 secs

     Self-consistent Calculation

     iteration #  1     ecut=    80.00 Ry     beta= 0.70
     Davidson diagonalization with overlap
     ethr =  1.00E-06,  avg # of iterations =  2.0

     Threshold (ethr) on eigenvalues was too large:
     Diagonalizing with lowered threshold

     Davidson diagonalization with overlap
     ethr =  1.15E-11,  avg # of iterations =  9.0

     negative rho (up, down):  5.013E-04 0.000E+00

     total cpu time spent up to now is      164.2 secs

     total energy              =   -4009.17199600 Ry
     estimated scf accuracy    <       0.00000005 Ry

     iteration #  2     ecut=    80.00 Ry     beta= 0.70
     Davidson diagonalization with overlap
     ethr =  1.10E-11,  avg # of iterations =  9.0

     negative rho (up, down):  5.013E-04 0.000E+00

     total cpu time spent up to now is      170.9 secs

     total energy              =   -4009.17199601 Ry
     estimated scf accuracy    <       0.00000008 Ry

     iteration #  3     ecut=    80.00 Ry     beta= 0.70
     Davidson diagonalization with overlap
     ethr =  1.10E-11,  avg # of iterations =  7.0

     negative rho (up, down):  5.013E-04 0.000E+00

     total cpu time spent up to now is      175.5 secs

     End of self-consistent calculation

          k = 0.0000 0.0000 0.0000 ( 92363 PWs)   bands (ev):

   -49.6143 -49.5980 -49.5979 -49.5858 -49.5837 -49.5837 -28.1044 -28.0014
   -28.0014 -27.9079 -27.9079 -27.8998 -27.7725 -27.7276 -27.7276 -27.7210
   -27.7210 -27.6945 -27.6218 -27.6218 -27.5862 -27.5725 -27.5725 -27.5719
   -22.8390 -22.7920 -22.7919 -22.7862 -22.7862 -22.7607 -22.5839 -22.5772
   -22.5199 -22.5198 -22.5175 -22.5175 -20.5525 -20.5362 -20.5362 -20.5067
   -20.5066 -20.4710 -20.3469 -20.3468 -20.3235 -20.3235 -20.2401 -20.2360
   -17.9949 -17.7626 -17.7625 -17.5688 -17.5688 -17.5265 -17.3917 -17.3907
   -17.3907 -17.2136 -17.2136 -17.2114 -15.0497 -15.0497 -15.0402 -14.8616
   -14.8409 -14.8409 -14.4883 -14.4860 -14.4860 -14.3139 -14.3139 -14.3117
   -12.2911 -12.2548 -12.2548 -12.0948 -12.0362 -12.0362 -10.9632 -10.9631
   -10.9517 -10.7860 -10.7860 -10.7693 -10.2309 -10.2309 -10.1499 -10.0275
    -9.8543  -9.8542  -9.6149  -9.5557  -9.5557  -9.4464  -9.3768  -9.3768
    -8.7841  -8.6119  -8.5367  -8.5367  -8.3947  -8.3946  -8.3546  -8.1971
    -8.1971  -8.1493  -8.1493  -7.8692  -7.8668  -7.8667  -7.7622  -7.7622
    -7.6627  -7.6482  -7.6482  -7.6395  -7.5377  -7.3855  -7.3854  -7.2541
    -7.1553  -6.9174  -6.9173  -6.8586  -6.8321  -6.8320  -6.8320  -6.7359
    -6.7358  -6.6988  -6.6885  -6.6885  -6.6665  -6.6665  -6.6561  -6.5693
    -6.5340  -6.5340  -6.5118  -6.4524  -6.4248  -6.4248  -6.3474  -6.3473
    -6.2154  -6.1887  -6.1887  -6.0311  -6.0311  -6.0138  -5.7283  -5.6344
    -5.6344  -5.4576  -5.2484  -5.2484  -5.1313  -5.0007  -4.9573  -4.9573
    -4.8901  -4.8901  -4.8900  -4.8899  -4.8661  -4.7827  -4.7679  -4.7679
    -4.7317  -4.2509  -4.2509  -4.1980  -4.1504  -4.1504  -4.1503  -4.1441
    -4.1441  -3.9868  -3.9867  -3.9771  -3.9770  -3.9590  -3.8052  -3.6426
    -3.6426  -3.6108  -3.5192  -3.4019  -3.3714  -3.3714  -3.2986  -3.2417
    -3.2417  -3.2066  -3.1676  -3.1676  -3.0819  -3.0424  -3.0424  -2.9793
    -2.9793  -2.9226  -2.9226  -2.8179  -2.7473  -2.6840  -2.6840  -2.6834
    -2.6362  -2.6362  -2.5825  -2.5825  -2.5319  -2.5310  -2.5310  -2.4834
    -2.4262  -2.4262  -2.3925  -2.3790  -2.3783  -2.3724  -2.3724  -2.3448
    -2.3448  -2.2860  -2.2392  -2.2391  -2.1743  -2.1743  -2.1576  -1.6323
    -1.6322  -1.4966

     highest occupied level (ev):    -1.4966

!    total energy              =   -4009.17199602 Ry
     total all-electron energy =    -51389.589103 Ry
     estimated scf accuracy    <          1.7E-09 Ry

     The total energy is the sum of the following terms:
     one-electron contribution =   -6098.87141716 Ry
     hartree contribution      =    3180.91792666 Ry
     xc contribution           =    -570.38619874 Ry
     ewald contribution        =    1322.88517688 Ry
     one-center paw contrib.   =   -1843.71748366 Ry

     convergence has been achieved in   3 iterations

     negative rho (up, down):  5.013E-04 0.000E+00

     Forces acting on atoms (cartesian axes, Ry/au):

     atom    1 type  2   force =     0.00001008   -0.00001782    0.00000306
     atom    2 type  2   force =    -0.00001008    0.00001782   -0.00000306
     atom    3 type  2   force =     0.00000718    0.00001276   -0.00002743
     atom    4 type  2   force =    -0.00000718   -0.00001276    0.00002743
     atom    5 type  2   force =    -0.00001065    0.00002055    0.00002160
     atom    6 type  2   force =     0.00001065   -0.00002055   -0.00002160
     atom    7 type  4   force =     0.00003716   -0.00000649    0.00001318
     atom    8 type  4   force =    -0.00003716    0.00000649   -0.00001318
     atom    9 type  4   force =     0.00002615    0.00002686   -0.00001121
     atom   10 type  4   force =    -0.00002615   -0.00002686    0.00001121
     atom   11 type  4   force =    -0.00001095    0.00004647   -0.00000363
     atom   12 type  4   force =     0.00001095   -0.00004647    0.00000363
     atom   13 type  4   force =    -0.00001967   -0.00001575    0.00002021
     atom   14 type  4   force =     0.00001967    0.00001575   -0.00002021
     atom   15 type  4   force =    -0.00000437   -0.00001137   -0.00000996
     atom   16 type  4   force =     0.00000437    0.00001137    0.00000996
     atom   17 type  4   force =    -0.00001569   -0.00000129   -0.00001166
     atom   18 type  4   force =     0.00001569    0.00000129    0.00001166
     atom   19 type  4   force =    -0.00002447    0.00000908    0.00000453
     atom   20 type  4   force =     0.00002447   -0.00000908   -0.00000453
     atom   21 type  4   force =    -0.00000840   -0.00003971   -0.00001193
     atom   22 type  4   force =     0.00000840    0.00003971    0.00001193
     atom   23 type  4   force =     0.00002266   -0.00001245   -0.00001598
     atom   24 type  4   force =    -0.00002266    0.00001245    0.00001598
     atom   25 type  4   force =     0.00001142    0.00001885    0.00000614
     atom   26 type  4   force =    -0.00001142   -0.00001885   -0.00000614
     atom   27 type  4   force =     0.00001506   -0.00002569    0.00000574
     atom   28 type  4   force =    -0.00001506    0.00002569   -0.00000574
     atom   29 type  4   force =    -0.00001212    0.00001874   -0.00004526
     atom   30 type  4   force =     0.00001212   -0.00001874    0.00004526
     atom   31 type  4   force =     0.00000511   -0.00001403   -0.00002586
     atom   32 type  4   force =    -0.00000511    0.00001403    0.00002586
     atom   33 type  4   force =    -0.00002396    0.00002033   -0.00000293
     atom   34 type  4   force =     0.00002396   -0.00002033    0.00000293
     atom   35 type  4   force =    -0.00001240   -0.00001872    0.00002068
     atom   36 type  4   force =     0.00001240    0.00001872   -0.00002068
     atom   37 type  3   force =     0.00002882   -0.00000191   -0.00001432
     atom   38 type  3   force =    -0.00002882    0.00000191    0.00001432
     atom   39 type  3   force =    -0.00002029    0.00001674   -0.00004382
     atom   40 type  3   force =     0.00002029   -0.00001674    0.00004382
     atom   41 type  3   force =     0.00006599   -0.00000674    0.00003015
     atom   42 type  3   force =    -0.00006599    0.00000674   -0.00003015
     atom   43 type  3   force =     0.00001530   -0.00002330   -0.00002891
     atom   44 type  3   force =    -0.00001530    0.00002330    0.00002891
     atom   45 type  3   force =    -0.00002755    0.00003467   -0.00001174
     atom   46 type  3   force =     0.00002755   -0.00003467    0.00001174
     atom   47 type  3   force =    -0.00003008    0.00000751   -0.00001674
     atom   48 type  3   force =     0.00003008   -0.00000751    0.00001674
     atom   49 type  3   force =    -0.00000397    0.00002313    0.00000472
     atom   50 type  3   force =     0.00000397   -0.00002313   -0.00000472
     atom   51 type  3   force =     0.00000071    0.00000237    0.00001214
     atom   52 type  3   force =    -0.00000071   -0.00000237   -0.00001214
     atom   53 type  3   force =    -0.00000181   -0.00000412   -0.00000105
     atom   54 type  3   force =     0.00000181    0.00000412    0.00000105
     atom   55 type  3   force =    -0.00000825   -0.00000088   -0.00000024
     atom   56 type  3   force =     0.00000825    0.00000088    0.00000024
     atom   57 type  3   force =     0.00000141   -0.00001390    0.00000169
     atom   58 type  3   force =    -0.00000141    0.00001390   -0.00000169
     atom   59 type  3   force =    -0.00005258    0.00000237   -0.00000501
     atom   60 type  3   force =     0.00005258   -0.00000237    0.00000501
     atom   61 type  3   force =    -0.00000577   -0.00000117    0.00001111
     atom   62 type  3   force =     0.00000577    0.00000117   -0.00001111
     atom   63 type  3   force =     0.00001964   -0.00001476    0.00001490
     atom   64 type  3   force =    -0.00001964    0.00001476   -0.00001490
     atom   65 type  3   force =     0.00003841    0.00001294   -0.00002091
     atom   66 type  3   force =    -0.00003841   -0.00001294    0.00002091
     atom   67 type  3   force =    -0.00001769    0.00001376   -0.00000356
     atom   68 type  3   force =     0.00001769   -0.00001376    0.00000356
     atom   69 type  3   force =     0.00000044    0.00001983    0.00002115
     atom   70 type  3   force =    -0.00000044   -0.00001983   -0.00002115
     atom   71 type  3   force =     0.00001052   -0.00000410   -0.00000515
     atom   72 type  3   force =    -0.00001052    0.00000410    0.00000515
     atom   73 type  3   force =     0.00000379    0.00000597    0.00000358
     atom   74 type  3   force =    -0.00000379   -0.00000597   -0.00000358
     atom   75 type  3   force =    -0.00000696    0.00002106    0.00000072
     atom   76 type  3   force =     0.00000696   -0.00002106   -0.00000072
     atom   77 type  3   force =     0.00004546   -0.00000287    0.00000263
     atom   78 type  3   force =    -0.00004546    0.00000287   -0.00000263
     atom   79 type  3   force =     0.00003038   -0.00001190    0.00000941
     atom   80 type  3   force =    -0.00003038    0.00001190   -0.00000941
     atom   81 type  3   force =    -0.00000439    0.00000153    0.00000276
     atom   82 type  3   force =     0.00000439   -0.00000153   -0.00000276
     atom   83 type  3   force =    -0.00001067    0.00001094   -0.00000346
     atom   84 type  3   force =     0.00001067   -0.00001094    0.00000346
     atom   85 type  1   force =     0.00001465    0.00000062   -0.00000134
     atom   86 type  1   force =    -0.00001465   -0.00000062    0.00000134
     atom   87 type  1   force =    -0.00000366    0.00001603   -0.00000110
     atom   88 type  1   force =     0.00000366   -0.00001603    0.00000110
     atom   89 type  1   force =     0.00000905    0.00000282    0.00001134
     atom   90 type  1   force =    -0.00000905   -0.00000282   -0.00001134
     atom   91 type  1   force =    -0.00000512    0.00001400    0.00001494
     atom   92 type  1   force =     0.00000512   -0.00001400   -0.00001494
     atom   93 type  1   force =     0.00000418   -0.00001515    0.00001284
     atom   94 type  1   force =    -0.00000418    0.00001515   -0.00001284
     atom   95 type  1   force =     0.00001024    0.00000695   -0.00001682
     atom   96 type  1   force =    -0.00001024   -0.00000695    0.00001682
     atom   97 type  1   force =     0.00001470   -0.00001605    0.00000608
     atom   98 type  1   force =    -0.00001470    0.00001605   -0.00000608
     atom   99 type  1   force =     0.00000532    0.00001257   -0.00001916
     atom  100 type  1   force =    -0.00000532   -0.00001257    0.00001916
     atom  101 type  1   force =    -0.00000710    0.00001440    0.00001691
     atom  102 type  1   force =     0.00000710   -0.00001440   -0.00001691
     atom  103 type  1   force =     0.00002185   -0.00000577    0.00001735
     atom  104 type  1   force =    -0.00002185    0.00000577   -0.00001735
     atom  105 type  1   force =     0.00002656    0.00001344   -0.00001157
     atom  106 type  1   force =    -0.00002656   -0.00001344    0.00001157
     atom  107 type  1   force =     0.00000873    0.00001855    0.00001156
     atom  108 type  1   force =    -0.00000873   -0.00001855   -0.00001156

     Total force =     0.000323     Total SCF correction =     0.000089
     SCF correction compared to forces is large: reduce conv_thr to get better values


     Computing stress (Cartesian axis) and pressure


     negative rho (up, down):  5.013E-04 0.000E+00
          total   stress  (Ry/bohr**3)                   (kbar)     P=       -0.00
  -0.00000006  -0.00000003  -0.00000002           -0.01       -0.00       -0.00
  -0.00000003  -0.00000002  -0.00000001           -0.00       -0.00       -0.00
  -0.00000002  -0.00000001  -0.00000001           -0.00       -0.00       -0.00

     Energy error            =      7.3E-08 Ry
     Gradient error          =      6.6E-05 Ry/Bohr
     Cell gradient error     =      8.4E-03 kbar

     number of scf cycles    =   2
     number of bfgs steps    =   1

     enthalpy           old  =   -4009.1719959465 Ry
     enthalpy           new  =   -4009.1719960199 Ry

     CASE: enthalpy          _new < enthalpy          _old

     new trust radius        =       0.0001071216 bohr
     new conv_thr            =            1.0E-10 Ry

     new unit-cell volume =  15298.91525 a.u.^3 (  2267.06534 Ang^3 )
     density =      1.19245 g/cm^3

CELL_PARAMETERS (alat= 27.59009591)
   0.997656585   0.000093015   0.000066382
   0.473343133   0.878217688   0.000066525
   0.473342937   0.282625723   0.831499357

ATOMIC_POSITIONS (crystal)
Zr               0.8729987286        0.1189803575        0.1221801399
Zr               0.1270012714        0.8810186425        0.8778198601
Zr               0.1221819254        0.8729985482        0.1189791560
Zr               0.8778180746        0.1270014518        0.8810198440
Zr               0.1189793834        0.1221815536        0.8729989725
Zr               0.8810196166        0.8778184464        0.1270010275
O                0.9195868746        0.2615127018        0.0847075787
O                0.0804131254        0.7384872982        0.9152924213
O                0.0847079572        0.9195856591        0.2615135570
O                0.9152920428        0.0804143409        0.7384864430
O                0.2615149951        0.0847064839        0.9195847844
O                0.7384850049        0.9152935161        0.0804152156
O                0.7547400935        0.0540693860        0.9177405432
O                0.2452599065        0.9459306140        0.0822594568
O                0.9177404991        0.7547383571        0.0540718413
O                0.0822595009        0.2452616429        0.9459281587
O                0.0540711211        0.9177407495        0.7547385031
O                0.9459288789        0.0822592505        0.2452614969
O                0.2663962219        0.9222882334        0.7338188666
O                0.7336037781        0.0777117666        0.2661811334
O                0.7338179895        0.2663956863        0.9222902251
O                0.2661820105        0.7336043137        0.0777097749
O                0.9222901389        0.7338183873        0.2663957930
O                0.0777098611        0.2661816127        0.7336042070
O                0.0835533392        0.7269476021        0.2590472311
O                0.9164466608        0.2730523979        0.7409527689
O                0.2590465020        0.0835522879        0.7269468575
O                0.7409534980        0.9164477121        0.2730531425
O                0.7269480588        0.2590469051        0.0835525770
O                0.2730519412        0.7409530949        0.9164474230
O                0.8362051331        0.0446574554        0.0476549992
O                0.1637948669        0.9553425446        0.9523450008
O                0.0476550554        0.8362048723        0.0446578323
O                0.9523449446        0.1637951277        0.9553421677
O                0.0446574058        0.0476549535        0.8362051152
O                0.9553425942        0.9523450465        0.1637948848
C                0.6969840956        0.9971113584        0.3091877751
C                0.3030159044        0.0028886416        0.6908122249
C                0.3091875190        0.6969841002        0.9971108499
C                0.6908124810        0.3030158998        0.0028891501
C                0.9971089147        0.3091878860        0.6969837697
C                0.0028910853        0.6908121140        0.3030162303
C               -0.0000814707        0.7042710320        0.9882153560
C                1.0000814707        0.2957289680        0.0117846440
C                0.9882149118       -0.0000806931        0.7042707352
C                0.0117850882        1.0000806931        0.2957292648
C                0.7042710612        0.9882140373       -0.0000796038
C                0.2957289388        0.0117859627        1.0000796038
C                0.9998782843        0.4016139839        0.0049953406
C                0.0001217157        0.5983860161        0.9950046594
C                0.0049953964        0.9998774088        0.4016144810
C                0.9950046036        0.0001225912        0.5983855190
C                0.4016145362        0.0049955617        0.9998773652
C                0.5983854638        0.9950044383        0.0001226348
C                0.4044656086        0.0016295958        0.5919894761
C                0.5955343914        0.9983704042        0.4080105239
C                0.5919895867        0.4044658236        0.0016296466
C                0.4080104133        0.5955341764        0.9983703534
C                0.0016307891        0.5919895215        0.4044658604
C                0.9983692109        0.4080104785        0.5955341396
C                0.9098267341        0.4626160287        0.0722003569
C                0.0901732659        0.5373839713        0.9277996431
C                0.0721993643        0.9098256184        0.4626173838
C                0.9278006357        0.0901743816        0.5373826162
C                0.4626176172        0.0721987507        0.9098256360
C                0.5373823828        0.9278012493        0.0901743640
C                0.5603338506        0.0671937328        0.9098657873
C                0.4396661494        0.9328062672        0.0901342127
C                0.9098663620        0.5603323469        0.0671950850
C                0.0901336380        0.4396676531        0.9328049150
C                0.0671943122        0.9098661635        0.5603332483
C                0.9328056878        0.0901338365        0.4396667517
C                0.4577244751        0.9128622835        0.5510992579
C                0.5422755249        0.0871377165        0.4489007421
C                0.5510999211        0.4577247155        0.9128622515
C                0.4489000789        0.5422752845        0.0871377485
C                0.9128623891        0.5511001815        0.4577237852
C                0.0871376109        0.4488998185        0.5422762148
C                0.0887494192        0.5402494784        0.4474182446
C                0.9112505808        0.4597505216        0.5525817554
C                0.4474173856        0.0887489335        0.5402501827
C                0.5525826144        0.9112510665        0.4597498173
C                0.5402498680        0.4474171669        0.0887491858
C                0.4597501320        0.5525828331        0.9112508142
H                0.5920945714        0.4236071456        0.8456878092
H                0.4079054286        0.5763928544        0.1543121908
H                0.8456893024        0.5920952388        0.4236050694
H                0.1543106976        0.4079047612        0.5763949306
H                0.4236067484        0.8456880814        0.5920930656
H                0.5763932516        0.1543119186        0.4079069344
H                0.5728584947        0.4052920974        0.1571268484
H                0.4271415053        0.5947079026        0.8428731516
H                0.1571277234        0.5728575438        0.4052942501
H                0.8428722766        0.4271424562        0.5947057499
H                0.4052921989        0.1571265160        0.5728591964
H                0.5947078011        0.8428734840        0.4271408036
H                0.1279213208        0.8403217000        0.4320852954
H                0.8720786792        0.1596783000        0.5679147046
H                0.4320855895        0.1279208211        0.8403216602
H                0.5679144105        0.8720791789        0.1596783398
H                0.8403237694        0.4320826674        0.1279233038
H                0.1596762306        0.5679173326        0.8720766962
H                0.1184449685        0.8401758382        0.6087768478
H                0.8815550315        0.1598241618        0.3912231522
H                0.6087778151        0.1184434779        0.8401751390
H                0.3912221849        0.8815565221        0.1598248610
H                0.8401759395        0.6087754911        0.1184463105
H                0.1598240605        0.3912245089        0.8815536895



     Writing config-only to output data dir ./pwscf.save/ :
     XML data file
     NEW-OLD atomic charge density approx. for the potential

     Check: negative core charge=   -0.000001

     negative rho (up, down):  5.012E-04 0.000E+00

     total cpu time spent up to now is      180.0 secs

     Self-consistent Calculation

     iteration #  1     ecut=    80.00 Ry     beta= 0.70
     Davidson diagonalization with overlap
     ethr =  1.00E-06,  avg # of iterations =  2.0

     Threshold (ethr) on eigenvalues was too large:
     Diagonalizing with lowered threshold

     Davidson diagonalization with overlap
     ethr =  2.40E-11,  avg # of iterations =  9.0

     negative rho (up, down):  5.013E-04 0.000E+00

     total cpu time spent up to now is      193.6 secs

     total energy              =   -4009.17199613 Ry
     estimated scf accuracy    <       0.00000006 Ry

     iteration #  2     ecut=    80.00 Ry     beta= 0.70
     Davidson diagonalization with overlap
     ethr =  1.38E-11,  avg # of iterations =  4.0

     negative rho (up, down):  5.013E-04 0.000E+00

     total cpu time spent up to now is      198.3 secs

     total energy              =   -4009.17199614 Ry
     estimated scf accuracy    <       0.00000001 Ry

     iteration #  3     ecut=    80.00 Ry     beta= 0.70
     Davidson diagonalization with overlap
     ethr =  2.85E-12,  avg # of iterations =  6.0

     negative rho (up, down):  5.013E-04 0.000E+00

     total cpu time spent up to now is      203.1 secs

     total energy              =   -4009.17199615 Ry
     estimated scf accuracy    <          8.7E-10 Ry

     iteration #  4     ecut=    80.00 Ry     beta= 0.70
     Davidson diagonalization with overlap
     ethr =  1.87E-13,  avg # of iterations = 14.0

     negative rho (up, down):  5.013E-04 0.000E+00

     total cpu time spent up to now is      213.2 secs

     total energy              =   -4009.17199615 Ry
     estimated scf accuracy    <          9.3E-10 Ry

     iteration #  5     ecut=    80.00 Ry     beta= 0.70
     Davidson diagonalization with overlap
     ethr =  1.87E-13,  avg # of iterations =  7.0

     negative rho (up, down):  5.013E-04 0.000E+00

     total cpu time spent up to now is      218.0 secs

     End of self-consistent calculation

          k = 0.0000 0.0000 0.0000 ( 92363 PWs)   bands (ev):

   -49.6144 -49.5980 -49.5980 -49.5859 -49.5838 -49.5838 -28.1045 -28.0015
   -28.0015 -27.9080 -27.9080 -27.8999 -27.7725 -27.7277 -27.7277 -27.7211
   -27.7210 -27.6945 -27.6219 -27.6219 -27.5862 -27.5726 -27.5726 -27.5720
   -22.8390 -22.7920 -22.7919 -22.7863 -22.7862 -22.7607 -22.5839 -22.5773
   -22.5200 -22.5198 -22.5176 -22.5175 -20.5526 -20.5363 -20.5363 -20.5068
   -20.5067 -20.4711 -20.3469 -20.3468 -20.3235 -20.3234 -20.2401 -20.2360
   -17.9951 -17.7627 -17.7627 -17.5690 -17.5689 -17.5267 -17.3916 -17.3906
   -17.3905 -17.2135 -17.2135 -17.2113 -15.0496 -15.0496 -15.0401 -14.8615
   -14.8408 -14.8407 -14.4882 -14.4859 -14.4859 -14.3140 -14.3139 -14.3118
   -12.2911 -12.2548 -12.2547 -12.0948 -12.0362 -12.0361 -10.9631 -10.9630
   -10.9516 -10.7859 -10.7859 -10.7692 -10.2310 -10.2309 -10.1498 -10.0275
    -9.8541  -9.8541  -9.6148  -9.5557  -9.5557  -9.4463  -9.3768  -9.3767
    -8.7841  -8.6119  -8.5367  -8.5367  -8.3946  -8.3946  -8.3546  -8.1971
    -8.1970  -8.1493  -8.1493  -7.8692  -7.8668  -7.8668  -7.7623  -7.7622
    -7.6627  -7.6482  -7.6481  -7.6394  -7.5377  -7.3854  -7.3853  -7.2540
    -7.1553  -6.9174  -6.9173  -6.8586  -6.8321  -6.8320  -6.8320  -6.7358
    -6.7358  -6.6987  -6.6885  -6.6885  -6.6665  -6.6665  -6.6560  -6.5693
    -6.5340  -6.5339  -6.5118  -6.4524  -6.4248  -6.4248  -6.3474  -6.3473
    -6.2153  -6.1886  -6.1885  -6.0313  -6.0312  -6.0139  -5.7284  -5.6344
    -5.6344  -5.4576  -5.2484  -5.2483  -5.1315  -5.0007  -4.9573  -4.9573
    -4.8902  -4.8901  -4.8900  -4.8900  -4.8662  -4.7827  -4.7680  -4.7679
    -4.7319  -4.2510  -4.2509  -4.1981  -4.1503  -4.1503  -4.1502  -4.1442
    -4.1441  -3.9868  -3.9868  -3.9772  -3.9771  -3.9591  -3.8053  -3.6427
    -3.6426  -3.6108  -3.5194  -3.4021  -3.3715  -3.3715  -3.2986  -3.2417
    -3.2417  -3.2066  -3.1676  -3.1676  -3.0820  -3.0424  -3.0424  -2.9793
    -2.9793  -2.9226  -2.9225  -2.8179  -2.7473  -2.6841  -2.6840  -2.6835
    -2.6363  -2.6363  -2.5825  -2.5825  -2.5319  -2.5309  -2.5309  -2.4834
    -2.4263  -2.4262  -2.3924  -2.3789  -2.3782  -2.3725  -2.3724  -2.3448
    -2.3447  -2.2859  -2.2391  -2.2391  -2.1743  -2.1743  -2.1576  -1.6324
    -1.6323  -1.4967

     highest occupied level (ev):    -1.4967

!    total energy              =   -4009.17199615 Ry
     total all-electron energy =    -51389.589103 Ry
     estimated scf accuracy    <          9.7E-11 Ry

     The total energy is the sum of the following terms:
     one-electron contribution =   -6098.87374624 Ry
     hartree contribution      =    3180.91856454 Ry
     xc contribution           =    -570.38574534 Ry
     ewald contribution        =    1322.88640155 Ry
     one-center paw contrib.   =   -1843.71747066 Ry

     convergence has been achieved in   5 iterations

     negative rho (up, down):  5.013E-04 0.000E+00

     Forces acting on atoms (cartesian axes, Ry/au):

     atom    1 type  2   force =     0.00003107    0.00001073    0.00001484
     atom    2 type  2   force =    -0.00003107   -0.00001073   -0.00001484
     atom    3 type  2   force =     0.00002082    0.00003110    0.00002078
     atom    4 type  2   force =    -0.00002082   -0.00003110   -0.00002078
     atom    5 type  2   force =     0.00002262    0.00000447    0.00000315
     atom    6 type  2   force =    -0.00002262   -0.00000447   -0.00000315
     atom    7 type  4   force =     0.00001963   -0.00000121    0.00001781
     atom    8 type  4   force =    -0.00001963    0.00000121   -0.00001781
     atom    9 type  4   force =     0.00002310    0.00000711   -0.00000968
     atom   10 type  4   force =    -0.00002310   -0.00000711    0.00000968
     atom   11 type  4   force =    -0.00001032    0.00004206   -0.00001497
     atom   12 type  4   force =     0.00001032   -0.00004206    0.00001497
     atom   13 type  4   force =    -0.00001064   -0.00000101    0.00000643
     atom   14 type  4   force =     0.00001064    0.00000101   -0.00000643
     atom   15 type  4   force =    -0.00000782   -0.00000120    0.00000590
     atom   16 type  4   force =     0.00000782    0.00000120   -0.00000590
     atom   17 type  4   force =    -0.00000109   -0.00000448   -0.00000483
     atom   18 type  4   force =     0.00000109    0.00000448    0.00000483
     atom   19 type  4   force =    -0.00001678    0.00001442   -0.00000883
     atom   20 type  4   force =     0.00001678   -0.00001442    0.00000883
     atom   21 type  4   force =    -0.00001374   -0.00002446    0.00000196
     atom   22 type  4   force =     0.00001374    0.00002446   -0.00000196
     atom   23 type  4   force =     0.00002316   -0.00002147   -0.00001275
     atom   24 type  4   force =    -0.00002316    0.00002147    0.00001275
     atom   25 type  4   force =    -0.00000436    0.00001910   -0.00000872
     atom   26 type  4   force =     0.00000436   -0.00001910    0.00000872
     atom   27 type  4   force =    -0.00000575   -0.00001538    0.00002223
     atom   28 type  4   force =     0.00000575    0.00001538   -0.00002223
     atom   29 type  4   force =    -0.00000024   -0.00000736   -0.00003125
     atom   30 type  4   force =     0.00000024    0.00000736    0.00003125
     atom   31 type  4   force =     0.00000254   -0.00001653   -0.00000519
     atom   32 type  4   force =    -0.00000254    0.00001653    0.00000519
     atom   33 type  4   force =    -0.00000636    0.00000518   -0.00001341
     atom   34 type  4   force =     0.00000636   -0.00000518    0.00001341
     atom   35 type  4   force =    -0.00001513    0.00000050    0.00001573
     atom   36 type  4   force =     0.00001513   -0.00000050   -0.00001573
     atom   37 type  3   force =    -0.00000784   -0.00000694   -0.00000725
     atom   38 type  3   force =     0.00000784    0.00000694    0.00000725
     atom   39 type  3   force =    -0.00001726   -0.00001488   -0.00002141
     atom   40 type  3   force =     0.00001726    0.00001488    0.00002141
     atom   41 type  3   force =     0.00002800   -0.00001428    0.00000058
     atom   42 type  3   force =    -0.00002800    0.00001428   -0.00000058
     atom   43 type  3   force =    -0.00000401   -0.00002423   -0.00003803
     atom   44 type  3   force =     0.00000401    0.00002423    0.00003803
     atom   45 type  3   force =    -0.00003581    0.00001640   -0.00000820
     atom   46 type  3   force =     0.00003581   -0.00001640    0.00000820
     atom   47 type  3   force =    -0.00003813   -0.00000959   -0.00001808
     atom   48 type  3   force =     0.00003813    0.00000959    0.00001808
     atom   49 type  3   force =    -0.00001698    0.00000412    0.00000582
     atom   50 type  3   force =     0.00001698   -0.00000412   -0.00000582
     atom   51 type  3   force =    -0.00000441   -0.00001465   -0.00000034
     atom   52 type  3   force =     0.00000441    0.00001465    0.00000034
     atom   53 type  3   force =    -0.00001564   -0.00000324   -0.00000933
     atom   54 type  3   force =     0.00001564    0.00000324    0.00000933
     atom   55 type  3   force =    -0.00000625   -0.00000019   -0.00000941
     atom   56 type  3   force =     0.00000625    0.00000019    0.00000941
     atom   57 type  3   force =    -0.00000523   -0.00000385    0.00000913
     atom   58 type  3   force =     0.00000523    0.00000385   -0.00000913
     atom   59 type  3   force =    -0.00001464   -0.00000984   -0.00000127
     atom   60 type  3   force =     0.00001464    0.00000984    0.00000127
     atom   61 type  3   force =    -0.00000123    0.00000471    0.00000782
     atom   62 type  3   force =     0.00000123   -0.00000471   -0.00000782
     atom   63 type  3   force =     0.00001010   -0.00000489    0.00000543
     atom   64 type  3   force =    -0.00001010    0.00000489   -0.00000543
     atom   65 type  3   force =     0.00001251    0.00001010   -0.00001210
     atom   66 type  3   force =    -0.00001251   -0.00001010    0.00001210
     atom   67 type  3   force =     0.00000657    0.00000443    0.00000568
     atom   68 type  3   force =    -0.00000657   -0.00000443   -0.00000568
     atom   69 type  3   force =     0.00000839    0.00001241    0.00000842
     atom   70 type  3   force =    -0.00000839   -0.00001241   -0.00000842
     atom   71 type  3   force =     0.00001026    0.00000324    0.00000445
     atom   72 type  3   force =    -0.00001026   -0.00000324   -0.00000445
     atom   73 type  3   force =     0.00000461    0.00000091   -0.00000417
     atom   74 type  3   force =    -0.00000461   -0.00000091    0.00000417
     atom   75 type  3   force =    -0.00000439    0.00000575   -0.00000345
     atom   76 type  3   force =     0.00000439   -0.00000575    0.00000345
     atom   77 type  3   force =     0.00002197   -0.00000366    0.00000325
     atom   78 type  3   force =    -0.00002197    0.00000366   -0.00000325
     atom   79 type  3   force =     0.00000410   -0.00000563   -0.00000268
     atom   80 type  3   force =    -0.00000410    0.00000563    0.00000268
     atom   81 type  3   force =    -0.00000937   -0.00000189    0.00000073
     atom   82 type  3   force =     0.00000937    0.00000189   -0.00000073
     atom   83 type  3   force =    -0.00000739   -0.00000429   -0.00000340
     atom   84 type  3   force =     0.00000739    0.00000429    0.00000340
     atom   85 type  1   force =     0.00001102    0.00000806    0.00000243
     atom   86 type  1   force =    -0.00001102   -0.00000806   -0.00000243
     atom   87 type  1   force =    -0.00000015    0.00001055    0.00000396
     atom   88 type  1   force =     0.00000015   -0.00001055   -0.00000396
     atom   89 type  1   force =     0.00001154    0.00000348    0.00000599
[...]
     atom    2 type  2   force =     0.00001060    0.00001116   -0.00000926
     atom    3 type  2   force =     0.00000069   -0.00001208   -0.00001204
     atom    4 type  2   force =    -0.00000069    0.00001208    0.00001204
     atom    5 type  2   force =    -0.00001126    0.00000722   -0.00000413
     atom    6 type  2   force =     0.00001126   -0.00000722    0.00000413
     atom    7 type  4   force =    -0.00001844   -0.00000743    0.00002386
     atom    8 type  4   force =     0.00001844    0.00000743   -0.00002386
     atom    9 type  4   force =     0.00000529   -0.00001032   -0.00000984
     atom   10 type  4   force =    -0.00000529    0.00001032    0.00000984
     atom   11 type  4   force =    -0.00000581    0.00000489   -0.00000053
     atom   12 type  4   force =     0.00000581   -0.00000489    0.00000053
     atom   13 type  4   force =     0.00002389    0.00000481   -0.00001038
     atom   14 type  4   force =    -0.00002389   -0.00000481    0.00001038
     atom   15 type  4   force =     0.00001294    0.00001020   -0.00000689
     atom   16 type  4   force =    -0.00001294   -0.00001020    0.00000689
     atom   17 type  4   force =     0.00000884    0.00000389    0.00001598
     atom   18 type  4   force =    -0.00000884   -0.00000389   -0.00001598
     atom   19 type  4   force =    -0.00000460   -0.00000324    0.00000006
     atom   20 type  4   force =     0.00000460    0.00000324   -0.00000006
     atom   21 type  4   force =    -0.00000206    0.00000352    0.00000553
     atom   22 type  4   force =     0.00000206   -0.00000352   -0.00000553
     atom   23 type  4   force =    -0.00000951   -0.00000212    0.00000141
     atom   24 type  4   force =     0.00000951    0.00000212   -0.00000141
     atom   25 type  4   force =    -0.00002315   -0.00000870    0.00001270
     atom   26 type  4   force =     0.00002315    0.00000870   -0.00001270
     atom   27 type  4   force =     0.00000089   -0.00000449   -0.00000768
     atom   28 type  4   force =    -0.00000089    0.00000449    0.00000768
     atom   29 type  4   force =     0.00000847   -0.00000231    0.00001308
     atom   30 type  4   force =    -0.00000847    0.00000231   -0.00001308
     atom   31 type  4   force =     0.00000020    0.00000934    0.00001036
     atom   32 type  4   force =    -0.00000020   -0.00000934   -0.00001036
     atom   33 type  4   force =     0.00001006   -0.00000592    0.00000095
     atom   34 type  4   force =    -0.00001006    0.00000592   -0.00000095
     atom   35 type  4   force =     0.00000775    0.00000425   -0.00000742
     atom   36 type  4   force =    -0.00000775   -0.00000425    0.00000742
     atom   37 type  3   force =    -0.00000869   -0.00001554    0.00000885
     atom   38 type  3   force =     0.00000869    0.00001554   -0.00000885
     atom   39 type  3   force =     0.00001402   -0.00000998    0.00000414
     atom   40 type  3   force =    -0.00001402    0.00000998   -0.00000414
     atom   41 type  3   force =    -0.00004961    0.00000306    0.00000755
     atom   42 type  3   force =     0.00004961   -0.00000306   -0.00000755
     atom   43 type  3   force =    -0.00001815   -0.00000749    0.00001207
     atom   44 type  3   force =     0.00001815    0.00000749   -0.00001207
     atom   45 type  3   force =    -0.00001144    0.00000510   -0.00000907
     atom   46 type  3   force =     0.00001144   -0.00000510    0.00000907
     atom   47 type  3   force =    -0.00001583   -0.00001671    0.00002707
     atom   48 type  3   force =     0.00001583    0.00001671   -0.00002707
     atom   49 type  3   force =    -0.00001611   -0.00000230    0.00002493
     atom   50 type  3   force =     0.00001611    0.00000230   -0.00002493
     atom   51 type  3   force =    -0.00000341    0.00000855   -0.00001683
     atom   52 type  3   force =     0.00000341   -0.00000855    0.00001683
     atom   53 type  3   force =    -0.00001807    0.00000263    0.00001449
     atom   54 type  3   force =     0.00001807   -0.00000263   -0.00001449
     atom   55 type  3   force =     0.00000835    0.00000716    0.00000126
     atom   56 type  3   force =    -0.00000835   -0.00000716   -0.00000126
     atom   57 type  3   force =     0.00000297   -0.00001013   -0.00001382
     atom   58 type  3   force =    -0.00000297    0.00001013    0.00001382
     atom   59 type  3   force =    -0.00003225    0.00000508    0.00000543
     atom   60 type  3   force =     0.00003225   -0.00000508   -0.00000543
     atom   61 type  3   force =     0.00001701    0.00000055   -0.00000475
     atom   62 type  3   force =    -0.00001701   -0.00000055    0.00000475
     atom   63 type  3   force =     0.00002053   -0.00000508    0.00001649
     atom   64 type  3   force =    -0.00002053    0.00000508   -0.00001649
     atom   65 type  3   force =     0.00003138    0.00001085   -0.00001023
     atom   66 type  3   force =    -0.00003138   -0.00001085    0.00001023
     atom   67 type  3   force =    -0.00002698   -0.00000607    0.00001270
     atom   68 type  3   force =     0.00002698    0.00000607   -0.00001270
     atom   69 type  3   force =    -0.00001510   -0.00000256    0.00001010
     atom   70 type  3   force =     0.00001510    0.00000256   -0.00001010
     atom   71 type  3   force =    -0.00001351    0.00000844   -0.00001446
     atom   72 type  3   force =     0.00001351   -0.00000844    0.00001446
     atom   73 type  3   force =     0.00000624   -0.00000868    0.00000153
     atom   74 type  3   force =    -0.00000624    0.00000868   -0.00000153
     atom   75 type  3   force =    -0.00000019    0.00002690    0.00000727
     atom   76 type  3   force =     0.00000019   -0.00002690   -0.00000727
     atom   77 type  3   force =     0.00002776   -0.00000185    0.00001230
     atom   78 type  3   force =    -0.00002776    0.00000185   -0.00001230
     atom   79 type  3   force =     0.00002593   -0.00001411    0.00001353
     atom   80 type  3   force =    -0.00002593    0.00001411   -0.00001353
     atom   81 type  3   force =     0.00000129   -0.00000563   -0.00000680
     atom   82 type  3   force =    -0.00000129    0.00000563    0.00000680
     atom   83 type  3   force =    -0.00001121    0.00003015    0.00001245
     atom   84 type  3   force =     0.00001121   -0.00003015   -0.00001245
     atom   85 type  1   force =     0.00000311   -0.00000617   -0.00000736
     atom   86 type  1   force =    -0.00000311    0.00000617    0.00000736
     atom   87 type  1   force =    -0.00000850    0.00000701   -0.00000334
     atom   88 type  1   force =     0.00000850   -0.00000701    0.00000334
     atom   89 type  1   force =     0.00000154    0.00000020    0.00000341
     atom   90 type  1   force =    -0.00000154   -0.00000020   -0.00000341
     atom   91 type  1   force =    -0.00000549   -0.00000884    0.00000368
     atom   92 type  1   force =     0.00000549    0.00000884   -0.00000368
     atom   93 type  1   force =    -0.00000661   -0.00000586   -0.00000780
     atom   94 type  1   force =     0.00000661    0.00000586    0.00000780
     atom   95 type  1   force =    -0.00000963    0.00000485   -0.00000209
     atom   96 type  1   force =     0.00000963   -0.00000485    0.00000209
     atom   97 type  1   force =     0.00001205    0.00000013    0.00000188
     atom   98 type  1   force =    -0.00001205   -0.00000013   -0.00000188
     atom   99 type  1   force =     0.00000700    0.00001072   -0.00000173
     atom  100 type  1   force =    -0.00000700   -0.00001072    0.00000173
     atom  101 type  1   force =     0.00000176    0.00000605    0.00001322
     atom  102 type  1   force =    -0.00000176   -0.00000605   -0.00001322
     atom  103 type  1   force =     0.00001000    0.00001208    0.00000737
     atom  104 type  1   force =    -0.00001000   -0.00001208   -0.00000737
     atom  105 type  1   force =     0.00001501    0.00000398    0.00000755
     atom  106 type  1   force =    -0.00001501   -0.00000398   -0.00000755
     atom  107 type  1   force =     0.00001879    0.00000015   -0.00000554
     atom  108 type  1   force =    -0.00001879   -0.00000015    0.00000554

     Total force =     0.000219     Total SCF correction =     0.000020


     Computing stress (Cartesian axis) and pressure


     negative rho (up, down):  5.013E-04 0.000E+00
          total   stress  (Ry/bohr**3)                   (kbar)     P=        0.00
   0.00000003  -0.00000000   0.00000000            0.00       -0.00        0.00
  -0.00000000   0.00000002  -0.00000001           -0.00        0.00       -0.00
   0.00000000  -0.00000001   0.00000003            0.00       -0.00        0.00

     Message from routine bfgs:
     history already reset at previous step: exiting
     Energy error            =      1.0E-08 Ry
     Gradient error          =      5.0E-05 Ry/Bohr
     Cell gradient error     =      4.4E-03 kbar

     bfgs failed after  10 scf cycles and   9 bfgs steps, convergence not achieved
     (criteria: energy <  3.6E-06 Ry, force <  1.0E-05 Ry/Bohr, cell <  5.0E-01 kbar)

     End of BFGS Geometry Optimization

     Final enthalpy           =   -4009.1719965253 Ry

     File ./pwscf.bfgs deleted, as requested
Begin final coordinates
     new unit-cell volume =  15298.42911 a.u.^3 (  2266.99330 Ang^3 )
     density =      1.19249 g/cm^3

CELL_PARAMETERS (alat= 27.59009591)
   0.997641308   0.000086678   0.000061790
   0.473330308   0.878207098   0.000062092
   0.473330068   0.282618143   0.831489943

ATOMIC_POSITIONS (crystal)
Zr               0.8730099225        0.1189798229        0.1221855116
Zr               0.1269900775        0.8810191771        0.8778144884
Zr               0.1221863703        0.8730096410        0.1189792275
Zr               0.8778136297        0.1269903590        0.8810197725
Zr               0.1189792255        0.1221858162        0.8730092783
Zr               0.8810197745        0.8778141838        0.1269907217
O                0.9195926067        0.2615030774        0.0847363834
O                0.0804073933        0.7384969226        0.9152636166
O                0.0847369548        0.9195910388        0.2615036670
O                0.9152630452        0.0804089612        0.7384963330
O                0.2615036338        0.0847370665        0.9195904270
O                0.7384963662        0.9152629335        0.0804095730
O                0.7547303508        0.0540604143        0.9177479573
O                0.2452696492        0.9459395857        0.0822520427
O                0.9177469220        0.7547296368        0.0540625927
O                0.0822530780        0.2452703632        0.9459374073
O                0.0540617047        0.9177479592        0.7547297018
O                0.9459382953        0.0822520408        0.2452702982
O                0.2663817933        0.9222946315        0.7338095314
O                0.7336182067        0.0777053685        0.2661904686
O                0.7338091953        0.2663812094        0.9222960418
O                0.2661908047        0.7336187906        0.0777039582
O                0.9222964937        0.7338096380        0.2663812557
O                0.0777035063        0.2661903620        0.7336187443
O                0.0835432954        0.7269646913        0.2590472950
O                0.9164567046        0.2730353087        0.7409527050
O                0.2590469254        0.0835413352        0.7269649321
O                0.7409530746        0.9164586648        0.2730350679
O                0.7269648261        0.2590481491        0.0835417307
O                0.2730351739        0.7409518509        0.9164582693
O                0.8362121018        0.0446449769        0.0476502792
O                0.1637878982        0.9553550231        0.9523497208
O                0.0476504254        0.8362114030        0.0446453050
O                0.9523495746        0.1637885970        0.9553546950
O                0.0446441682        0.0476498255        0.8362129484
O                0.9553558318        0.9523501745        0.1637870516
C                0.6969898725        0.9971123321        0.3091840395
C                0.3030101275        0.0028876679        0.6908159605
C                0.3091839498        0.6969896922        0.9971110924
C                0.6908160502        0.3030103078        0.0028889076
C                0.9971114030        0.3091841791        0.6969895033
C                0.0028885970        0.6908158209        0.3030104967
C               -0.0000764562        0.7042698362        0.9881981981
C                1.0000764562        0.2957301638        0.0118018019
C                0.9881981397       -0.0000757243        0.7042694593
C                0.0118018603        1.0000757243        0.2957305407
C                0.7042699248        0.9881978689       -0.0000760455
C                0.2957300752        0.0118021311        1.0000760455
C                0.9998688526        0.4016195710        0.0050009141
C                0.0001311474        0.5983804290        0.9949990859
C                0.0050014605        0.9998676480        0.4016199216
C                0.9949985395        0.0001323520        0.5983800784
C                0.4016197794        0.0050018635        0.9998676259
C                0.5983802206        0.9949981365        0.0001323741
C                0.4044603391        0.0016330269        0.5919897706
C                0.5955396609        0.9983669731        0.4080102294
C                0.5919896507        0.4044607883        0.0016337542
C                0.4080103493        0.5955392117        0.9983662458
C                0.0016345397        0.5919899217        0.4044604658
C                0.9983654603        0.4080100783        0.5955395342
C                0.9098212474        0.4626213773        0.0722088974
C                0.0901787526        0.5373786227        0.9277911026
C                0.0722076654        0.9098208449        0.4626223004
C                0.9277923346        0.0901791551        0.5373776996
C                0.4626224305        0.0722073272        0.9098205281
C                0.5373775695        0.9277926728        0.0901794719
C                0.5603371035        0.0671970819        0.9098710180
C                0.4396628965        0.9328029181        0.0901289820
C                0.9098720546        0.5603353289        0.0671984298
C                0.0901279454        0.4396646711        0.9328015702
C                0.0671978068        0.9098712780        0.5603364233
C                0.9328021932        0.0901287220        0.4396635767
C                0.4577250424        0.9128626547        0.5511018196
C                0.5422749576        0.0871373453        0.4488981804
C                0.5511029097        0.4577248915        0.9128622013
C                0.4488970903        0.5422751085        0.0871377987
C                0.9128625271        0.5511028704        0.4577242384
C                0.0871374729        0.4488971296        0.5422757616
C                0.0887531654        0.5402457185        0.4474146532
C                0.9112468346        0.4597542815        0.5525853468
C                0.4474138894        0.0887531551        0.5402462298
C                0.5525861106        0.9112468449        0.4597537702
C                0.5402460063        0.4474135867        0.0887533832
C                0.4597539937        0.5525864133        0.9112466168
H                0.5921025576        0.4236121339        0.8456836822
H                0.4078974424        0.5763878661        0.1543163178
H                0.8456845750        0.5921027096        0.4236107055
H                0.1543154250        0.4078972904        0.5763892945
H                0.4236120349        0.8456837002        0.5921011352
H                0.5763879651        0.1543162998        0.4078988648
H                0.5728447234        0.4052960130        0.1571382071
H                0.4271552766        0.5947039870        0.8428617929
H                0.1571384170        0.5728441972        0.4052978628
H                0.8428615830        0.4271558028        0.5947021372
H                0.4052962056        0.1571373385        0.5728456696
H                0.5947037944        0.8428626615        0.4271543304
H                0.1279328836        0.8403151748        0.4320927837
H                0.8720671164        0.1596848252        0.5679072163
H                0.4320930966        0.1279319526        0.8403147330
H                0.5679069034        0.8720680474        0.1596852670
H                0.8403169118        0.4320904696        0.1279343908
H                0.1596830882        0.5679095304        0.8720656092
H                0.1184463599        0.8401879452        0.6087863156
H                0.8815536401        0.1598120548        0.3912136844
H                0.6087872743        0.1184451323        0.8401877242
H                0.3912127257        0.8815548677        0.1598122758
H                0.8401883763        0.6087848641        0.1184481496
H                0.1598116237        0.3912151359        0.8815518504
End final coordinates



     Writing config-only to output data dir ./pwscf.save/ :
     XML data file

     Writing all to output data dir ./pwscf.save/ :
     XML data file, charge density, pseudopotentials, collected wavefunctions

     init_run     :      3.21s CPU      3.77s WALL (       1 calls)
     electrons    :    437.08s CPU    447.69s WALL (      10 calls)
     update_pot   :      0.94s CPU      1.04s WALL (       9 calls)
     forces       :     13.15s CPU     13.50s WALL (      10 calls)
     stress       :     23.36s CPU     23.54s WALL (      10 calls)

     Called by init_run:
     wfcinit      :      1.90s CPU      1.96s WALL (       1 calls)
     potinit      :      0.20s CPU      0.25s WALL (       1 calls)
     hinit0       :      0.27s CPU      0.42s WALL (       1 calls)

     Called by electrons:
     c_bands      :    392.24s CPU    400.24s WALL (      78 calls)
     sum_band     :     30.79s CPU     31.91s WALL (      78 calls)
     v_of_rho     :      1.92s CPU      2.20s WALL (      79 calls)
     newd         :      8.07s CPU      8.46s WALL (      79 calls)
     PAW_pot      :      4.72s CPU      5.10s WALL (      88 calls)
     mix_rho      :      0.57s CPU      0.58s WALL (      78 calls)

     Called by c_bands:
     init_us_2    :      0.70s CPU      0.95s WALL (     166 calls)
     regterg      :    391.44s CPU    399.23s WALL (      78 calls)

     Called by *egterg:
     rdiaghg      :     57.07s CPU     57.70s WALL (     600 calls)
     h_psi        :    175.89s CPU    180.13s WALL (     619 calls)
     s_psi        :     61.33s CPU     61.48s WALL (     619 calls)
     g_psi        :      0.08s CPU      0.08s WALL (     540 calls)

     Called by h_psi:
     h_psi:calbec :     66.40s CPU     68.86s WALL (     619 calls)
     vloc_psi     :     47.46s CPU     49.16s WALL (     619 calls)
     vloc_psi:tg_ :      0.15s CPU      0.15s WALL (     619 calls)
     add_vuspsi   :     61.78s CPU     61.86s WALL (     619 calls)

     General routines
     calbec       :     97.34s CPU    100.76s WALL (     756 calls)
     fft          :      2.58s CPU      2.79s WALL (    1067 calls)
     ffts         :      0.36s CPU      0.38s WALL (     157 calls)
     fftw         :     51.51s CPU     53.40s WALL (   76710 calls)
     interpolate  :      0.42s CPU      0.44s WALL (      79 calls)

     Parallel routines
     fft_scatt_xy :      2.17s CPU      2.23s WALL (   77934 calls)
     fft_scatt_yz :     44.68s CPU     46.54s WALL (   77934 calls)
     fft_scatt_tg :      0.18s CPU      0.19s WALL (   76710 calls)

     PWSCF        :   8m 4.04s CPU   8m16.80s WALL


   This run was terminated on:  12:39:39   3Jun2025            

=------------------------------------------------------------------------------=
   JOB DONE.
=------------------------------------------------------------------------------=
