
                                 *****************
                                 * O   R   C   A *
                                 *****************

                                            #,                                       
                                            ###                                      
                                            ####                                     
                                            #####                                    
                                            ######                                   
                                           ########,                                 
                                     ,,################,,,,,                         
                               ,,#################################,,                 
                          ,,##########################################,,             
                       ,#########################################, ''#####,          
                    ,#############################################,,   '####,        
                  ,##################################################,,,,####,       
                ,###########''''           ''''###############################       
              ,#####''   ,,,,##########,,,,          '''####'''          '####       
            ,##' ,,,,###########################,,,                        '##       
           ' ,,###''''                  '''############,,,                           
         ,,##''                                '''############,,,,        ,,,,,,###''
      ,#''                                            '''#######################'''  
     '                                                          ''''####''''         
             ,#######,   #######,   ,#######,      ##                                
            ,#'     '#,  ##    ##  ,#'     '#,    #''#        ,####,    ,#,          
            ##       ##  ##   ,#'  ##            #'  '#       #'       ,# #          
            ##       ##  #######   ##           ,######,      #####,      #          
            '#,     ,#'  ##    ##  '#,     ,#' ,#      #,     #,   #      #          
             '#######'   ##     ##  '#######'  #'      '#     '####' #    #          



                #########################################################
                #                        -***-                          #
                #          Department of theory and spectroscopy        #
                #                                                       #
                #                      Frank Neese                      #
                #                                                       #
                #     Directorship, Architecture, Infrastructure        #
                #                    SHARK, DRIVERS                     #
                #        Core code/Algorithms in most modules           #
                #                                                       #
                #        Max Planck Institute fuer Kohlenforschung      #
                #                Kaiser Wilhelm Platz 1                 #
                #                 D-45470 Muelheim/Ruhr                 #
                #                      Germany                          #
                #                                                       #
                #                  All rights reserved                  #
                #                        -***-                          #
                #########################################################


                         Program Version 6.1.0  -  RELEASE   -
                                (GIT: $679e74b$)
                          ($2025-06-10 18:02:51 +0200$)


 With contributions from (in alphabetic order):
[Max-Planck-Institut fuer Kohlenforschung]                               
  Daniel Aravena         : Magnetic Suceptibility                        
  Michael Atanasov       : Ab Initio Ligand Field Theory (pilot matlab implementation)
  Alexander A. Auer      : GIAO ZORA, VPT2 properties, NMR spectrum      
  Ute Becker             : All parallelization in ORCA, NUMFREQ, NUMCALC 
  Giovanni Bistoni       : ED, misc. LED, open-shell LED, HFLD           
  Dmytro Bykov           : pre 5.0 version of the SCF Hessian            
  Marcos Casanova-Páez   : Triplet and SCS-CIS(D). UHF-(DLPNO)-IP/EA/STEOM-CCSD. UHF-CVS-IP/STEOM-CCSD   
  Vijay G. Chilkuri      : MRCI spin determinant printing, contributions to CSF-ICE 
  Pauline Colinet        : FMM embedding                                 
  Dipayan Datta          : RHF DLPNO-CCSD density                        
  Achintya Kumar Dutta   : EOM-CC, STEOM-CC                              
  Nicolas Foglia         : Exact transition moments, OPA infrastructure, MCD improvements    
  Dmitry Ganyushin       : Spin-Orbit,Spin-Spin,Magnetic field MRCI      
  Miquel Garcia-Rates    : C-PCM and meta-GGA Hessian, CCSD/C-PCM, Gaussian charge scheme 
  Tiago L. C. Gouveia    : GS-ROHF, GS-ROCIS                             
  Yang Guo               : DLPNO-NEVPT2, F12-NEVPT2, CIM, IAO-localization        
  Andreas Hansen         : Spin unrestricted coupled pair/coupled cluster methods 
  Ingolf Harden          : AUTO-CI MPn and infrastructure                
  Benjamin Helmich-Paris : MC-RPA, TRAH-(SCF,CASSCF), AVAS, COSX integrals, SCF dyn. polar., MC-PDFT, srDFT 
  Lee Huntington         : MR-EOM, pCC                                   
  Robert Izsak           : Overlap fitted RIJCOSX, COSX-SCS-MP3, EOM     
  Riya Kayal             : Wick's Theorem for AUTO-CI, AUTO-CI UHF-CCSDT 
  Emily Kempfer          : AUTO-CI RHF CISDT and CCSDT, approximate NEVPT4
  Christian Kollmar      : KDIIS, OOCD, Brueckner-CCSD(T), CCSD density, CASPT2, CASPT2-K, improved NEVPT2 
  Axel Koslowski         : Symmetry handling                             
  Simone Kossmann        : meta-GGA functionals, TD-DFT gradient, OOMP2, (MP2 Hessian; deprecated post 5.0) 
  Lucas Lang             : DCDCAS, Hyperfine gauge corrections, ICE-SOC+SSC
  Marvin Lechner         : AUTO-CI (C++ implementation), FIC-MRCC        
  Spencer Leger          : CASSCF response                               
  Dagmar Lenk            : GEPOL surface, SMD, ORCA-2-JSON               
  Dimitrios Liakos       : Extrapolation schemes; Compound Job, Property file
  Dimitrios Manganas     : Further ROCIS development; embedding schemes. LFT, Crystal Embedding 
  Dimitrios Pantazis     : SARC Basis sets                               
  Anastasios Papadopoulos: AUTO-CI, single reference methods and gradients 
  Taras Petrenko         : pre 6.0 DFT Hessian and TD-DFT gradient,  ECA, NRVS 
  Petra Pikulova         : Analytic Raman intensities                    
  Peter Pinski           : DLPNO-MP2, DLPNO-MP2 Gradient                 
  Shashank Vittal Rao    : ES-AILFT, MagRelax                            
  Christoph Reimann      : Effective Core Potentials                     
  Marius Retegan         : Local ZFS, SOC                                
  Christoph Riplinger    : Optimizer, TS searches, QM/MM, DLPNO-CCSD(T), (RO)-DLPNO pert. Triples 
  Michael Roemelt        : Original ROCIS implementation, recursive CI coupling coefficients
  Masaaki Saitow         : Open-shell DLPNO-CCSD energy and density      
  Barbara Sandhoefer     : DKH picture change effects                    
  Yorick L. A. Schmerwitz: GMF and freeze-and-release deltaSCF, NEB S-IDPP initial path                    
  Kantharuban Sivalingam : CASSCF convergence/infrastructure, NEVPT2, NEVPT3, NEVPT4(SD), FIC-MRCI and CEPA variants
  Bernardo de Souza      : ESD, SOC TD-DFT                               
  Georgi L. Stoychev     : AutoAux, RI-MP2 NMR, DLPNO-MP2 response, X2C  
  Van Anh Tran           : RI-MP2 g-tensors                              
  Willem Van den Heuvel  : Paramagnetic NMR                              
  Zikuan Wang            : NOTCH, Electric field optimization            
  Frank Wennmohs         : Technical directorship and infrastructure     
  Hang Xu                : AUTO-CI-Response properties                   
                                                                         
[FACCTs GmbH]                                                            
  Markus Bursch, Nicolas Foglia, Miquel Garcia-Rates, Ingolf Harden, Hagen Neugebauer, Anastasios Papadopoulos, 
  Christoph Riplinger, Bernardo de Souza, Georgi L. Stoychev                                                    
                                                                 
  APM, various basis sets, CI-OPT, improved COSX, DLPNO-Multilevel,           
  DOCKER, DRACO, updates on ESD, Fragmentator, GOAT, IRC, LR-CPCM, L-BFGS, MBIS, meta-GGA TD-DFT gradient, ML-optimized integration grids, 
  MM, NACMEs, nearIR, NEB, NEB-TS, NL-DFT gradient (VV10), 2- and 3-layer-ONIOM, interface openCOSMO-RS, QMMM,   
  Crystal-QMMM, RESP, rigid body optimization, SF, symmetry and pop. for TD-DFT, various functionals, SOLVATOR                                   
                                                                         
[Other institutions]                                                     
  V. Asgeirsson          : NEB                                           
  Christoph Bannwarth    : sTDA-DFT, sTD-DFT, PBEh-3c, B97-3c, D3        
  Giovanni Bistoni       : ETS/NOCV, ADLD/ADEX, COVALED                  
  Martin Brehm           : Molecular dynamics                            
  Ronald Cardenas        : ETS/NOCV                                      
  Martina Colucci        : COVALED                                       
  Sebastian Ehlert       : rSCAN, r2SCAN, r2SCAN-3c, D4, dhf basis sets  
  Marvin Friede          : D4 for Fr, Ra, Ac-Lr                          
  Lars Goerigk           : TD-DFT with DH, B97 family of functionals     
  Stefan Grimme          : VdW corrections, initial TS optimization, DFT functionals, gCP, sTDA/sTD-DF 
  Waldemar Hujo          : DFT-NL                                        
  H. Jonsson             : NEB                                           
  Holger Kruse           : gCP                                           
  Marcel Mueller         : wB97X-3c, vDZP basis set                      
  Hagen Neugebauer       : wr2SCAN, Native XTB                           
  Gianluca Regni         : ADLD/ADEX                                     
  Tobias Risthaus        : pre 6.0 range-separated hybrid DFT and stability analysis
  Lukas Wittmann         : regularized MP2, r2SCAN double-hybrids, wr2SCAN        
                                                                         
We gratefully acknowledge several colleagues who have allowed us to      
interface, adapt or use parts of their codes:                            
  Ed Valeev, F. Pavosevic, A. Kumar             : LibInt (2-el integral package), F12 methods 
  Garnet Chan, S. Sharma, J. Yang, R. Olivares  : DMRG                   
  Ulf Ekstrom                                   : XCFun DFT Library      
  Mihaly Kallay                                 : mrcc  (arbitrary order and MRCC methods)
  Frank Weinhold                                : gennbo (NPA and NBO analysis)           
  Simon Mueller                                 : openCOSMO-RS                            
  Christopher J. Cramer and Donald G. Truhlar   : smd solvation model                     
  S Lehtola, MJT Oliveira, MAL Marques          : LibXC Library                           
  Liviu Ungur et al                             : ANISO software                          


 Your calculation uses the libint2 library for the computation of 2-el integrals
 For citations please refer to: http://libint.valeyev.net

 Your ORCA version has been built with support for libXC version: 7.0.0
 For citations please refer to: https://libxc.gitlab.io

 This ORCA versions uses:
   CBLAS   interface :  Fast vector & matrix operations
   LAPACKE interface :  Fast linear algebra routines
   SCALAPACK package :  Parallel linear algebra routines
   Shared memory     :  Shared parallel matrices
   BLAS/LAPACK       :  OpenBLAS 0.3.29  USE64BITINT DYNAMIC_ARCH NO_AFFINITY Bulldozer SINGLE_THREADED
        Core in use  :  Bulldozer
   Copyright (c) 2011-2014, The OpenBLAS Project


  ***********************************
  * Starting time: Sun Aug 17 22:49:16 2025
  * Host name:     chromium09
  * Process ID:    449441
  * Working dir.:  /local/scratch/mehlhorn/62107
  ***********************************



***************************************
The coordinates will be read from file: start.xyz
***************************************


Your calculation utilizes the geometrical counterpoise correction gCP
Please cite in your paper:
H.Kruse, S. Grimme J.Chem.Phys., 136, (2012), 154101 
   

Your calculation utilizes the atom-pairwise dispersion correction
with the Becke-Johnson damping scheme (D3BJ)


Your calculation employs the composite approach PBEh-3c.
Please cite in your paper:
Grimme, S.; Brandenburg, J. G.; Bannwarth, C.; Hansen A. J. Chem. Phys. 2015, 143, 054107 
   

================================================================================

----- Orbital basis set information -----
Your calculation utilizes the basis: def2-mSVP

----- AuxJ basis set information -----
Your calculation utilizes the auxiliary basis: def2-mSVP/J
================================================================================
                                        WARNINGS
                       Please study these warnings very carefully!
================================================================================


WARNING: Geometry Optimization
  ===> : Switching off AutoStart
         For restart on a previous wavefunction, please use MOREAD

================================================================================
                                       INPUT FILE
================================================================================
NAME = run.inp
|  1> # Geometry optimization for (AlH3)n cluster
|  2> 
|  3> %pal nprocs 24  end
|  4> 
|  5> %geom MaxIter 500 end
|  6> 
|  7> %elprop Polar 1 end # invoke raman
|  8> 
|  9> ! PBEh-3c
| 10> ! RKS	# closed shell for AlH3
| 11> ! Freq 	# Frequency analysis to check the stabiltity of the structures
| 12> 
| 13> 
| 14> ! NoPop # population analysis not necessary	
| 15> 
| 16> ! DEFGRID3
| 17> ! ExtremeSCF
| 18> ! VeryTightOpt
| 19> 
| 20> 
| 21> ! SmallPrint
| 22> 
| 23> 
| 24> * xyzFile 0 1 start.xyz # only maingroup elements H and Al so there should be no net spin
| 25> 
| 26>                          ****END OF INPUT****
================================================================================

                       *****************************
                       * Geometry Optimization Run *
                       *****************************

Geometry optimization settings:
Update method            Update   .... BFGS
Choice of coordinates    CoordSys .... (2022) Redundant Internals
Initial Hessian          InHess   .... Almloef's Model
Max. no of cycles        MaxIter  .... 500

Convergence Tolerances:
Energy Change            TolE     ....  2.0000e-07 Eh
Max. Gradient            TolMAXG  ....  3.0000e-05 Eh/bohr
RMS Gradient             TolRMSG  ....  8.0000e-06 Eh/bohr
Max. Displacement        TolMAXD  ....  2.0000e-04 bohr
RMS Displacement         TolRMSD  ....  1.0000e-04 bohr
Strict Convergence                .... False

------------------------------------------------------------------------------
                        ORCA OPTIMIZATION COORDINATE SETUP
------------------------------------------------------------------------------

The optimization will be done in redundant internal coordinates (2022)
Making redundant internal coordinates   ...  (2022 redundants) done
Evaluating the initial hessian          ...  (Almloef) done
Evaluating the coordinates              ...  done
Calculating the B-matrix                .... done
Calculating the G-matrix                .... done
The number of degrees of freedom        ....  224

    -----------------------------------------------------------------
                    Redundant Internal Coordinates


    -----------------------------------------------------------------
         Definition                    Initial Value    Approx d2E/dq
    -----------------------------------------------------------------
      1. B(Al  1,Al  0)                  2.9111         0.114832   
      2. B(H   2,Al  1)                  1.7286         0.241647   
      3. B(H   3,Al  1)                  1.5829         0.412693   
      4. B(H   4,Al  1)                  1.7096         0.259148   
      5. B(H   4,Al  0)                  1.7388         0.232707   
      6. B(H   5,Al  0)                  1.5889         0.403628   
      7. B(H   6,Al  0)                  1.6820         0.286763   
      8. B(H   7,Al  1)                  1.5987         0.389410   
      9. B(Al  8,H   2)                  1.7263         0.243706   
     10. B(Al  8,Al  1)                  2.9985         0.083296   
     11. B(H   9,Al  8)                  1.7152         0.253842   
     12. B(H  10,Al  8)                  1.5861         0.407916   
     13. B(H  11,Al  0)                  1.5950         0.394676   
     14. B(Al 12,H   6)                  1.7791         0.200722   
     15. B(Al 12,Al  0)                  3.3201         0.025556   
     16. B(Al 12,H   9)                  1.6988         0.269635   
     17. B(Al 12,Al  8)                  3.0604         0.066354   
     18. B(H  13,Al 12)                  1.7309         0.239582   
     19. B(H  14,Al 12)                  1.5762         0.422941   
     20. B(H  15,Al  8)                  1.5869         0.406642   
     21. B(Al 16,H  13)                  1.7596         0.215590   
     22. B(Al 16,Al 12)                  2.6524         0.297030   
     23. B(H  17,Al 16)                  1.5877         0.405526   
     24. B(H  18,Al 16)                  1.6971         0.271236   
     25. B(H  18,Al 12)                  1.8663         0.145711   
     26. B(H  19,Al 16)                  1.5893         0.403085   
     27. A(H   5,Al  0,H  11)          127.4081         0.383978   
     28. A(H   4,Al  0,H  11)          103.8145         0.349409   
     29. A(Al  1,Al  0,H  11)           79.1201         0.359720   
     30. A(H   4,Al  0,H   6)           99.3506         0.331247   
     31. A(H   6,Al  0,H  11)          109.9125         0.362016   
     32. A(Al  1,Al  0,H   5)          135.5209         0.361098   
     33. A(Al  1,Al  0,H   4)           32.1067         0.329210   
     34. A(H   5,Al  0,Al 12)          117.3697         0.282653   
     35. A(H   5,Al  0,H   6)          108.7645         0.363405   
     36. A(Al  1,Al  0,H   6)           88.8883         0.340839   
     37. A(Al  1,Al  0,Al 12)           72.5811         0.266727   
     38. A(H   4,Al  0,H   5)          103.5507         0.350734   
     39. A(H  11,Al  0,Al 12)          109.8360         0.281672   
     40. A(H   4,Al  0,Al 12)           83.0776         0.259958   
     41. A(H   6,Al  0,Al 12)           16.8879         0.268235   
     42. A(Al  0,Al  1,H   2)          117.7113         0.331268   
     43. A(Al  0,Al  1,H   7)           78.8668         0.358898   
     44. A(H   3,Al  1,H   4)          111.2129         0.358539   
     45. A(H   2,Al  1,H   3)          106.8262         0.354307   
     46. A(H   2,Al  1,H   7)          104.1811         0.350843   
     47. A(H   4,Al  1,H   7)          106.1276         0.355020   
     48. A(Al  0,Al  1,H   4)           32.7249         0.335133   
     49. A(H   3,Al  1,Al  8)          134.4656         0.343300   
     50. A(H   2,Al  1,H   4)           93.2986         0.327787   
     51. A(Al  0,Al  1,H   3)          118.4742         0.362469   
     52. A(H   4,Al  1,Al  8)           90.7275         0.317881   
     53. A(Al  0,Al  1,Al  8)          101.7196         0.321217   
     54. A(H   7,Al  1,Al  8)           76.4687         0.339980   
     55. A(H   2,Al  1,Al  8)           29.7613         0.314287   
     56. A(H   3,Al  1,H   7)          129.1019         0.384564   
     57. A(Al  1,H   2,Al  8)          120.4335         0.324490   
     58. A(Al  0,H   4,Al  1)          115.1683         0.325758   
     59. A(Al  0,H   6,Al 12)          147.1713         0.323274   
     60. A(H   9,Al  8,H  15)          109.3165         0.356385   
     61. A(H   2,Al  8,H  15)          109.5305         0.353930   
     62. A(Al  1,Al  8,H  15)           97.1925         0.342452   
     63. A(H   2,Al  8,H  10)          106.0194         0.354118   
     64. A(Al  1,Al  8,H  10)          130.2360         0.342631   
     65. A(H   2,Al  8,H   9)           91.7709         0.327129   
     66. A(Al  1,Al  8,H   9)           69.9203         0.316811   
     67. A(Al  1,Al  8,H   2)           29.8052         0.314720   
     68. A(H   9,Al  8,H  10)          105.2912         0.356574   
     69. A(H  10,Al  8,Al 12)          122.3569         0.329908   
     70. A(H   9,Al  8,Al 12)           26.1693         0.305384   
     71. A(H   2,Al  8,Al 12)          103.6931         0.303397   
     72. A(Al  1,Al  8,Al 12)           75.3364         0.294108   
     73. A(H  10,Al  8,H  15)          128.6497         0.386690   
     74. A(Al 12,Al  8,H  15)           83.3200         0.329738   
     75. A(Al  8,H   9,Al 12)          127.3888         0.332641   
     76. A(H   9,Al 12,H  14)          133.9661         0.362485   
     77. A(Al  8,Al 12,H  14)          111.9876         0.331888   
     78. A(H   6,Al 12,H  14)          101.3864         0.344812   
     79. A(Al  0,Al 12,H  14)          103.9995         0.284712   
     80. A(H   9,Al 12,H  13)          103.3393         0.329474   
     81. A(Al  8,Al 12,H  13)          120.9981         0.302570   
     82. A(H   6,Al 12,H  13)           83.7445         0.313934   
     83. A(Al  0,Al 12,H  13)           95.4230         0.261089   
     84. A(H  13,Al 12,H  14)          122.5072         0.355267   
     85. A(Al  8,Al 12,H   9)           26.4419         0.308360   
     86. A(H   6,Al 12,H   9)           86.4183         0.320032   
     87. A(Al  0,Al 12,H   9)           73.1493         0.265754   
     88. A(H   6,Al 12,Al  8)          107.0889         0.294185   
     89. A(Al  0,Al 12,Al  8)           91.7550         0.245979   
     90. A(Al 16,Al 12,H  18)           39.5119         0.356911   
     91. A(H  14,Al 12,H  18)           97.9477         0.326923   
     92. A(Al  0,Al 12,H   6)           15.9408         0.254332   
     93. A(H   9,Al 12,H  18)           84.7963         0.303876   
     94. A(Al  8,Al 12,H  18)           70.9763         0.279836   
     95. A(H   6,Al 12,H  18)          159.6153         0.289990   
     96. A(Al  0,Al 12,H  18)          156.0623         0.242770   
     97. A(H  14,Al 12,Al 16)          116.7256         0.429986   
     98. A(H  13,Al 12,Al 16)           40.9514         0.388827   
     99. A(H   9,Al 12,Al 16)           94.3433         0.396955   
    100. A(Al  8,Al 12,Al 16)           96.0644         0.362502   
    101. A(H   6,Al 12,Al 16)          123.3421         0.377055   
    102. A(Al  0,Al 12,Al 16)          131.5258         0.309380   
    103. A(H  13,Al 12,H  18)           80.4512         0.298204   
    104. A(Al 12,H  13,Al 16)           98.9040         0.317601   
    105. A(H  18,Al 16,H  19)          110.2151         0.359887   
    106. A(H  17,Al 16,H  19)          128.7626         0.385704   
    107. A(Al 12,Al 16,H  19)          114.0039         0.426295   
    108. A(H  17,Al 16,H  18)          111.1994         0.360258   
    109. A(H  13,Al 16,H  18)           84.5305         0.324113   
    110. A(Al 12,Al 16,H  18)           44.3987         0.397368   
    111. A(H  13,Al 16,H  17)          106.4964         0.346520   
    112. A(H  13,Al 16,H  19)          106.1921         0.346169   
    113. A(Al 12,Al 16,H  17)          116.5181         0.426757   
    114. A(Al 12,Al 16,H  13)           40.1446         0.381751   
    115. A(Al 12,H  18,Al 16)           96.0894         0.304164   
    116. D(H   3,Al  1,Al  0,Al 12)   -169.5284         0.010000   
    117. D(H   2,Al  1,Al  0,H   4)    -45.7991         0.010000   
    118. D(H   2,Al  1,Al  0,Al 12)     59.4108         0.010000   
    119. D(H   2,Al  1,Al  0,H   6)     63.8754         0.010000   
    120. D(H   3,Al  1,Al  0,H   5)     78.8679         0.010000   
    121. D(H   3,Al  1,Al  0,H   4)     85.2616         0.010000   
    122. D(H   2,Al  1,Al  0,H  11)    174.4003         0.010000   
    123. D(H   3,Al  1,Al  0,H   6)   -165.0638         0.010000   
    124. D(H   2,Al  1,Al  0,H   5)    -52.1929         0.010000   
    125. D(H   3,Al  1,Al  0,H  11)    -54.5390         0.010000   
    126. D(Al  8,H   2,Al  1,Al  0)    -62.8460         0.010000   
    127. D(Al  8,H   2,Al  1,H   7)     21.8619         0.010000   
    128. D(Al  8,H   2,Al  1,H   4)    -85.6888         0.010000   
    129. D(Al  8,H   2,Al  1,H   3)    160.9782         0.010000   
    130. D(Al  0,H   4,Al  1,Al  8)    110.8548         0.010000   
    131. D(Al  0,H   4,Al  1,H   7)     34.7361         0.010000   
    132. D(Al  1,H   4,Al  0,Al 12)    -68.0453         0.010000   
    133. D(Al  0,H   4,Al  1,H   2)    140.5261         0.010000   
    134. D(Al  1,H   4,Al  0,H   5)    175.3966         0.010000   
    135. D(Al  1,H   4,Al  0,H  11)     40.7476         0.010000   
    136. D(Al  0,H   4,Al  1,H   3)   -109.9989         0.010000   
    137. D(Al  1,H   4,Al  0,H   6)    -72.5771         0.010000   
    138. D(Al 12,H   6,Al  0,H  11)    -92.8188         0.010000   
    139. D(Al 12,H   6,Al  0,Al  1)    -14.8135         0.010000   
    140. D(Al 12,H   6,Al  0,H   5)    123.5271         0.010000   
    141. D(Al 12,H   6,Al  0,H   4)     15.6646         0.010000   
    142. D(H   2,Al  8,Al  1,H   3)    -25.9216         0.010000   
    143. D(H   2,Al  8,Al  1,Al  0)    126.4383         0.010000   
    144. D(H   2,Al  8,Al  1,H   7)   -158.2023         0.010000   
    145. D(H   2,Al  8,Al  1,H   4)     95.3777         0.010000   
    146. D(H   9,Al  8,Al  1,Al  0)     -8.3383         0.010000   
    147. D(H  15,Al  8,H   2,Al  1)    -69.3919         0.010000   
    148. D(Al 12,Al  8,H   2,Al  1)     18.2806         0.010000   
    149. D(H  10,Al  8,Al  1,Al  0)     85.0165         0.010000   
    150. D(H   9,Al  8,Al  1,H   7)     67.0211         0.010000   
    151. D(H   9,Al  8,Al  1,H   4)    -39.3989         0.010000   
    152. D(H  10,Al  8,H   2,Al  1)    148.3007         0.010000   
    153. D(H   9,Al  8,Al  1,H   3)   -160.6981         0.010000   
    154. D(H   9,Al  8,Al  1,H   2)   -134.7766         0.010000   
    155. D(H   9,Al  8,H   2,Al  1)     41.8382         0.010000   
    156. D(Al 12,H   9,Al  8,H  15)     -6.8768         0.010000   
    157. D(Al 12,H   9,Al  8,H   2)   -118.3002         0.010000   
    158. D(Al 12,H   9,Al  8,H  10)    134.5614         0.010000   
    159. D(Al 12,H   9,Al  8,Al  1)    -97.6290         0.010000   
    160. D(H  18,Al 12,H   6,Al  0)    -97.6035         0.010000   
    161. D(Al 16,Al 12,H   6,Al  0)   -125.8752         0.010000   
    162. D(H  14,Al 12,H   6,Al  0)    101.1536         0.010000   
    163. D(H   9,Al 12,H   6,Al  0)    -33.0293         0.010000   
    164. D(Al  8,Al 12,H   6,Al  0)    -16.3288         0.010000   
    165. D(H   9,Al 12,Al  0,H   5)     82.6363         0.010000   
    166. D(H   9,Al 12,Al  0,H   4)    -19.0718         0.010000   
    167. D(Al  8,Al 12,Al  0,H  11)   -102.2632         0.010000   
    168. D(H   9,Al 12,Al  0,Al  1)    -50.1794         0.010000   
    169. D(Al  8,Al 12,Al  0,H   6)    164.4034         0.010000   
    170. D(Al  8,Al 12,Al  0,H   5)    101.6790         0.010000   
    171. D(Al  8,Al 12,Al  0,H   4)     -0.0291         0.010000   
    172. D(Al  8,Al 12,Al  0,Al  1)    -31.1366         0.010000   
    173. D(H  13,Al 12,H   6,Al  0)   -136.8813         0.010000   
    174. D(H   6,Al 12,Al  0,H  11)     93.3334         0.010000   
    175. D(H   6,Al 12,Al  0,H   5)    -62.7243         0.010000   
    176. D(H   6,Al 12,Al  0,H   4)   -164.4324         0.010000   
    177. D(Al  0,Al 12,Al  8,Al  1)     29.6773         0.010000   
    178. D(H   6,Al 12,Al  0,Al  1)    164.4600         0.010000   
    179. D(H  18,Al 12,H   9,Al  8)    -56.5014         0.010000   
    180. D(H  14,Al 12,H   9,Al  8)     39.5292         0.010000   
    181. D(H  13,Al 12,H   9,Al  8)   -135.3860         0.010000   
    182. D(H   6,Al 12,H   9,Al  8)    141.9128         0.010000   
    183. D(H   9,Al 12,Al  8,H   2)     64.9312         0.010000   
    184. D(H   9,Al 12,Al  8,Al  1)     74.2055         0.010000   
    185. D(H   6,Al 12,Al  8,H  15)    133.3699         0.010000   
    186. D(H   6,Al 12,Al  8,H  10)    -94.5470         0.010000   
    187. D(H   6,Al 12,Al  8,H   9)    -40.0976         0.010000   
    188. D(H   6,Al 12,Al  8,H   2)     24.8337         0.010000   
    189. D(Al  0,Al 12,H   9,Al  8)    132.9139         0.010000   
    190. D(H   6,Al 12,Al  8,Al  1)     34.1079         0.010000   
    191. D(Al  0,Al 12,Al  8,H  15)    128.9393         0.010000   
    192. D(Al  0,Al 12,Al  8,H  10)    -98.9777         0.010000   
    193. D(Al 16,Al 12,H   9,Al  8)    -94.8885         0.010000   
    194. D(Al  0,Al 12,Al  8,H   9)    -44.5282         0.010000   
    195. D(Al  0,Al 12,Al  8,H   2)     20.4030         0.010000   
    196. D(Al 16,H  13,Al 12,H  18)     -1.1624         0.010000   
    197. D(Al 16,H  13,Al 12,H  14)    -94.5486         0.010000   
    198. D(Al 16,H  13,Al 12,H   9)     81.1132         0.010000   
    199. D(Al 16,H  13,Al 12,Al  8)     59.7151         0.010000   
    200. D(Al 16,H  13,Al 12,H   6)    165.9162         0.010000   
    201. D(Al 16,H  13,Al 12,Al  0)    155.0470         0.010000   
    202. D(H  19,Al 16,H  13,Al 12)   -108.2247         0.010000   
    203. D(H  18,Al 16,H  13,Al 12)      1.2664         0.010000   
    204. D(H  17,Al 16,H  13,Al 12)    111.7847         0.010000   
    205. D(H  17,Al 16,Al 12,H  13)    -84.2954         0.010000   
    206. D(H  17,Al 16,Al 12,H   9)    170.3076         0.010000   
    207. D(H  17,Al 16,Al 12,Al  8)    143.8095         0.010000   
    208. D(H  17,Al 16,Al 12,H   6)   -101.1265         0.010000   
    209. D(H  17,Al 16,Al 12,Al  0)   -118.4193         0.010000   
    210. D(H  13,Al 16,Al 12,H  18)    178.1981         0.010000   
    211. D(H  13,Al 16,Al 12,H  14)    109.7429         0.010000   
    212. D(H  13,Al 16,Al 12,H   9)   -105.3971         0.010000   
    213. D(H  13,Al 16,Al 12,Al  8)   -131.8951         0.010000   
    214. D(H  13,Al 16,Al 12,H   6)    -16.8311         0.010000   
    215. D(H  13,Al 16,Al 12,Al  0)    -34.1239         0.010000   
    216. D(Al 12,H  18,Al 16,H  19)    104.0969         0.010000   
    217. D(Al 12,H  18,Al 16,H  17)   -106.7610         0.010000   
    218. D(Al 12,H  18,Al 16,H  13)     -1.1669         0.010000   
    219. D(Al 16,H  18,Al 12,H  14)    122.9840         0.010000   
    220. D(Al 16,H  18,Al 12,H  13)      1.1975         0.010000   
    221. D(Al 16,H  18,Al 12,H   9)   -103.2946         0.010000   
    222. D(Al 16,H  18,Al 12,Al  8)   -126.4221         0.010000   
    223. D(Al 16,H  18,Al 12,H   6)    -38.4567         0.010000   
    224. D(Al 16,H  18,Al 12,Al  0)    -80.5965         0.010000   
    -----------------------------------------------------------------

Number of atoms                         .... 20
Number of degrees of freedom            .... 224


         *************************************************************
         *                GEOMETRY OPTIMIZATION CYCLE   1            *
         *************************************************************
---------------------------------
CARTESIAN COORDINATES (ANGSTROEM)
---------------------------------
  Al    -0.533703    1.012165    2.872789
  Al     0.115813   -0.473201    0.454857
  H     -0.462837   -2.097210    0.329290
  H     -0.143936    0.215410   -0.946532
  H     -1.080482   -0.030243    1.592941
  H     -1.863157    1.341655    3.678215
  H      0.374447   -0.093682    3.756789
  H      1.481527   -0.606361    1.275182
  Al     0.065712   -3.302633    1.446259
  H     -0.065927   -2.214099    2.765206
  H     -1.149052   -4.308919    1.611566
  H      0.433944    2.044283    2.136206
  Al     1.179101   -1.680062    3.790131
  H      0.474277   -1.792909    5.367020
  H      2.684026   -1.270498    3.562291
  H      1.596553   -3.630994    1.187418
  Al     0.710132   -3.513849    5.648246
  H      1.785766   -3.637643    6.809432
  H      1.453340   -3.495903    4.122595
  H     -0.729334   -4.180326    5.550089

----------------------------
CARTESIAN COORDINATES (A.U.)
----------------------------
  NO LB      ZA    FRAG     MASS         X           Y           Z
   0 Al   13.0000    0    26.982   -1.008553    1.912715    5.428785
   1 Al   13.0000    0    26.982    0.218855   -0.894219    0.859555
   2 H     1.0000    0     1.008   -0.874635   -3.963152    0.622268
   3 H     1.0000    0     1.008   -0.271999    0.407066   -1.788687
   4 H     1.0000    0     1.008   -2.041816   -0.057151    3.010223
   5 H     1.0000    0     1.008   -3.520857    2.535360    6.950818
   6 H     1.0000    0     1.008    0.707601   -0.177033    7.099301
   7 H     1.0000    0     1.008    2.799681   -1.145857    2.409744
   8 Al   13.0000    0    26.982    0.124178   -6.241072    2.733034
   9 H     1.0000    0     1.008   -0.124584   -4.184042    5.225483
  10 H     1.0000    0     1.008   -2.171393   -8.142677    3.045419
  11 H     1.0000    0     1.008    0.820035    3.863134    4.036845
  12 Al   13.0000    0    26.982    2.228179   -3.174857    7.162310
  13 H     1.0000    0     1.008    0.896253   -3.388106   10.142197
  14 H     1.0000    0     1.008    5.072075   -2.400894    6.731755
  15 H     1.0000    0     1.008    3.017047   -6.861585    2.243895
  16 Al   13.0000    0    26.982    1.341955   -6.640212   10.673638
  17 H     1.0000    0     1.008    3.374609   -6.874149   12.867961
  18 H     1.0000    0     1.008    2.746414   -6.606299    7.790576
  19 H     1.0000    0     1.008   -1.378241   -7.899672   10.488148

--------------------------------
INTERNAL COORDINATES (ANGSTROEM)
--------------------------------
 Al     0   0   0     0.000000000000     0.00000000     0.00000000
 Al     1   0   0     2.911112848969     0.00000000     0.00000000
 H      2   1   0     1.728585970871   117.71134526     0.00000000
 H      2   1   3     1.582891945895   118.47422087   131.06078767
 H      2   1   3     1.709552789922    32.72490972    45.79914032
 H      1   2   3     1.588937357889   135.52094374   307.80710981
 H      1   2   3     1.681989592186    88.88834771    63.87542561
 H      2   1   3     1.598699074615    78.86679372   259.70785165
 Al     3   2   1     1.726276684376   120.43351224   297.15402537
 H      9   3   2     1.715183801299    91.77091682    41.83821252
 H      9   3   2     1.586061085848   106.01939342   148.30072695
 H      1   2   3     1.595042597579    79.12008420   174.40025156
 Al    10   9   3     1.698753514411   127.38883681   241.69975396
 H     13  10   9     1.730921604203   103.33925796   224.61402800
 H     13  10   9     1.576214712620   133.96611345    39.52915488
 H      9   3   2     1.586912607965   109.53047284   290.60806145
 Al    14  13  10     1.759645337352    98.90400360    81.11316355
 H     17  14  13     1.587660638415   106.49642742   111.78470801
 H     17  14  13     1.697142077055    84.53050224     1.26636283
 H     17  14  13     1.589304003135   106.19206710   251.77530852

---------------------------
INTERNAL COORDINATES (A.U.)
---------------------------
 Al     0   0   0     0.000000000000     0.00000000     0.00000000
 Al     1   0   0     5.501206029490     0.00000000     0.00000000
 H      2   1   0     3.266554083885   117.71134526     0.00000000
 H      2   1   3     2.991232277331   118.47422087   131.06078767
 H      2   1   3     3.230586584433    32.72490972    45.79914032
 H      1   2   3     3.002656450366   135.52094374   307.80710981
 H      1   2   3     3.178499689338    88.88834771    63.87542561
 H      2   1   3     3.021103421576    78.86679372   259.70785165
 Al     3   2   1     3.262190164843   120.43351224   297.15402537
 H      9   3   2     3.241227653793    91.77091682    41.83821252
 H      9   3   2     2.997221083923   106.01939342   148.30072695
 H      1   2   3     3.014193681363    79.12008420   174.40025156
 Al    10   9   3     3.210178911274   127.38883681   241.69975396
 H     13  10   9     3.270967791232   103.33925796   224.61402800
 H     13  10   9     2.978614135109   133.96611345    39.52915488
 H      9   3   2     2.998830227521   109.53047284   290.60806145
 Al    14  13  10     3.325247780427    98.90400360    81.11316355
 H     17  14  13     3.000243800212   106.49642742   111.78470801
 H     17  14  13     3.207133735989    84.53050224     1.26636283
 H     17  14  13     3.003349309471   106.19206710   251.77530852

---------------------
BASIS SET INFORMATION
---------------------
There are 2 groups of distinct atoms

 Group   1 Type Al  : 10s7p1d contracted to 4s3p1d pattern {5311/511/1}
 Group   2 Type H   : 4s contracted to 2s pattern {31}

Atom   0Al   basis set group =>   1
Atom   1Al   basis set group =>   1
Atom   2H    basis set group =>   2
Atom   3H    basis set group =>   2
Atom   4H    basis set group =>   2
Atom   5H    basis set group =>   2
Atom   6H    basis set group =>   2
Atom   7H    basis set group =>   2
Atom   8Al   basis set group =>   1
Atom   9H    basis set group =>   2
Atom  10H    basis set group =>   2
Atom  11H    basis set group =>   2
Atom  12Al   basis set group =>   1
Atom  13H    basis set group =>   2
Atom  14H    basis set group =>   2
Atom  15H    basis set group =>   2
Atom  16Al   basis set group =>   1
Atom  17H    basis set group =>   2
Atom  18H    basis set group =>   2
Atom  19H    basis set group =>   2
---------------------------------
AUXILIARY/J BASIS SET INFORMATION
---------------------------------
There are 2 groups of distinct atoms

 Group   1 Type Al  : 14s5p5d2f1g contracted to 8s4p3d1f1g pattern {71111111/2111/311/2/1}
 Group   2 Type H   : 5s2p1d contracted to 3s1p1d pattern {311/2/1}

Atom   0Al   basis set group =>   1
Atom   1Al   basis set group =>   1
Atom   2H    basis set group =>   2
Atom   3H    basis set group =>   2
Atom   4H    basis set group =>   2
Atom   5H    basis set group =>   2
Atom   6H    basis set group =>   2
Atom   7H    basis set group =>   2
Atom   8Al   basis set group =>   1
Atom   9H    basis set group =>   2
Atom  10H    basis set group =>   2
Atom  11H    basis set group =>   2
Atom  12Al   basis set group =>   1
Atom  13H    basis set group =>   2
Atom  14H    basis set group =>   2
Atom  15H    basis set group =>   2
Atom  16Al   basis set group =>   1
Atom  17H    basis set group =>   2
Atom  18H    basis set group =>   2
Atom  19H    basis set group =>   2


           ************************************************************
           *        Program running with 24 parallel MPI-processes    *
           *              working on a common directory               *
           ************************************************************
------------------------------------------------------------------------------
                             ORCA STARTUP CALCULATIONS
                           -- RI-GTO INTEGRALS CHOSEN --
------------------------------------------------------------------------------
------------------------------------------------------------------------------
                   ___                                                        
                  /   \      - P O W E R E D   B Y -                         
                 /     \                                                     
                 |  |  |   _    _      __       _____    __    __             
                 |  |  |  | |  | |    /  \     |  _  \  |  |  /  |          
                  \  \/   | |  | |   /    \    | | | |  |  | /  /          
                 / \  \   | |__| |  /  /\  \   | |_| |  |  |/  /          
                |  |  |   |  __  | /  /__\  \  |    /   |      \           
                |  |  |   | |  | | |   __   |  |    \   |  |\   \          
                \     /   | |  | | |  |  |  |  | |\  \  |  | \   \       
                 \___/    |_|  |_| |__|  |__|  |_| \__\ |__|  \__/        
                                                                              
                      - O R C A' S   B I G   F R I E N D -                    
                                      &                                       
                       - I N T E G R A L  F E E D E R -                       
                                                                              
 v1 FN, 2020, v2 2021, v3 2022-2024                                           
------------------------------------------------------------------------------


----------------------
SHARK INTEGRAL PACKAGE
----------------------

Number of atoms                             ...     20
Number of basis functions                   ...    120
Number of shells                            ...     70
Maximum angular momentum                    ...      2
Integral batch strategy                     ... SHARK/LIBINT Hybrid
RI-J (if used) integral strategy            ... SPLIT-RIJ (Revised 2003 algorithm where possible)
Printlevel                                  ...      1
Contraction scheme used                     ... SEGMENTED contraction
Prescreening option                         ... SCHWARTZ
   Thresh                                   ... 3.000e-16
   Tcut                                     ... 3.000e-16
   Tpresel                                  ... 3.000e-16 
Coulomb Range Separation                    ... NOT USED
Exchange Range Separation                   ... NOT USED
Multipole approximations                    ... NOT USED
Finite Nucleus Model                        ... NOT USED
CABS basis                                  ... NOT available
Auxiliary Coulomb fitting basis             ... AVAILABLE
   # of basis functions in Aux-J            ...    420
   # of shells in Aux-J                     ...    160
   Maximum angular momentum in Aux-J        ...      4
Auxiliary J/K fitting basis                 ... NOT available
Auxiliary Correlation fitting basis         ... NOT available
Auxiliary 'external' fitting basis          ... NOT available

Checking pre-screening integrals            ... done (  0.0 sec) Dimension = 70
   => SHARK Basis and OBASIS are compatible. Storing Pre-screening
Shell pair information
Shell pair cut-off parameter TPreSel        ...   3.0e-16
Total number of shell pairs                 ...      2485
Shell pairs after pre-screening             ...      2328
Total number of primitive shell pairs       ...     11485
Primitive shell pairs kept                  ...      7356
          la=0 lb=0:   1167 shell pairs
          la=1 lb=0:    708 shell pairs
          la=1 lb=1:    116 shell pairs
          la=2 lb=0:    247 shell pairs
          la=2 lb=1:     75 shell pairs
          la=2 lb=2:     15 shell pairs

Checking whether 4 symmetric matrices of dimension 120 fit in memory
:Max Core in MB      =   4096.00
 MB in use           =      6.46
 MB left             =   4089.54
 MB needed           =      0.22
 Data fit in memory  = YES
Calculating RI/J V-Matrix + Cholesky decomp.... done (  0.0 sec)
Calculating Nuclear repulsion               ... done (  0.0 sec) ENN=    435.971082266563 Eh

Diagonalization of the overlap matrix:
Smallest eigenvalue                        ... 4.509e-03
Time for diagonalization                   ...    0.025 sec
Threshold for overlap eigenvalues          ... 1.000e-07
Number of eigenvalues below threshold      ... 0
Time for construction of square roots      ...    0.002 sec
Total time needed                          ...    0.029 sec

-------------------
DFT GRID GENERATION
-------------------

General Integration Accuracy     IntAcc      ... 4.959
Radial Grid Type                 RadialGrid  ... OptM3 with GC (2021)
Angular Grid (max. ang.)         AngularGrid ... 6 (Lebedev-590)
Angular grid pruning method      GridPruning ... 4 (adaptive)
Weight generation scheme         WeightScheme... mBecke (2022)
Basis function cutoff            BFCut       ... 3.0000e-16
Integration weight cutoff        WCut        ... 1.0000e-14
Partially contracted basis set               ... off
Rotationally invariant grid construction     ... off
Angular grids for H and He will be reduced by one unit

Total number of grid points                  ...   210718
Total number of batches                      ...     3302
Average number of points per batch           ...       63
Average number of grid points per atom       ...    10536

--------------------
COSX GRID GENERATION
--------------------

GRIDX 1
-------
General Integration Accuracy     IntAcc      ... 4.020
Radial Grid Type                 RadialGrid  ... OptM3 with GC (2021)
Angular Grid (max. ang.)         AngularGrid ... 2 (Lebedev-110)
Angular grid pruning method      GridPruning ... 4 (adaptive)
Weight generation scheme         WeightScheme... mBecke (2022)
Basis function cutoff            BFCut       ... 3.0000e-16
Integration weight cutoff        WCut        ... 1.0000e-14
Partially contracted basis set               ... on
Rotationally invariant grid construction     ... off
Angular grids for H and He will be reduced by one unit

Total number of grid points                  ...    21102
Total number of batches                      ...      178
Average number of points per batch           ...      118
Average number of grid points per atom       ...     1055
UseSFitting                                  ... on

GRIDX 2
-------
General Integration Accuracy     IntAcc      ... 4.338
Radial Grid Type                 RadialGrid  ... OptM3 with GC (2021)
Angular Grid (max. ang.)         AngularGrid ... 3 (Lebedev-194)
Angular grid pruning method      GridPruning ... 4 (adaptive)
Weight generation scheme         WeightScheme... mBecke (2022)
Basis function cutoff            BFCut       ... 3.0000e-16
Integration weight cutoff        WCut        ... 1.0000e-14
Partially contracted basis set               ... on
Rotationally invariant grid construction     ... off
Angular grids for H and He will be reduced by one unit

Total number of grid points                  ...    48386
Total number of batches                      ...      388
Average number of points per batch           ...      124
Average number of grid points per atom       ...     2419
UseSFitting                                  ... on

GRIDX 3
-------
General Integration Accuracy     IntAcc      ... 4.871
Radial Grid Type                 RadialGrid  ... OptM3 with GC (2021)
Angular Grid (max. ang.)         AngularGrid ... 4 (Lebedev-302)
Angular grid pruning method      GridPruning ... 4 (adaptive)
Weight generation scheme         WeightScheme... mBecke (2022)
Basis function cutoff            BFCut       ... 3.0000e-16
Integration weight cutoff        WCut        ... 1.0000e-14
Partially contracted basis set               ... on
Rotationally invariant grid construction     ... off
Angular grids for H and He will be reduced by one unit

Total number of grid points                  ...    96677
Total number of batches                      ...      765
Average number of points per batch           ...      126
Average number of grid points per atom       ...     4834
UseSFitting                                  ... on
Grids setup in   7.3 sec
Initializing property integral containers    ... done (  0.0 sec)

SHARK setup successfully completed in   7.7 seconds

Maximum memory used throughout the entire STARTUP-calculation: 40.1 MB


           ************************************************************
           *        Program running with 24 parallel MPI-processes    *
           *              working on a common directory               *
           ************************************************************
-------------------------------------------------------------------------------
                                 ORCA GUESS
                   Start orbitals & Density for SCF / CASSCF
-------------------------------------------------------------------------------

------------
SCF SETTINGS
------------
Hamiltonian:
 Density Functional     Method          .... DFT(GTOs)
 Exchange Functional    Exchange        .... PBE
   PBE kappa parameter   XKappa         ....  1.024500
   PBE mue parameter    XMuePBE         ....  0.123457
 Correlation Functional Correlation     .... PBE
   PBE beta parameter  CBetaPBE         ....  0.030000
 LDA part of GGA corr.  LDAOpt          .... PW91-LDA
 Gradients option       PostSCFGGA      .... off
 Hybrid DFT is turned on
   Fraction HF Exchange ScalHFX         ....  0.420000
   Scaling of DF-GGA-X  ScalDFX         ....  0.580000
   Scaling of DF-GGA-C  ScalDFC         ....  1.000000
   Scaling of DF-LDA-C  ScalLDAC        ....  1.000000
   Perturbative correction              ....  0.000000
 RI-approximation to the Coulomb term is turned on
   Number of AuxJ basis functions       .... 420
   RIJ-COSX (HFX calculated with COS-X)).... on


General Settings:
 Integral files         IntName         .... run
 Hartree-Fock type      HFTyp           .... RHF
 Total Charge           Charge          ....    0
 Multiplicity           Mult            ....    1
 Number of Electrons    NEL             ....   80
 Basis Dimension        Dim             ....  120
 Nuclear Repulsion      ENuc            ....    435.9710822666 Eh

Convergence Acceleration:
 AO-DIIS                CNVDIIS         .... on
   Start iteration      DIISMaxIt       ....    12
   Startup error        DIISStart       ....  0.200000
   # of expansion vecs  DIISMaxEq       ....     5
   Bias factor          DIISBfac        ....   1.050
   Max. coefficient     DIISMaxC        ....  10.000
 MO-DIIS                CNVKDIIS        .... off
 Trust-Rad. Augm. Hess. CNVTRAH         .... auto
   Auto Start mean grad. ratio tolernc. ....  1.125000
   Auto Start start iteration           ....    50
   Auto Start num. interpolation iter.  ....    10
   Max. Number of Micro iterations      ....    24
   Max. Number of Macro iterations      .... Maxiter - #DIIS iter
   Number of Davidson start vectors     ....     2
   Converg. threshold    (grad. norm)   ....   1.000e-09
   Grad. Scal. Fac. for Micro threshold ....   0.100
   Minimum threshold for Micro iter.    ....   1.000e-02
   NR start threshold (gradient norm)   ....   1.000e-04
   Initial trust radius                 ....   0.400
   Minimum AH scaling param. (alpha)    ....   1.000
   Maximum AH scaling param. (alpha)    .... 1000.000
   Quad. conv. algorithm                .... NR
   White noise on init. David. guess    .... on
   Maximum white noise                  ....   0.010
   Pseudo random numbers                .... off
   Inactive MOs                         .... canonical
   Orbital update algorithm             .... Taylor
   Preconditioner                       .... Diag
   Full preconditioner red. dimension   ....   250
 SOSCF                 CNVSOSCF           .... on
   Start iteration     SOSCFMaxIt         ....   150
   Startup grad/error  SOSCFStart         ....  0.003300
   Hessian update      SOSCFHessUp        .... L-BFGS
   Autom. constraints  SOSCFAutoConstrain .... off
 Level Shifting         CNVShift        .... on
   Level shift para.    LevelShift      ....    0.2500
   Turn off err/grad.   ShiftErr        ....    0.0010
 Zerner damping         CNVZerner       .... off
 Static damping         CNVDamp         .... on
   Fraction old density DampFac         ....    0.7000
   Max. Damping (<1)    DampMax         ....    0.9800
   Min. Damping (>=0)   DampMin         ....    0.0000
   Turn off err/grad.   DampErr         ....    0.1000

SCF Procedure:
 Maximum # iterations   MaxIter         ....   125
 SCF integral mode      SCFMode         .... Direct
   Integral package                     .... SHARK and LIBINT hybrid scheme
 Reset frequency        DirectResetFreq ....    20
 Integral Threshold     Thresh          ....  3.000e-16 Eh
 Primitive CutOff       TCut            ....  3.000e-16 Eh

Convergence Tolerance:
 Convergence Check Mode ConvCheckMode   .... All-Criteria
 Convergence forced     ConvForced      .... 0
 Energy Change          TolE            ....  1.000e-14 Eh
 Max Density Change     TolMaxP         ....  1.000e-14
 RMS Density Change     TolRMSP         ....  1.000e-14
 Orbital Gradient       TolG            ....  1.000e-09
 Orbital Rotation angle TolX            ....  1.000e-09
 DIIS Error             TolErr          ....  1.000e-14

--------------------------------
INITIAL GUESS: MINIMAL BASIS EHT
--------------------------------
The minimal basis has 60 functions
EHT matrix was diagonalized
Basis set overlap was calculated now projecting the orbitals
Using GuessMode=FMatrix for the initial guess
C*T matrix was formed
Effective Fockian was calculated
Effective Fockian was diagonalized
Initial density was built
                      ------------------
                      INITIAL GUESS DONE
                      ------------------
             **** ENERGY FILE WAS UPDATED (run.en.tmp) ****
Finished Guess after   0.7 sec
Maximum memory used throughout the entire GUESS-calculation: 8.8 MB


           ************************************************************
           *        Program running with 24 parallel MPI-processes    *
           *              working on a common directory               *
           ************************************************************

-------------------------------------------------------------------------------------------
                                      ORCA LEAN-SCF
                              memory conserving SCF solver
-------------------------------------------------------------------------------------------

----------------------------------------D-I-I-S--------------------------------------------
Iteration    Energy (Eh)           Delta-E    RMSDP     MaxDP     DIISErr   Damp  Time(sec)
-------------------------------------------------------------------------------------------
               ***  Starting incremental Fock matrix formation  ***
    1    -1217.6882843340783893     0.00e+00  3.75e-02  9.53e-02  3.50e-01  0.700   1.4
    2    -1218.2500267089553745    -5.62e-01  3.15e-02  7.58e-02  2.50e-01  0.700   0.8
                               ***Turning on AO-DIIS***
    3    -1218.6412277336210082    -3.91e-01  2.23e-02  5.24e-02  1.74e-01  0.700   0.8
    4    -1218.9070555757730290    -2.66e-01  1.59e-02  3.64e-02  1.21e-01  0.700   0.8
    5    -1219.0900692049829104    -1.83e-01  1.13e-02  2.53e-02  8.42e-02  0.700   0.8
    6    -1219.2170022967959540    -1.27e-01  2.69e-02  5.90e-02  5.87e-02  0.000   0.8
                              *** Initializing SOSCF ***
---------------------------------------S-O-S-C-F--------------------------------------
Iteration    Energy (Eh)           Delta-E    RMSDP     MaxDP     MaxGrad    Time(sec)
--------------------------------------------------------------------------------------
    7    -1219.5098118649091248    -2.93e-01  5.81e-04  1.58e-03  9.65e-04     0.8
               *** Restarting incremental Fock matrix formation ***
    8    -1219.5098357726219547    -2.39e-05  4.11e-04  1.71e-03  2.29e-04     1.3
    9    -1219.5098408678616124    -5.10e-06  1.02e-04  3.84e-04  4.37e-05     1.2
   10    -1219.5098410864247853    -2.19e-07  5.90e-06  3.69e-05  2.40e-06     1.2
   11    -1219.5098410875111767    -1.09e-09  1.85e-06  1.58e-05  1.20e-06     1.1
   12    -1219.5098410876821617    -1.71e-10  3.39e-07  9.49e-07  1.48e-07     1.1
   13    -1219.5098410876753405     6.82e-12  7.86e-08  3.56e-07  5.44e-08     1.0
   14    -1219.5098410876769321    -1.59e-12  1.42e-08  7.48e-08  6.48e-09     1.0
   15    -1219.5098410876767048     2.27e-13  2.42e-09  4.45e-09  1.96e-09     0.9
   16    -1219.5098410876762500     4.55e-13  4.43e-10  7.66e-10  1.02e-09     0.8
   17    -1219.5098410876762500     0.00e+00  0.00e+00  0.00e+00  9.91e-10     0.7
                          ***Energy convergence achieved***
                           ***RMSP convergence achieved***
                           ***MAXP convergence achieved***
                       ***Gradient convergence achieved***
                    ***Orbital Rotation convergence achieved***

               *****************************************************
               *                     SUCCESS                       *
               *           SCF CONVERGED AFTER  17 CYCLES          *
               *****************************************************

Recomputing exchange energy using gridx3       ... done (    1.762 sec)
Old exchange energy                            :    -40.285342364 Eh
New exchange energy                            :    -40.285339193 Eh
Exchange energy change after final integration :      0.000003171 Eh
Total energy after final integration           :  -1219.509837917 Eh
             **** ENERGY FILE WAS UPDATED (run.en.tmp) ****

----------------
TOTAL SCF ENERGY
----------------

Total Energy       :      -1219.50983791673002 Eh          -33184.54976 eV

Components:
Nuclear Repulsion  :        435.97108226656343 Eh           11863.37627 eV
Electronic Energy  :      -1655.48092335423962 Eh          -45047.92612 eV
One Electron Energy:      -2562.03564069023878 Eh          -69716.53410 eV
Two Electron Energy:        906.55471733599927 Eh           24668.60799 eV

Virial components:
Potential Energy   :      -2436.20156205514377 Eh          -66292.41474 eV
Kinetic Energy     :       1216.69172413841352 Eh           33107.86499 eV
Virial Ratio       :          2.00231621019722

DFT components:
N(Alpha)           :       39.999999939265 electrons
N(Beta)            :       39.999999939265 electrons
N(Total)           :       79.999999878530 electrons
E(X)               :      -53.585392302720 Eh       
E(C)               :       -3.713074237531 Eh       
E(XC)              :      -57.298466540251 Eh       

---------------
SCF CONVERGENCE
---------------

  Last Energy change         ...    0.0000e+00  Tolerance :   1.0000e-14
  Last MAX-Density change    ...    0.0000e+00  Tolerance :   1.0000e-14
  Last RMS-Density change    ...    0.0000e+00  Tolerance :   1.0000e-14
  Last DIIS Error            ...    9.6516e-04  Tolerance :   1.0000e-14
  Last Orbital Gradient      ...    9.9066e-10  Tolerance :   1.0000e-09
  Last Orbital Rotation      ...    0.0000e+00  Tolerance :   1.0000e-09


----------------
ORBITAL ENERGIES
----------------

  NO   OCC          E(Eh)            E(eV) 
   0   2.0000     -56.658871     -1541.7663 
   1   2.0000     -56.632057     -1541.0366 
   2   2.0000     -56.631985     -1541.0347 
   3   2.0000     -56.622251     -1540.7698 
   4   2.0000     -56.609670     -1540.4274 
   5   2.0000      -4.392959      -119.5385 
   6   2.0000      -4.372988      -118.9950 
   7   2.0000      -4.372822      -118.9905 
   8   2.0000      -4.362973      -118.7225 
   9   2.0000      -4.352600      -118.4403 
  10   2.0000      -2.883459       -78.4629 
  11   2.0000      -2.882625       -78.4402 
  12   2.0000      -2.879014       -78.3420 
  13   2.0000      -2.863956       -77.9322 
  14   2.0000      -2.863775       -77.9273 
  15   2.0000      -2.862155       -77.8832 
  16   2.0000      -2.861838       -77.8746 
  17   2.0000      -2.857922       -77.7680 
  18   2.0000      -2.857378       -77.7532 
  19   2.0000      -2.853957       -77.6601 
  20   2.0000      -2.851920       -77.6047 
  21   2.0000      -2.847944       -77.4965 
  22   2.0000      -2.843952       -77.3879 
  23   2.0000      -2.841110       -77.3105 
  24   2.0000      -2.837508       -77.2125 
  25   2.0000      -0.622560       -16.9407 
  26   2.0000      -0.571829       -15.5603 
  27   2.0000      -0.536010       -14.5856 
  28   2.0000      -0.494277       -13.4500 
  29   2.0000      -0.445604       -12.1255 
  30   2.0000      -0.436642       -11.8816 
  31   2.0000      -0.412881       -11.2351 
  32   2.0000      -0.402033       -10.9399 
  33   2.0000      -0.388495       -10.5715 
  34   2.0000      -0.384665       -10.4673 
  35   2.0000      -0.375878       -10.2282 
  36   2.0000      -0.367437        -9.9985 
  37   2.0000      -0.358929        -9.7670 
  38   2.0000      -0.355980        -9.6867 
  39   2.0000      -0.348806        -9.4915 
  40   0.0000      -0.029902        -0.8137 
  41   0.0000      -0.015249        -0.4149 
  42   0.0000      -0.012172        -0.3312 
  43   0.0000       0.004293         0.1168 
  44   0.0000       0.021246         0.5781 
  45   0.0000       0.023105         0.6287 
  46   0.0000       0.028797         0.7836 
  47   0.0000       0.046132         1.2553 
  48   0.0000       0.047562         1.2942 
  49   0.0000       0.054877         1.4933 
  50   0.0000       0.064057         1.7431 
*Only the first 10 virtual orbitals were printed.
-------
TIMINGS
-------

Total SCF time: 0 days 0 hours 0 min 19 sec 

Total time                  ....      19.531 sec
Sum of individual times     ....      19.039 sec  ( 97.5%)

SCF preparation             ....       0.754 sec  (  3.9%)
Fock matrix formation       ....      17.735 sec  ( 90.8%)
  Startup                   ....       0.011 sec  (  0.1% of F)
  Split-RI-J                ....       0.852 sec  (  4.8% of F)
  Chain of spheres X        ....      12.751 sec  ( 71.9% of F)
  XC integration            ....       4.125 sec  ( 23.3% of F)
    XC Preparation          ....       0.000 sec  (  0.0% of XC)
    Basis function eval.    ....       1.203 sec  ( 29.2% of XC)
    Density eval.           ....       0.715 sec  ( 17.3% of XC)
    XC-Functional eval.     ....       0.199 sec  (  4.8% of XC)
    XC-Potential eval.      ....       0.703 sec  ( 17.0% of XC)
Diagonalization             ....       0.000 sec  (  0.0%)
Density matrix formation    ....       0.076 sec  (  0.4%)
Total Energy calculation    ....       0.045 sec  (  0.2%)
Population analysis         ....       0.000 sec  (  0.0%)
Orbital Transformation      ....       0.034 sec  (  0.2%)
Orbital Orthonormalization  ....       0.000 sec  (  0.0%)
DIIS solution               ....       0.198 sec  (  1.0%)
SOSCF solution              ....       0.198 sec  (  1.0%)
Finished LeanSCF after  19.6 sec

Maximum memory used throughout the entire LEANSCF-calculation: 12.7 MB


           ************************************************************
           *        Program running with 24 parallel MPI-processes    *
           *              working on a common directory               *
           ************************************************************

------------------------------------------------------------------------------
                         ORCA PROPERTY INTEGRAL CALCULATIONS
------------------------------------------------------------------------------

GBWName                                   ... run.gbw
Number of atoms                           ...     20
Number of basis functions                 ...    120
Max core memory                           ...   4096 MB

Dipole integrals                          ... YES
Quadrupole integrals                      ...  NO
Linear momentum integrals                 ...  NO
Angular momentum integrals                ...  NO
Higher moments length integrals           ...  NO
Higher moments velocity integrals         ...  NO
Kinetic energy integrals                  ...  NO
GIAO right hand sides                     ...  NO
GIAO dipole derivative integrals          ...  NO
SOC integrals                             ...  NO
EPR diamagnetic integrals (GIAO)          ...  NO
EPR gauge integrals                       ...  NO
Field gradient integrals                  ...  NO (   0 nuclei)
Spin-dipole/Fermi contact integrals       ...  NO (   0 nuclei)
Contact density integrals                 ...  NO (   0 nuclei)
Nucleus-orbit integrals                   ...  NO (   0 nuclei)
Geometric perturbations                   ...  NO (  20 nuclei)

Choice of electric origin   ... Center of mass
Position of electric origin ... (  0.5832, -3.0061,  5.3735) 
Choice of magnetic origin   ... GIAO
Position of magnetic origin ... (  0.0000,  0.0000,  0.0000) 

Calculating integrals                     ... Electric Dipole (Length)     done (  0.0 sec)

Property integrals calculated in   0.0 sec

Maximum memory used throughout the entire PROPINT-calculation: 9.0 MB


-------------------------------------------------------------------------------
                          DFT DISPERSION CORRECTION                            
                                                                               
                              DFTD3 V3.1  Rev 1                                
                          USING Becke-Johnson damping                          
-------------------------------------------------------------------------------
The PBEh-3c composite method is recognized
Using three-body term ABC
Active option DFTDOPT                   ...         4   

molecular C6(AA) [au] = 7716.618232 


            DFT-D V3
 parameters
 s6 scaling factor         :     1.0000 
 a1 scaling factor         :     0.4860 
 s8 scaling factor         :     0.0000 
 a2 scaling factor         :     4.5000 
 Damping factor alpha9(ATM):    16.0000 
 ad hoc parameters k1-k3   :    16.0000     1.3333    -4.0000 

 Edisp/kcal,au: -5.965444504213  -0.009506539924 
 E6   /kcal   :  -6.000021169 
 E8   /kcal   :  -0.000000000 
 E6(ABC)      :   0.034576665 
 % E8         :   0.000000000 
 % E6(ABC)    :  -0.579615901 

-------------------------   ----------------
Dispersion correction           -0.009506540
-------------------------   ----------------

------------------   -----------------
gCP correction             0.036721912
------------------   -----------------

-------------------------   --------------------
FINAL SINGLE POINT ENERGY     -1219.482622544554
-------------------------   --------------------



           ************************************************************
           *        Program running with 24 parallel MPI-processes    *
           *              working on a common directory               *
           ************************************************************
------------------------------------------------------------------------------
                         ORCA SCF GRADIENT CALCULATION
------------------------------------------------------------------------------

Nuc. rep. gradient        (SHARK) ... done (  0.0 sec)
HCore & Overlap gradient  (SHARK) ... done (  0.1 sec)
Split-RIJ-J gradient      (SHARK) ... done (  0.4 sec)
done (  8.2 sec)
XC gradient                       ... done (  2.3 sec)
Dispersion correction             ... done (  0.1 sec)

-------------------
DISPERSION GRADIENT
-------------------

   1   Al  :   -0.000084569    0.000225857    0.000031788
   2   Al  :   -0.000010857    0.000074685   -0.000184873
   3   H   :   -0.000035641   -0.000037410   -0.000088818
   4   H   :   -0.000004764    0.000030837   -0.000092201
   5   H   :   -0.000073332    0.000061317   -0.000036292
   6   H   :   -0.000063580    0.000059644    0.000036437
   7   H   :    0.000002787    0.000079088    0.000065737
   8   H   :    0.000061565    0.000037994   -0.000073142
   9   Al  :   -0.000029745   -0.000184679   -0.000150825
  10   H   :   -0.000029115   -0.000043443   -0.000008259
  11   H   :   -0.000059329   -0.000082507   -0.000041502
  12   H   :    0.000006033    0.000099025    0.000004507
  13   Al  :    0.000111628   -0.000000028    0.000106691
  14   H   :    0.000001387    0.000000569    0.000093997
  15   H   :    0.000126564    0.000025915    0.000035500
  16   H   :    0.000047156   -0.000089268   -0.000068514
  17   Al  :    0.000010951   -0.000115472    0.000193111
  18   H   :    0.000024669   -0.000030156    0.000063655
  19   H   :    0.000044653   -0.000054971    0.000046662
  20   H   :   -0.000046462   -0.000056998    0.000066341

Difference to translation invariance:
           :    0.0000000000    0.0000000000   -0.0000000000

Difference to rotation invariance:
           :   -0.0000000000    0.0000000000    0.0000000000

Norm of the Dispersion gradient    ...    0.0006171872
RMS gradient                       ...    0.0000796785
MAX gradient                       ...    0.0002258569
gCP correction                   ... done

------------------
CARTESIAN GRADIENT
------------------

   1   Al  :    0.001172078   -0.001806106   -0.002116768
   2   Al  :    0.000654709    0.000197787    0.002430850
   3   H   :   -0.002796002   -0.000921848   -0.003195297
   4   H   :   -0.000681668    0.001793059   -0.003893932
   5   H   :   -0.004594632   -0.000373483    0.000284554
   6   H   :   -0.003831219    0.000947791    0.002279335
   7   H   :    0.001202143    0.000443887    0.003029819
   8   H   :    0.003825451   -0.000763574    0.003162725
   9   Al  :    0.002426632    0.002201239    0.001663597
  10   H   :   -0.004182742    0.000635522   -0.000014543
  11   H   :   -0.003560389   -0.002906853    0.000426922
  12   H   :    0.002672124    0.002997383   -0.001970294
  13   Al  :    0.000083277   -0.000872939   -0.003853259
  14   H   :   -0.001945181    0.002282318    0.003359400
  15   H   :    0.004621194    0.001333488   -0.000370151
  16   H   :    0.004201922   -0.001525579   -0.000842256
  17   Al  :   -0.000536766    0.000397730   -0.000892507
  18   H   :    0.003062661   -0.000327817    0.003235217
  19   H   :    0.002195331   -0.001849714   -0.002728174
  20   H   :   -0.003988923   -0.001882288    0.000004761

Difference to translation invariance:
           :    0.0000000000   -0.0000000000    0.0000000000

Difference to rotation invariance:
           :   -0.0000266361   -0.0000368227   -0.0000487858

Norm of the Cartesian gradient     ...    0.0184463465
RMS gradient                       ...    0.0023814131
MAX gradient                       ...    0.0046211942

-------
TIMINGS
-------

Total SCF gradient time     ....       11.105 sec

Densities                   ....       0.001 sec  (  0.0%)
One electron gradient       ....       0.072 sec  (  0.6%)
RI-J Coulomb gradient       ....       0.352 sec  (  3.2%)
COSX gradient               ....       8.191 sec  ( 73.8%)
XC gradient                 ....       2.335 sec  ( 21.0%)

Maximum memory used throughout the entire SCFGRAD-calculation: 28.7 MB
------------------------------------------------------------------------------
                         ORCA GEOMETRY RELAXATION STEP
------------------------------------------------------------------------------

Reading the OPT-File                    .... done
Getting information on internals        .... done
Copying old internal coords+grads       .... done
Making the new internal coordinates     .... (2022 redundants) done
Validating the new internal coordinates .... (2022 redundants) done
Calculating the B-matrix                .... done
Calculating the G,G- and P matrices     .... done
Transforming gradient to internals      .... done
Projecting the internal gradient        .... done
Number of atoms                         ....  20
Number of internal coordinates          .... 224
Current Energy                          .... -1219.482622545 Eh
Current gradient norm                   ....     0.018446347 Eh/bohr
Maximum allowed component of the step   ....  0.300
Current trust radius                    ....  0.300
Evaluating the initial hessian          ....  (Almloef) done
Projecting the Hessian                  .... done
Forming the augmented Hessian           .... done
Diagonalizing the augmented Hessian     .... done
Last element of RFO vector              ....  0.997160280
Lowest eigenvalues of augmented Hessian:
 -0.000880650  0.014171997  0.016605141  0.021866781  0.027215980
Length of the computed step             ....  0.075523004
The final length of the internal step   ....  0.075523004
Converting the step to Cartesian space:
 Initial RMS(Int)=    0.0050460930
Transforming coordinates:
 Iter   0:  RMS(Cart)=    0.0130740734 RMS(Int)=    0.0050441453
done
Storing new coordinates                 .... done

                                .--------------------.
          ----------------------|Geometry convergence|-------------------------
          Item                value                   Tolerance       Converged
          ---------------------------------------------------------------------
          RMS gradient        0.0011016193            0.0000080000      NO
          MAX gradient        0.0049539859            0.0000300000      NO
          RMS step            0.0050460930            0.0001000000      NO
          MAX step            0.0141725988            0.0002000000      NO
          -------------------------------------------------------------------------
          ........................................................
          Max(Bonds)      0.0067      Max(Angles)    0.48
          Max(Dihed)        0.81      Max(Improp)    0.00
          ---------------------------------------------------------------------

The optimization has not yet converged - more geometry cycles are needed


    ---------------------------------------------------------------------------
                         Redundant Internal Coordinates
                            (Angstroem and degrees)

        Definition                    Value    dE/dq     Step     New-Value
    ----------------------------------------------------------------------------
     1. B(Al  1,Al  0)                2.9111 -0.000178  0.0010    2.9121   
     2. B(H   2,Al  1)                1.7286  0.001967 -0.0044    1.7242   
     3. B(H   3,Al  1)                1.5829  0.004339 -0.0056    1.5773   
     4. B(H   4,Al  1)                1.7096  0.002157 -0.0048    1.7047   
     5. B(H   4,Al  0)                1.7388  0.001437 -0.0031    1.7358   
     6. B(H   5,Al  0)                1.5889  0.004558 -0.0060    1.5830   
     7. B(H   6,Al  0)                1.6820  0.001528 -0.0046    1.6774   
     8. B(H   7,Al  1)                1.5987  0.004954 -0.0067    1.5920   
     9. B(Al  8,H   2)                1.7263  0.001556 -0.0041    1.7222   
    10. B(Al  8,Al  1)                2.9985  0.000690 -0.0011    2.9974   
    11. B(H   9,Al  8)                1.7152  0.000688 -0.0018    1.7134   
    12. B(H  10,Al  8)                1.5861  0.004615 -0.0060    1.5801   
    13. B(H  11,Al  0)                1.5950  0.004470 -0.0060    1.5891   
    14. B(Al 12,H   6)                1.7791  0.000655 -0.0038    1.7753   
    15. B(Al 12,Al  0)                3.3201  0.001166 -0.0054    3.3147   
    16. B(Al 12,H   9)                1.6988  0.001998 -0.0043    1.6944   
    17. B(Al 12,Al  8)                3.0604  0.000044 -0.0005    3.0599   
    18. B(H  13,Al 12)                1.7309  0.003071 -0.0062    1.7247   
    19. B(H  14,Al 12)                1.5762  0.004812 -0.0060    1.5702   
    20. B(H  15,Al  8)                1.5869  0.004507 -0.0059    1.5811   
    21. B(Al 16,H  13)                1.7596  0.001424 -0.0034    1.7562   
    22. B(Al 16,Al 12)                2.6524  0.001288 -0.0028    2.6496   
    23. B(H  17,Al 16)                1.5877  0.004467 -0.0058    1.5818   
    24. B(H  18,Al 16)                1.6971  0.002422 -0.0049    1.6922   
    25. B(H  18,Al 12)                1.8663  0.001331 -0.0038    1.8625   
    26. B(H  19,Al 16)                1.5893  0.004401 -0.0058    1.5835   
    27. A(H   5,Al  0,H  11)          127.41 -0.000117    0.02    127.43   
    28. A(H   4,Al  0,H  11)          103.81  0.000531   -0.03    103.79   
    29. A(Al  1,Al  0,H  11)           79.12 -0.000139   -0.02     79.10   
    30. A(H   4,Al  0,H   6)           99.35  0.000671   -0.20     99.15   
    31. A(H   6,Al  0,H  11)          109.91 -0.000444    0.04    109.95   
    32. A(Al  1,Al  0,H   5)          135.52  0.000358   -0.14    135.38   
    33. A(Al  1,Al  0,H   4)           32.11  0.000981   -0.25     31.85   
    34. A(H   5,Al  0,Al 12)          117.37  0.000514   -0.08    117.29   
    35. A(H   5,Al  0,H   6)          108.76  0.000229   -0.02    108.74   
    36. A(Al  1,Al  0,H   6)           88.89  0.000034    0.16     89.05   
    37. A(Al  1,Al  0,Al 12)           72.58 -0.000407    0.30     72.88   
    38. A(H   4,Al  0,H   5)          103.55 -0.000626    0.14    103.69   
    39. A(H  11,Al  0,Al 12)          109.84 -0.000419    0.01    109.85   
    40. A(H   4,Al  0,Al 12)           83.08  0.000262   -0.06     83.02   
    41. A(H   6,Al  0,Al 12)           16.89  0.000474   -0.15     16.73   
    42. A(Al  0,Al  1,H   2)          117.71  0.000997   -0.20    117.52   
    43. A(Al  0,Al  1,H   7)           78.87 -0.000551    0.15     79.02   
    44. A(H   3,Al  1,H   4)          111.21 -0.000337   -0.01    111.20   
    45. A(H   2,Al  1,H   3)          106.83 -0.000785    0.10    106.93   
    46. A(H   2,Al  1,H   7)          104.18  0.000018   -0.02    104.17   
    47. A(H   4,Al  1,H   7)          106.13  0.000008    0.03    106.16   
    48. A(Al  0,Al  1,H   4)           32.72  0.000857   -0.22     32.50   
    49. A(H   3,Al  1,Al  8)          134.47 -0.000149   -0.02    134.44   
    50. A(H   2,Al  1,H   4)           93.30  0.000188    0.05     93.34   
    51. A(Al  0,Al  1,H   3)          118.47 -0.000065    0.02    118.49   
    52. A(H   4,Al  1,Al  8)           90.73  0.000335   -0.11     90.62   
    53. A(Al  0,Al  1,Al  8)          101.72  0.000476   -0.16    101.56   
    54. A(H   7,Al  1,Al  8)           76.47 -0.000703    0.25     76.71   
    55. A(H   2,Al  1,Al  8)           29.76  0.000694   -0.21     29.56   
    56. A(H   3,Al  1,H   7)          129.10  0.000738   -0.10    129.00   
    57. A(Al  1,H   2,Al  8)          120.43 -0.001460    0.42    120.85   
    58. A(Al  0,H   4,Al  1)          115.17 -0.001838    0.48    115.64   
    59. A(Al  0,H   6,Al 12)          147.17 -0.001002    0.31    147.48   
    60. A(H   9,Al  8,H  15)          109.32  0.000719   -0.19    109.13   
    61. A(H   2,Al  8,H  15)          109.53  0.000186   -0.04    109.49   
    62. A(Al  1,Al  8,H  15)           97.19  0.000121   -0.07     97.12   
    63. A(H   2,Al  8,H  10)          106.02 -0.000331    0.04    106.06   
    64. A(Al  1,Al  8,H  10)          130.24  0.000186   -0.04    130.19   
    65. A(H   2,Al  8,H   9)           91.77  0.000000   -0.01     91.76   
    66. A(Al  1,Al  8,H   9)           69.92 -0.000501    0.17     70.09   
    67. A(Al  1,Al  8,H   2)           29.81  0.000767   -0.21     29.59   
    68. A(H   9,Al  8,H  10)          105.29 -0.000292    0.12    105.41   
    69. A(H  10,Al  8,Al 12)          122.36  0.000327   -0.12    122.23   
    70. A(H   9,Al  8,Al 12)           26.17  0.000923   -0.21     25.96   
    71. A(H   2,Al  8,Al 12)          103.69  0.000475    0.00    103.70   
    72. A(Al  1,Al  8,Al 12)           75.34 -0.000371    0.26     75.59   
    73. A(H  10,Al  8,H  15)          128.65 -0.000226    0.06    128.71   
    74. A(Al 12,Al  8,H  15)           83.32 -0.000204    0.03     83.35   
[...]
 22:    435.36   0.000633    3.20  0.000454  (-0.002535  0.017926  0.011235)
 23:    459.33   0.000845    4.27  0.000574  ( 0.012334  0.010658  0.017566)
 24:    497.81   0.010693   54.04  0.006703  (-0.017943  0.018866 -0.077621)
 25:    518.12   0.016013   80.92  0.009645  (-0.012108 -0.010618  0.096877)
 26:    566.95   0.010834   54.75  0.005963  (-0.032592 -0.033774 -0.061323)
 27:    592.97   0.016910   85.45  0.008899  ( 0.049696 -0.040201  0.069378)
 28:    603.41   0.046598  235.49  0.024099  ( 0.037046 -0.150285 -0.011870)
 29:    693.03   0.082341  416.12  0.037077  (-0.029078  0.145496 -0.122729)
 30:    712.64   0.100479  507.78  0.044000  (-0.022436  0.113167  0.175185)
 31:    715.26   0.133180  673.04  0.058106  ( 0.038529 -0.236151  0.029222)
 32:    725.88   0.075218  380.12  0.032337  (-0.091644 -0.020214  0.153395)
 33:    740.17   0.020508  103.64  0.008647  ( 0.040882  0.054138 -0.063595)
 34:    751.04   0.011604   58.64  0.004821  (-0.037151 -0.025543  0.052809)
 35:    788.02   0.096616  488.26  0.038261  ( 0.014513 -0.011669  0.194715)
 36:    796.75   0.076499  386.59  0.029962  ( 0.061311 -0.115622  0.113291)
 37:    813.50   0.037019  187.08  0.014201  ( 0.020614  0.115567  0.020494)
 38:    850.01   0.016938   85.60  0.006218  ( 0.005525  0.042203  0.066383)
 39:    897.31   0.048312  244.15  0.016802  (-0.112266 -0.057823 -0.029236)
 40:    995.96   0.035772  180.78  0.011208  ( 0.081695 -0.048477  0.046736)
 41:   1117.11   0.011648   58.86  0.003254  (-0.008300 -0.020500 -0.052580)
 42:   1139.12   0.046406  234.52  0.012713  ( 0.100741  0.013279  0.048867)
 43:   1148.05   0.079992  404.25  0.021744  (-0.022004  0.145057 -0.014764)
 44:   1445.15   0.045219  228.52  0.009765  (-0.036642  0.091515  0.006850)
 45:   1539.12   0.175482  886.81  0.035580  (-0.007770 -0.109031  0.153726)
 46:   1667.94   0.083285  420.89  0.015582  (-0.020441 -0.047289  0.113701)
 47:   1794.67   0.056392  284.98  0.009806  (-0.011941  0.093943  0.028943)
 48:   1882.84   0.131126  662.66  0.021733  (-0.023222 -0.060962  0.132202)
 49:   1925.16   0.337895  1707.59  0.054772  (-0.053134  0.216798  0.070339)
 50:   1990.71   0.001408    7.11  0.000221  ( 0.006711 -0.012853  0.003225)
 51:   1999.73   0.054935  277.62  0.008573  (-0.029638  0.016016 -0.086243)
 52:   2007.97   0.004139   20.92  0.000643  (-0.003026 -0.024642  0.005191)
 53:   2014.21   0.035168  177.72  0.005449  (-0.069501 -0.021055  0.013226)
 54:   2018.38   0.011816   59.71  0.001827  ( 0.012271  0.031899 -0.025666)
 55:   2026.23   0.022548  113.95  0.003473  ( 0.044297  0.009502  0.037685)
 56:   2031.02   0.015675   79.21  0.002408  ( 0.001330 -0.021820  0.043938)
 57:   2035.48   0.049005  247.65  0.007513  (-0.086643 -0.002397 -0.000589)
 58:   2045.30   0.095625  483.25  0.014590  ( 0.099251  0.014178  0.067367)
 59:   2071.69   0.066206  334.58  0.009973  (-0.036581  0.042112 -0.082832)

* The epsilon (eps) is given for a Dirac delta lineshape.
** The dipole moment derivative (T) already includes vibrational overlap.

--------------
RAMAN SPECTRUM  
--------------

 Mode    freq (cm**-1)   Activity   Depolarization
-------------------------------------------------------------------
   6:        38.06      0.464633      0.567235
   7:        44.99      1.119169      0.740203
   8:        54.61      0.961519      0.539085
   9:        92.20      0.302218      0.719050
  10:       108.59      1.076890      0.716519
  11:       130.78      1.121780      0.634787
  12:       181.33      0.761586      0.244674
  13:       186.27      1.076114      0.743897
  14:       214.16      3.397526      0.336903
  15:       234.45      4.884574      0.266875
  16:       289.01      2.061299      0.733367
  17:       295.39      1.943342      0.300174
  18:       356.66      6.924970      0.691978
  19:       366.96      4.912411      0.662314
  20:       391.54      6.493549      0.139072
  21:       405.13     12.101277      0.740778
  22:       435.36     12.492725      0.606572
  23:       459.33      4.280186      0.662643
  24:       497.81      6.583637      0.246016
  25:       518.12      3.602637      0.748104
  26:       566.95      4.264792      0.587134
  27:       592.97      0.930755      0.635280
  28:       603.41      4.115868      0.735000
  29:       693.03      6.420708      0.724338
  30:       712.64      4.815718      0.736708
  31:       715.26     12.184028      0.721343
  32:       725.88     16.662679      0.703114
  33:       740.17     10.780617      0.718389
  34:       751.04      9.196265      0.728109
  35:       788.02      3.318657      0.747310
  36:       796.75      3.474031      0.508038
  37:       813.50      6.365681      0.317808
  38:       850.01     13.022046      0.059395
  39:       897.31      4.336273      0.736675
  40:       995.96      8.990858      0.054501
  41:      1117.11     13.422300      0.348450
  42:      1139.12     48.550531      0.025337
  43:      1148.05      3.742612      0.274303
  44:      1445.15     15.026413      0.199556
  45:      1539.12     28.312672      0.069197
  46:      1667.94     50.467020      0.090010
  47:      1794.67      9.000199      0.216489
  48:      1882.84     18.303988      0.743453
  49:      1925.16      7.482024      0.678893
  50:      1990.71    176.122471      0.005984
  51:      1999.73     43.832002      0.437115
  52:      2007.97    274.516104      0.039243
  53:      2014.21     57.798161      0.395430
  54:      2018.38     19.666919      0.367390
  55:      2026.23     47.985718      0.742030
  56:      2031.02    167.419129      0.179643
  57:      2035.48     58.558617      0.399687
  58:      2045.30    193.424202      0.042757
  59:      2071.69     26.298117      0.404674

The first frequency considered to be a vibration is 6
The total number of vibrations considered is 54


--------------------------
THERMOCHEMISTRY AT 298.15K
--------------------------

Temperature         ...   298.15 K
Pressure            ...     1.00 atm
Total Mass          ...   150.03 AMU
Quasi RRHO          ...     True
Cut-Off Frequency   ...     1.00 cm^-1

Throughout the following assumptions are being made:
  (1) The electronic state is orbitally nondegenerate
  (2) There are no thermally accessible electronically excited states
  (3) Hindered rotations indicated by low frequency modes are not
      treated as such but are treated as vibrations and this may
      cause some error
  (4) All equations used are the standard statistical mechanics
      equations for an ideal gas
  (5) All vibrations are strictly harmonic

freq.      38.06  E(vib)   ...       0.54 
freq.      44.99  E(vib)   ...       0.53 
freq.      54.61  E(vib)   ...       0.52 
freq.      92.20  E(vib)   ...       0.47 
freq.     108.59  E(vib)   ...       0.45 
freq.     130.78  E(vib)   ...       0.43 
freq.     181.33  E(vib)   ...       0.37 
freq.     186.27  E(vib)   ...       0.37 
freq.     214.16  E(vib)   ...       0.34 
freq.     234.45  E(vib)   ...       0.32 
freq.     289.01  E(vib)   ...       0.27 
freq.     295.39  E(vib)   ...       0.27 
freq.     356.66  E(vib)   ...       0.22 
freq.     366.96  E(vib)   ...       0.22 
freq.     391.54  E(vib)   ...       0.20 
freq.     405.13  E(vib)   ...       0.19 
freq.     435.36  E(vib)   ...       0.17 
freq.     459.33  E(vib)   ...       0.16 
freq.     497.81  E(vib)   ...       0.14 
freq.     518.12  E(vib)   ...       0.13 
freq.     566.95  E(vib)   ...       0.11 
freq.     592.97  E(vib)   ...       0.10 
freq.     603.41  E(vib)   ...       0.10 
freq.     693.03  E(vib)   ...       0.07 
freq.     712.64  E(vib)   ...       0.07 
freq.     715.26  E(vib)   ...       0.07 
freq.     725.88  E(vib)   ...       0.06 
freq.     740.17  E(vib)   ...       0.06 
freq.     751.04  E(vib)   ...       0.06 
freq.     788.02  E(vib)   ...       0.05 
freq.     796.75  E(vib)   ...       0.05 
freq.     813.50  E(vib)   ...       0.05 
freq.     850.01  E(vib)   ...       0.04 
freq.     897.31  E(vib)   ...       0.03 
freq.     995.96  E(vib)   ...       0.02 
freq.    1117.11  E(vib)   ...       0.01 
freq.    1139.12  E(vib)   ...       0.01 
freq.    1148.05  E(vib)   ...       0.01 
freq.    1445.15  E(vib)   ...       0.00 
freq.    1539.12  E(vib)   ...       0.00 
freq.    1667.94  E(vib)   ...       0.00 
freq.    1794.67  E(vib)   ...       0.00 
freq.    1882.84  E(vib)   ...       0.00 
freq.    1925.16  E(vib)   ...       0.00 
freq.    1990.71  E(vib)   ...       0.00 
freq.    1999.73  E(vib)   ...       0.00 
freq.    2007.97  E(vib)   ...       0.00 
freq.    2014.21  E(vib)   ...       0.00 
freq.    2018.38  E(vib)   ...       0.00 
freq.    2026.23  E(vib)   ...       0.00 
freq.    2031.02  E(vib)   ...       0.00 
freq.    2035.48  E(vib)   ...       0.00 
freq.    2045.30  E(vib)   ...       0.00 
freq.    2071.69  E(vib)   ...       0.00 

------------
INNER ENERGY
------------

The inner energy is: U= E(el) + E(ZPE) + E(vib) + E(rot) + E(trans)
    E(el)   - is the total energy from the electronic structure calculation
              = E(kin-el) + E(nuc-el) + E(el-el) + E(nuc-nuc)
    E(ZPE)  - the the zero temperature vibrational energy from the frequency calculation
    E(vib)  - the the finite temperature correction to E(ZPE) due to population
              of excited vibrational states
    E(rot)  - is the rotational thermal energy
    E(trans)- is the translational thermal energy

Summary of contributions to the inner energy U:
Electronic energy                ...  -1219.48567906 Eh
Zero point energy                ...      0.11491882 Eh      72.11 kcal/mol
Thermal vibrational correction   ...      0.01165005 Eh       7.31 kcal/mol
Thermal rotational correction    ...      0.00141627 Eh       0.89 kcal/mol
Thermal translational correction ...      0.00141627 Eh       0.89 kcal/mol
-----------------------------------------------------------------------
Total thermal energy                  -1219.35627765 Eh


Summary of corrections to the electronic energy:
(perhaps to be used in another calculation)
Total thermal correction                  0.01448259 Eh       9.09 kcal/mol
Non-thermal (ZPE) correction              0.11491882 Eh      72.11 kcal/mol
-----------------------------------------------------------------------
Total correction                          0.12940141 Eh      81.20 kcal/mol


--------
ENTHALPY
--------

The enthalpy is H = U + kB*T
                kB is Boltzmann's constant
Total thermal energy              ...  -1219.35627765 Eh 
Thermal Enthalpy correction       ...      0.00094421 Eh       0.59 kcal/mol
-----------------------------------------------------------------------
Total Enthalpy                    ...  -1219.35533344 Eh


Note: Only C1 symmetry has been detected, increase convergence thresholds 
      if your molecule has a higher symmetry. Symmetry factor of 1.0 is   
      used for the rotational entropy correction. 
 

Note: Rotational entropy computed according to Herzberg 
Infrared and Raman Spectra, Chapter V,1, Van Nostrand Reinhold, 1945 
Point Group:  C1, Symmetry Number:   1  
Rotational constants in cm-1:     0.045698     0.022347     0.016486 

Vibrational entropy computed according to the QRRHO of S. Grimme
Chem.Eur.J. 2012 18 9955 using a reference frequency of 100.0 cm-1


-------
ENTROPY
-------

The entropy contributions are T*S = T*(S(el)+S(vib)+S(rot)+S(trans))
     S(el)   - electronic entropy
     S(vib)  - vibrational entropy
     S(rot)  - rotational entropy
     S(trans)- translational entropy
The entropies will be listed as multiplied by the temperature to get
units of energy

Electronic entropy                ...      0.00000000 Eh      0.00 kcal/mol
Vibrational entropy               ...      0.02044323 Eh     12.83 kcal/mol
Rotational entropy                ...      0.01470003 Eh      9.22 kcal/mol
Translational entropy             ...      0.01944577 Eh     12.20 kcal/mol
-----------------------------------------------------------------------
Final entropy term                ...      0.05458903 Eh     34.26 kcal/mol

In case the symmetry of your molecule has not been determined correctly
or in case you have a reason to use a different symmetry number we print 
out the resulting rotational entropy values for sn=1,12:

 non-linear molecules -----------------------------------
|  sn= 1 | S(rot)=       0.01470003 Eh      9.22 kcal/mol|
|  sn= 2 | S(rot)=       0.01404557 Eh      8.81 kcal/mol|
|  sn= 3 | S(rot)=       0.01366274 Eh      8.57 kcal/mol|
|  sn= 4 | S(rot)=       0.01339111 Eh      8.40 kcal/mol|
|  sn= 5 | S(rot)=       0.01318042 Eh      8.27 kcal/mol|
|  sn= 6 | S(rot)=       0.01300828 Eh      8.16 kcal/mol|
|  sn= 7 | S(rot)=       0.01286273 Eh      8.07 kcal/mol|
|  sn= 8 | S(rot)=       0.01273666 Eh      7.99 kcal/mol|
|  sn= 9 | S(rot)=       0.01262545 Eh      7.92 kcal/mol|
|  sn=10 | S(rot)=       0.01252597 Eh      7.86 kcal/mol|
|  sn=11 | S(rot)=       0.01243598 Eh      7.80 kcal/mol|
|  sn=12 | S(rot)=       0.01235382 Eh      7.75 kcal/mol|
 linear molecules ---------------------------------------
|  Dinfh | S(rot)=       0.00920191 Eh      5.77 kcal/mol|
|  Cinfv | S(rot)=       0.00985637 Eh      6.18 kcal/mol|
 --------------------------------------------------------


-------------------
GIBBS FREE ENERGY
-------------------

The Gibbs free energy is G = H - T*S

Total enthalpy                    ...  -1219.35533344 Eh 
Total entropy correction          ...     -0.05458903 Eh    -34.26 kcal/mol
-----------------------------------------------------------------------
Final Gibbs free energy         ...  -1219.40992247 Eh

For completeness - the Gibbs free energy minus the electronic energy
G-E(el)                           ...      0.07575659 Eh     47.54 kcal/mol


Maximum memory used throughout the entire PROP-calculation: 43.3 MB

--------------------------------
SUGGESTED CITATIONS FOR THIS RUN
--------------------------------

Below you find a list of papers that are relevant to this ORCA run
We neither can nor want to force you to cite these papers, but we appreciate if you do
You receive ORCA, which is the product of decades of hard work by many enthusiastic individuals, for free
The only thing we kindly ask in return is that you cite our papers,
We deeply appreciate it, if you show your appreciation for ORCA by not just citing the generic ORCA reference.

Please note that relegating all ORCA citations to the supporting information does *not* help us.
SI sections are not indexed - citations you put there will not count into any citation statistics
But we need these citations in order to attract the funding resources that allow us to do what we are doing

Therefore, if you are a happy ORCA user, please consider citing a few of the papers listed below in the main body of your paper

In addition to the list printed below, the program has created the file run.bibtex that contains the list in bibtex format
You can import this file easily into all common literature databanks and citation aid programs


List of essential papers. We consider these as the minimum necessary citations

  1. Neese, F.
     Software update: the ORCA program system, version 6.0
     WIRES Comput. Molec. Sci. 2025 15(1), e70019
     doi.org/10.1002/wcms.7019

List of papers to cite with high priority. The work reported in these papers was absolutely
necessary for this run to complete.
Our perspective: the developers of density functionals and basis sets usually get cited in chemistry papers
Good! But without the algorithms to do something with them, the functionals or basis sets would not do anything.
Hence, in our opinion, the algorithm design and method developments papers are equally worthy of getting cited

  1. Neese, F.
     An improvement of the resolution of the identity approximation for the formation of the Coulomb matrix
     J. Comp. Chem. 2003 24(14), 1740-1747
     doi.org/10.1002/jcc.10318
  2. Neese, F.; Wennmohs, F.; Hansen, A.; Becker, U.
     Efficient, approximate and parallel Hartree-Fock and hybrid DFT calculations. A 'chain-of-spheres' algorithm for the Hartree-Fock exchange
     Chem. Phys. 2009 356(1-3), 98-109
     doi.org/10.1016/j.chemphys.2008.10.036
  3. Grimme, S.; Antony, J.; Ehrlich, S.; Krieg, H.
     A consistent and accurate ab initio parametrization of density functional dispersion correction (DFT-D) for the 94 elements H-Pu
     J. Chem. Phys. 2010 132 , 154104
     doi.org/10.1063/1.3382344
  4. Grimme, S.; Ehrlich, S.; Goerigk, L.
     Effect of the damping function in dispersion corrected density functional theory
     J. Comput. Chem. 2011 32(7), 1456-1465
     doi.org/10.1002/jcc.21759
  5. Bykov, D.; Petrenko, T.; Izsak, R.; Kossmann, S.; Becker, U.; Valeev, E.; Neese, F.
     Efficient implementation of the analytic second derivatives of Hartree-Fock and hybrid DFT energies: a detailed analysis of different approximations
     Molec. Phys. 2015 113 , 1961-1977
     doi.org/10.1080/00268976.2015.1025114
  6. Helmich-Paris, B.; de Souza, B.; Neese, F.; Izsák, R.
     An improved chain of spheres for exchange algorithm
     J. Chem. Phys. 2021 155(10), 104109
     doi.org/10.1063/5.0058766
  7. Neese, F.
     The SHARK Integral Generation and Digestion System
     J. Comp. Chem. 2022 44(3), 381
     doi.org/10.1002/jcc.26942
  8. Petra, P.; Frank, N.
     Efficient calculation of analytic Raman intensities
     to be submitted 2025  , 

List of suggested additional citations. These are papers that are important in the 'surrounding' of 
of this run, or papers that preceded the highly important papers. If you like your results we are grateful for a citation.

  1. Izsak, R.; Neese, F.
     An overlap fitted chain of spheres exchange method
     J. Chem. Phys. 2011 135 , 144105
     doi.org/10.1063/1.3646921
  2. Izsak, R.; Hansen, A.; Neese, F.
     The resolution of identity and chain of spheres approximations for the LPNO-CCSD singles Fock term
     Molec. Phys. 2012 110 , 2413-2417
     doi.org/10.1080/00268976.2012.687466
  3. Neese, F.
     The ORCA program system
     WIRES Comput. Molec. Sci. 2012 2(1), 73-78
     doi.org/10.1002/wcms.81
  4. Izsak, R.; Neese, F.; Klopper, W.
     Robust fitting techniques in the chain of spheres approximation to the Fock exchange: The role of the complementary space
     J. Chem. Phys. 2013 139 , 
     doi.org/10.1063/1.4819264
  5. Neese, F.
     Software update: the ORCA program system, version 4.0
     WIRES Comput. Molec. Sci. 2018 8(1), 1-6
     doi.org/10.1002/wcms.1327
  6. Neese, F.; Wennmohs, F.; Becker, U.; Riplinger, C.
     The ORCA quantum chemistry program package
     J. Chem. Phys. 2020 152(22), 224108
     doi.org/10.1063/5.0004608
  7. Neese, F.
     Software update: The ORCA program system—Version 5.0
     WIRES Comput. Molec. Sci. 2022 12(1), e1606
     doi.org/10.1002/wcms.1606

List of optional additional citations

  1. Neese, F.
     Approximate second-order SCF convergence for spin unrestricted wavefunctions
     Chem. Phys. Lett. 2000 325(1-3), 93-98
     doi.org/10.1016/s0009-2614(00)00662-x

Timings for individual modules:

Sum of individual times          ...     2432.606 sec (=  40.543 min)
Startup calculation              ...      497.497 sec (=   8.292 min)  20.5 %
SCF iterations                   ...      918.348 sec (=  15.306 min)  37.8 %
Property integrals               ...       91.360 sec (=   1.523 min)   3.8 %
SCF Response                     ...       26.057 sec (=   0.434 min)   1.1 %
Property calculations            ...      176.142 sec (=   2.936 min)   7.2 %
SCF Gradient evaluation          ...      721.396 sec (=  12.023 min)  29.7 %
Geometry relaxation              ...        1.805 sec (=   0.030 min)   0.1 %
                             ****ORCA TERMINATED NORMALLY****
TOTAL RUN TIME: 0 days 0 hours 41 minutes 31 seconds 619 msec
