
                                 *****************
                                 * O   R   C   A *
                                 *****************

                                            #,                                       
                                            ###                                      
                                            ####                                     
                                            #####                                    
                                            ######                                   
                                           ########,                                 
                                     ,,################,,,,,                         
                               ,,#################################,,                 
                          ,,##########################################,,             
                       ,#########################################, ''#####,          
                    ,#############################################,,   '####,        
                  ,##################################################,,,,####,       
                ,###########''''           ''''###############################       
              ,#####''   ,,,,##########,,,,          '''####'''          '####       
            ,##' ,,,,###########################,,,                        '##       
           ' ,,###''''                  '''############,,,                           
         ,,##''                                '''############,,,,        ,,,,,,###''
      ,#''                                            '''#######################'''  
     '                                                          ''''####''''         
             ,#######,   #######,   ,#######,      ##                                
            ,#'     '#,  ##    ##  ,#'     '#,    #''#        ,####,    ,#,          
            ##       ##  ##   ,#'  ##            #'  '#       #'       ,# #          
            ##       ##  #######   ##           ,######,      #####,      #          
            '#,     ,#'  ##    ##  '#,     ,#' ,#      #,     #,   #      #          
             '#######'   ##     ##  '#######'  #'      '#     '####' #    #          



                #########################################################
                #                        -***-                          #
                #          Department of theory and spectroscopy        #
                #                                                       #
                #                      Frank Neese                      #
                #                                                       #
                #     Directorship, Architecture, Infrastructure        #
                #                    SHARK, DRIVERS                     #
                #        Core code/Algorithms in most modules           #
                #                                                       #
                #        Max Planck Institute fuer Kohlenforschung      #
                #                Kaiser Wilhelm Platz 1                 #
                #                 D-45470 Muelheim/Ruhr                 #
                #                      Germany                          #
                #                                                       #
                #                  All rights reserved                  #
                #                        -***-                          #
                #########################################################


                         Program Version 6.1.0  -  RELEASE   -
                                (GIT: $679e74b$)
                          ($2025-06-10 18:02:51 +0200$)


 With contributions from (in alphabetic order):
[Max-Planck-Institut fuer Kohlenforschung]                               
  Daniel Aravena         : Magnetic Suceptibility                        
  Michael Atanasov       : Ab Initio Ligand Field Theory (pilot matlab implementation)
  Alexander A. Auer      : GIAO ZORA, VPT2 properties, NMR spectrum      
  Ute Becker             : All parallelization in ORCA, NUMFREQ, NUMCALC 
  Giovanni Bistoni       : ED, misc. LED, open-shell LED, HFLD           
  Dmytro Bykov           : pre 5.0 version of the SCF Hessian            
  Marcos Casanova-Páez   : Triplet and SCS-CIS(D). UHF-(DLPNO)-IP/EA/STEOM-CCSD. UHF-CVS-IP/STEOM-CCSD   
  Vijay G. Chilkuri      : MRCI spin determinant printing, contributions to CSF-ICE 
  Pauline Colinet        : FMM embedding                                 
  Dipayan Datta          : RHF DLPNO-CCSD density                        
  Achintya Kumar Dutta   : EOM-CC, STEOM-CC                              
  Nicolas Foglia         : Exact transition moments, OPA infrastructure, MCD improvements    
  Dmitry Ganyushin       : Spin-Orbit,Spin-Spin,Magnetic field MRCI      
  Miquel Garcia-Rates    : C-PCM and meta-GGA Hessian, CCSD/C-PCM, Gaussian charge scheme 
  Tiago L. C. Gouveia    : GS-ROHF, GS-ROCIS                             
  Yang Guo               : DLPNO-NEVPT2, F12-NEVPT2, CIM, IAO-localization        
  Andreas Hansen         : Spin unrestricted coupled pair/coupled cluster methods 
  Ingolf Harden          : AUTO-CI MPn and infrastructure                
  Benjamin Helmich-Paris : MC-RPA, TRAH-(SCF,CASSCF), AVAS, COSX integrals, SCF dyn. polar., MC-PDFT, srDFT 
  Lee Huntington         : MR-EOM, pCC                                   
  Robert Izsak           : Overlap fitted RIJCOSX, COSX-SCS-MP3, EOM     
  Riya Kayal             : Wick's Theorem for AUTO-CI, AUTO-CI UHF-CCSDT 
  Emily Kempfer          : AUTO-CI RHF CISDT and CCSDT, approximate NEVPT4
  Christian Kollmar      : KDIIS, OOCD, Brueckner-CCSD(T), CCSD density, CASPT2, CASPT2-K, improved NEVPT2 
  Axel Koslowski         : Symmetry handling                             
  Simone Kossmann        : meta-GGA functionals, TD-DFT gradient, OOMP2, (MP2 Hessian; deprecated post 5.0) 
  Lucas Lang             : DCDCAS, Hyperfine gauge corrections, ICE-SOC+SSC
  Marvin Lechner         : AUTO-CI (C++ implementation), FIC-MRCC        
  Spencer Leger          : CASSCF response                               
  Dagmar Lenk            : GEPOL surface, SMD, ORCA-2-JSON               
  Dimitrios Liakos       : Extrapolation schemes; Compound Job, Property file
  Dimitrios Manganas     : Further ROCIS development; embedding schemes. LFT, Crystal Embedding 
  Dimitrios Pantazis     : SARC Basis sets                               
  Anastasios Papadopoulos: AUTO-CI, single reference methods and gradients 
  Taras Petrenko         : pre 6.0 DFT Hessian and TD-DFT gradient,  ECA, NRVS 
  Petra Pikulova         : Analytic Raman intensities                    
  Peter Pinski           : DLPNO-MP2, DLPNO-MP2 Gradient                 
  Shashank Vittal Rao    : ES-AILFT, MagRelax                            
  Christoph Reimann      : Effective Core Potentials                     
  Marius Retegan         : Local ZFS, SOC                                
  Christoph Riplinger    : Optimizer, TS searches, QM/MM, DLPNO-CCSD(T), (RO)-DLPNO pert. Triples 
  Michael Roemelt        : Original ROCIS implementation, recursive CI coupling coefficients
  Masaaki Saitow         : Open-shell DLPNO-CCSD energy and density      
  Barbara Sandhoefer     : DKH picture change effects                    
  Yorick L. A. Schmerwitz: GMF and freeze-and-release deltaSCF, NEB S-IDPP initial path                    
  Kantharuban Sivalingam : CASSCF convergence/infrastructure, NEVPT2, NEVPT3, NEVPT4(SD), FIC-MRCI and CEPA variants
  Bernardo de Souza      : ESD, SOC TD-DFT                               
  Georgi L. Stoychev     : AutoAux, RI-MP2 NMR, DLPNO-MP2 response, X2C  
  Van Anh Tran           : RI-MP2 g-tensors                              
  Willem Van den Heuvel  : Paramagnetic NMR                              
  Zikuan Wang            : NOTCH, Electric field optimization            
  Frank Wennmohs         : Technical directorship and infrastructure     
  Hang Xu                : AUTO-CI-Response properties                   
                                                                         
[FACCTs GmbH]                                                            
  Markus Bursch, Nicolas Foglia, Miquel Garcia-Rates, Ingolf Harden, Hagen Neugebauer, Anastasios Papadopoulos, 
  Christoph Riplinger, Bernardo de Souza, Georgi L. Stoychev                                                    
                                                                 
  APM, various basis sets, CI-OPT, improved COSX, DLPNO-Multilevel,           
  DOCKER, DRACO, updates on ESD, Fragmentator, GOAT, IRC, LR-CPCM, L-BFGS, MBIS, meta-GGA TD-DFT gradient, ML-optimized integration grids, 
  MM, NACMEs, nearIR, NEB, NEB-TS, NL-DFT gradient (VV10), 2- and 3-layer-ONIOM, interface openCOSMO-RS, QMMM,   
  Crystal-QMMM, RESP, rigid body optimization, SF, symmetry and pop. for TD-DFT, various functionals, SOLVATOR                                   
                                                                         
[Other institutions]                                                     
  V. Asgeirsson          : NEB                                           
  Christoph Bannwarth    : sTDA-DFT, sTD-DFT, PBEh-3c, B97-3c, D3        
  Giovanni Bistoni       : ETS/NOCV, ADLD/ADEX, COVALED                  
  Martin Brehm           : Molecular dynamics                            
  Ronald Cardenas        : ETS/NOCV                                      
  Martina Colucci        : COVALED                                       
  Sebastian Ehlert       : rSCAN, r2SCAN, r2SCAN-3c, D4, dhf basis sets  
  Marvin Friede          : D4 for Fr, Ra, Ac-Lr                          
  Lars Goerigk           : TD-DFT with DH, B97 family of functionals     
  Stefan Grimme          : VdW corrections, initial TS optimization, DFT functionals, gCP, sTDA/sTD-DF 
  Waldemar Hujo          : DFT-NL                                        
  H. Jonsson             : NEB                                           
  Holger Kruse           : gCP                                           
  Marcel Mueller         : wB97X-3c, vDZP basis set                      
  Hagen Neugebauer       : wr2SCAN, Native XTB                           
  Gianluca Regni         : ADLD/ADEX                                     
  Tobias Risthaus        : pre 6.0 range-separated hybrid DFT and stability analysis
  Lukas Wittmann         : regularized MP2, r2SCAN double-hybrids, wr2SCAN        
                                                                         
We gratefully acknowledge several colleagues who have allowed us to      
interface, adapt or use parts of their codes:                            
  Ed Valeev, F. Pavosevic, A. Kumar             : LibInt (2-el integral package), F12 methods 
  Garnet Chan, S. Sharma, J. Yang, R. Olivares  : DMRG                   
  Ulf Ekstrom                                   : XCFun DFT Library      
  Mihaly Kallay                                 : mrcc  (arbitrary order and MRCC methods)
  Frank Weinhold                                : gennbo (NPA and NBO analysis)           
  Simon Mueller                                 : openCOSMO-RS                            
  Christopher J. Cramer and Donald G. Truhlar   : smd solvation model                     
  S Lehtola, MJT Oliveira, MAL Marques          : LibXC Library                           
  Liviu Ungur et al                             : ANISO software                          


 Your calculation uses the libint2 library for the computation of 2-el integrals
 For citations please refer to: http://libint.valeyev.net

 Your ORCA version has been built with support for libXC version: 7.0.0
 For citations please refer to: https://libxc.gitlab.io

 This ORCA versions uses:
   CBLAS   interface :  Fast vector & matrix operations
   LAPACKE interface :  Fast linear algebra routines
   SCALAPACK package :  Parallel linear algebra routines
   Shared memory     :  Shared parallel matrices
   BLAS/LAPACK       :  OpenBLAS 0.3.29  USE64BITINT DYNAMIC_ARCH NO_AFFINITY Bulldozer SINGLE_THREADED
        Core in use  :  Bulldozer
   Copyright (c) 2011-2014, The OpenBLAS Project


  ***********************************
  * Starting time: Wed Aug 13 17:06:58 2025
  * Host name:     chromium04
  * Process ID:    281985
  * Working dir.:  /local/scratch/mehlhorn/61900
  ***********************************



***************************************
The coordinates will be read from file: start.xyz
***************************************


Your calculation utilizes the geometrical counterpoise correction gCP
Please cite in your paper:
H.Kruse, S. Grimme J.Chem.Phys., 136, (2012), 154101 
   

Your calculation utilizes the atom-pairwise dispersion correction
with the Becke-Johnson damping scheme (D3BJ)


Warning: RI is on but no J-basis has been assigned. Assigning Def2/J (nothing to worry about!)
================================================================================

cite the ECPs for Zr [Def2-ECP] as follows:
Ce-Yb(ecp-28): M. Dolg, H. Stoll, H.Preuss, J. Chem. Phys., 1989, 90, 1730-1734.
Y-Cd(ecp-28), Hf-Hg(ecp-46): D. Andrae,U. Haeussermann, M. Dolg, H. Stoll, H. Preuss, Theor. Chim. Acta, 1990, 77, 123-141.
In-Sb(ecp-28), Tl-Bi(ecp-46): B. Metz, H. Stoll, M. Dolg, J. Chem. Phys., 2000, 113, 2563-2569.
Te-Xe(ecp-28), Po-Rn(ecp-46): K. A. Peterson, D. Figgen, E. Goll, H. Stoll, M. Dolg, J. Chem. Phys., 2003, 119, 11113-11123.
Rb(ecp-28), Cs(ecp-46): T. Leininger, A. Nicklass, W. Kuechle, H. Stoll, M. Dolg, A. Bergner, Chem. Phys. Lett., 1996, 255, 274-280.
Sr(ecp-28), Ba(ecp-46): M. Kaupp, P. V. Schleyer, H. Stoll and H. Preuss, J. Chem. Phys., 1991, 94, 1360-1366.
La(ecp-46): M. Dolg, H. Stoll, A. Savin, H. Preuss, Theor. Chim. Acta, 1989, 75, 173-194.
Lu(ecp-28): X. Cao, M. Dolg, J. Chem. Phys., 2001, 115, 7348-7355.

ECP parameters for Zr [Def2-ECP] have been obtained from:
TURBOMOLE (7.0.2)

----- Orbital basis set information -----
Your calculation utilizes the basis: def2-SV(P)
   F. Weigend and R. Ahlrichs, Phys. Chem. Chem. Phys. 7, 3297 (2005).

----- AuxJ basis set information -----
Your calculation utilizes the auxiliary basis: def2/J
   H-Rn: F. Weigend, Phys. Chem. Chem. Phys. 8, 1057 (2006).
   Fr-Lr: K. Eichkorn, F. Weigend, O. Treutler, R. Ahlrichs; Theor. Chem. Acc. 97, 119 (1997).

================================================================================
                                        WARNINGS
                       Please study these warnings very carefully!
================================================================================

WARNING: Old DensityContainer found on disk!
         Will remove this file - 
         If you want to keep old densities, please start your calculation with a different basename. 


WARNING: Gradients are needed
  ===> : At least TightSCF should be used for SCF convergence

WARNING: Geometry Optimization
  ===> : Switching off AutoStart
         For restart on a previous wavefunction, please use MOREAD

================================================================================
                                       INPUT FILE
================================================================================
NAME = run.inp
|  1> # Geometry optimization for (AlH3)n cluster
|  2> 
|  3> %pal nprocs 24  end
|  4> 
|  5> %geom MaxIter 500 end
|  6> 
|  7> 
|  8> ! PBE def2-SV(P)
|  9> ! RKS	# closed shell for AlH3
| 10> ! D3    #  dispersion correction
| 11> ! gCP(DFT/SV(P))
| 12> ! Freq 	# Frequency analysis to check the stabiltity of the structures
| 13> 
| 14> ! NoPop # population analysis not necessary	
| 15> 
| 16> ! DEFGRID2
| 17> ! NormalSCF
| 18> ! SloppyOpt
| 19> 
| 20> ! SmallPrint
| 21> 
| 22> 
| 23> * xyzFile 0 1 start.xyz # only maingroup elements H and Al so there should be no net spin
| 24> 
| 25>                          ****END OF INPUT****
================================================================================

                       *****************************
                       * Geometry Optimization Run *
                       *****************************

Geometry optimization settings:
Update method            Update   .... BFGS
Choice of coordinates    CoordSys .... (2022) Redundant Internals
Initial Hessian          InHess   .... Almloef's Model
Max. no of cycles        MaxIter  .... 500

Convergence Tolerances:
Energy Change            TolE     ....  8.0000e-05 Eh
Max. Gradient            TolMAXG  ....  5.0000e-03 Eh/bohr
RMS Gradient             TolRMSG  ....  1.0000e-03 Eh/bohr
Max. Displacement        TolMAXD  ....  3.0000e-02 bohr
RMS Displacement         TolRMSD  ....  2.0000e-02 bohr
Strict Convergence                .... False

------------------------------------------------------------------------------
                        ORCA OPTIMIZATION COORDINATE SETUP
------------------------------------------------------------------------------

The optimization will be done in redundant internal coordinates (2022)
Making redundant internal coordinates   ...  (2022 redundants) done
Evaluating the initial hessian          ...  (Almloef) done
Evaluating the coordinates              ...  done
Calculating the B-matrix                .... done
Calculating the G-matrix                .... done
The number of degrees of freedom        .... 1060

    -----------------------------------------------------------------
                    Redundant Internal Coordinates


    -----------------------------------------------------------------
         Definition                    Initial Value    Approx d2E/dq
    -----------------------------------------------------------------
      1. B(Zr  2,Zr  1)                  3.3462         0.048419   
      2. B(Zr  3,Zr  0)                  3.4167         0.037369   
      3. B(Zr  4,Zr  3)                  3.4269         0.035996   
      4. B(Zr  4,Zr  1)                  3.4235         0.036450   
      5. B(Zr  5,Zr  2)                  3.4208         0.036806   
      6. B(Zr  5,Zr  0)                  3.3488         0.047965   
      7. B(O   6,Zr  5)                  2.0804         0.448289   
      8. B(O   6,Zr  3)                  2.1137         0.396686   
      9. B(O   6,Zr  0)                  2.1372         0.363776   
     10. B(O   7,Zr  2)                  2.0809         0.447451   
     11. B(O   7,Zr  4)                  2.1162         0.393005   
     12. B(O   7,Zr  1)                  2.1333         0.369120   
     13. B(O   8,Zr  5)                  2.1648         0.328749   
     14. B(O   8,Zr  1)                  2.1931         0.296265   
     15. B(O   8,Zr  2)                  2.1040         0.410955   
     16. B(O   9,Zr  4)                  2.1139         0.396398   
     17. B(O   9,Zr  0)                  2.1500         0.347153   
     18. B(O   9,Zr  3)                  2.0954         0.424271   
     19. B(O  10,Zr  4)                  2.0992         0.418269   
     20. B(O  10,Zr  3)                  2.1202         0.387305   
     21. B(O  10,Zr  1)                  2.1537         0.342424   
     22. B(O  11,Zr  5)                  2.1124         0.398473   
     23. B(O  11,Zr  2)                  2.1539         0.342118   
     24. B(O  11,Zr  0)                  2.1918         0.297749   
     25. B(O  12,Zr  0)                  1.9748         0.660714   
     26. B(O  13,Zr  0)                  1.9822         0.643071   
     27. B(O  14,Zr  0)                  2.0355         0.528526   
     28. B(O  15,Zr  0)                  2.0736         0.459506   
     29. B(O  16,Zr  1)                  2.0445         0.511490   
     30. B(O  17,Zr  1)                  2.0661         0.472498   
     31. B(O  18,Zr  1)                  1.9759         0.658099   
     32. B(O  19,Zr  1)                  1.9846         0.637244   
     33. B(O  20,Zr  2)                  1.9909         0.622691   
     34. B(O  21,Zr  2)                  1.9861         0.633845   
     35. B(O  22,Zr  2)                  1.9807         0.646601   
     36. B(O  23,Zr  2)                  2.0739         0.459041   
     37. B(O  24,Zr  3)                  2.0543         0.493424   
     38. B(O  25,Zr  3)                  1.9911         0.622317   
     39. B(O  26,Zr  3)                  2.0365         0.526772   
     40. B(O  27,Zr  3)                  1.9896         0.625713   
     41. B(O  28,Zr  4)                  1.9917         0.620847   
     42. B(O  29,Zr  4)                  2.0423         0.515538   
     43. B(O  30,Zr  4)                  1.9885         0.628235   
     44. B(O  31,Zr  4)                  2.0497         0.501708   
     45. B(O  32,Zr  5)                  2.0649         0.474556   
     46. B(O  33,Zr  5)                  1.9832         0.640528   
     47. B(O  34,Zr  5)                  1.9913         0.621867   
     48. B(O  35,Zr  5)                  1.9865         0.632995   
     49. B(C  36,O  33)                  1.2988         0.782419   
     50. B(C  36,O  12)                  1.2989         0.781912   
     51. B(C  37,O  25)                  1.3008         0.776574   
     52. B(C  37,O  13)                  1.3019         0.773410   
     53. B(C  38,O  21)                  1.2943         0.795293   
     54. B(C  38,O  14)                  1.2950         0.793206   
     55. B(C  39,O  29)                  1.3023         0.772442   
     56. B(C  39,O  15)                  1.3000         0.779009   
     57. B(C  40,O  34)                  1.2944         0.795137   
     58. B(C  40,O  16)                  1.2952         0.792832   
     59. B(C  41,O  26)                  1.3020         0.773104   
     60. B(C  41,O  17)                  1.2998         0.779309   
     61. B(C  42,O  22)                  1.2985         0.783188   
     62. B(C  42,O  18)                  1.2989         0.781933   
     63. B(C  43,O  19)                  1.3015         0.774677   
     64. B(C  43,O  30)                  1.3004         0.777787   
     65. B(C  44,O  35)                  1.3017         0.774131   
     66. B(C  44,O  20)                  1.3024         0.772155   
     67. B(C  45,O  31)                  1.2968         0.788124   
     68. B(C  45,O  23)                  1.2966         0.788674   
     69. B(C  46,O  32)                  1.2968         0.788137   
     70. B(C  46,O  24)                  1.2973         0.786687   
     71. B(C  47,O  28)                  1.3015         0.774670   
     72. B(C  47,O  27)                  1.3014         0.774818   
     73. B(H  48,C  41)                  1.0881         0.362686   
     74. B(H  49,C  42)                  1.0901         0.359986   
     75. B(H  50,C  38)                  1.0854         0.366191   
     76. B(H  51,C  37)                  1.0919         0.357605   
     77. B(H  52,C  43)                  1.0916         0.357930   
     78. B(H  53,C  47)                  1.0914         0.358285   
     79. B(H  54,C  39)                  1.0881         0.362634   
     80. B(H  55,C  45)                  1.0846         0.367279   
     81. B(H  56,C  40)                  1.0856         0.365983   
     82. B(H  57,C  46)                  1.0850         0.366744   
     83. B(H  58,C  36)                  1.0903         0.359768   
     84. B(H  59,C  44)                  1.0918         0.357759   
     85. B(Al 61,Al 60)                  3.1584         0.046288   
     86. B(Al 62,Al 61)                  3.2242         0.036357   
     87. B(Al 62,Al 60)                  2.6986         0.250668   
     88. B(Al 63,Al 62)                  3.2244         0.036334   
     89. B(Al 63,Al 60)                  3.1601         0.046000   
     90. B(Al 64,Al 62)                  3.2886         0.028700   
     91. B(Al 65,Al 64)                  3.2747         0.030195   
     92. B(Al 65,Al 61)                  3.2499         0.033084   
     93. B(Al 66,Al 64)                  3.2775         0.029890   
     94. B(Al 66,Al 63)                  3.2513         0.032914   
     95. B(Al 67,Al 66)                  3.2279         0.035858   
     96. B(Al 67,Al 65)                  3.2267         0.036019   
     97. B(Al 67,Al 64)                  3.1737         0.043768   
     98. B(H  68,Al 67)                  1.5949         0.394850   
     99. B(H  69,Al 67)                  1.6783         0.290652   
    100. B(H  69,Al 64)                  1.6812         0.287614   
    101. B(H  70,Al 67)                  1.6751         0.294106   
    102. B(H  70,Al 66)                  1.6788         0.290170   
    103. B(H  70,O  22)                  2.8486         0.010000   
    104. B(H  71,Al 67)                  1.6751         0.294086   
    105. B(H  71,Al 65)                  1.6787         0.290237   
    106. B(H  71,H  55)                  2.8434         0.010000   
    107. B(H  71,O  23)                  2.7939         0.010000   
    108. B(H  72,Al 65)                  1.5956         0.393863   
    109. B(H  72,O  23)                  2.7559         0.010000   
    110. B(H  72,O  21)                  2.2581         0.010000   
    111. B(H  73,Al 65)                  1.5991         0.388783   
    112. B(H  74,Al 65)                  1.6751         0.294125   
    113. B(H  74,Al 61)                  1.6706         0.298973   
    114. B(H  75,Al 61)                  1.5950         0.394777   
    115. B(H  76,Al 65)                  1.6732         0.296219   
    116. B(H  76,Al 64)                  1.6804         0.288423   
    117. B(H  77,Al 62)                  1.6945         0.273882   
    118. B(H  77,Al 61)                  1.6745         0.294758   
    119. B(H  78,Al 64)                  1.6725         0.296919   
    120. B(H  78,Al 62)                  1.6865         0.282087   
    121. B(H  79,Al 62)                  1.6120         0.370882   
    122. B(H  80,Al 63)                  1.6745         0.294782   
    123. B(H  80,Al 62)                  1.6944         0.273939   
    124. B(H  81,Al 66)                  1.6751         0.294154   
    125. B(H  81,Al 63)                  1.6707         0.298886   
    126. B(H  81,H  59)                  2.9292         0.010000   
    127. B(H  82,Al 63)                  1.5949         0.394827   
    128. B(H  83,Al 66)                  1.5992         0.388686   
    129. B(H  84,Al 64)                  1.6065         0.378470   
    130. B(H  85,Al 66)                  1.6731         0.296332   
    131. B(H  85,Al 64)                  1.6806         0.288226   
    132. B(H  86,Al 60)                  1.6144         0.367549   
    133. B(H  86,O  20)                  2.8076         0.010000   
    134. B(H  87,Al 60)                  1.6932         0.275202   
    135. B(H  87,H  50)                  2.4988         0.010000   
    136. B(H  87,Al 61)                  1.6764         0.292764   
    137. B(H  88,O  20)                  2.8809         0.010000   
    138. B(H  88,H  59)                  2.6265         0.010000   
    139. B(H  88,Al 63)                  1.6765         0.292632   
    140. B(H  88,Al 60)                  1.6940         0.274339   
    141. B(H  89,Al 62)                  1.6944         0.274009   
    142. B(H  89,Al 60)                  1.6881         0.280414   
    143. B(H  90,O  22)                  2.6523         0.010000   
    144. B(H  90,O  20)                  2.2795         0.010000   
    145. B(H  90,Al 66)                  1.5963         0.392922   
    146. B(H  91,Al 62)                  1.6924         0.276026   
    147. B(H  91,Al 60)                  1.6891         0.279325   
    148. A(O   6,Zr  0,O  12)          104.3773         0.498048   
    149. A(Zr  5,Zr  0,O   9)           97.1878         0.339259   
    150. A(O  11,Zr  0,O  14)           71.1340         0.460658   
    151. A(O  12,Zr  0,O  14)           82.9768         0.534137   
    152. A(O  11,Zr  0,O  13)          139.5319         0.477531   
    153. A(O  11,Zr  0,O  12)           78.9720         0.479919   
    154. A(Zr  3,Zr  0,O   9)           35.8675         0.325511   
    155. A(O  12,Zr  0,O  13)           83.0759         0.554346   
    156. A(Zr  5,Zr  0,O  15)          164.6804         0.355656   
    157. A(Zr  3,Zr  0,O   6)           36.2747         0.328029   
    158. A(O   9,Zr  0,O  14)          108.6219         0.473799   
    159. A(O   9,Zr  0,O  13)           89.7723         0.491268   
    160. A(O   6,Zr  0,O  13)           84.5882         0.495550   
    161. A(Zr  3,Zr  0,Zr  5)           73.1177         0.258171   
    162. A(Zr  3,Zr  0,O  14)          141.1538         0.349117   
    163. A(O   9,Zr  0,O  15)           68.4966         0.461802   
    164. A(O  14,Zr  0,O  15)           73.1212         0.499010   
    165. A(Zr  3,Zr  0,O  11)           96.1768         0.317435   
    166. A(Zr  3,Zr  0,O  13)           69.9553         0.360926   
    167. A(O  13,Zr  0,O  14)          141.8272         0.531418   
    168. A(Zr  3,Zr  0,O  12)          131.8138         0.362597   
    169. A(O  13,Zr  0,O  15)           83.8144         0.517625   
    170. A(Zr  5,Zr  0,O  12)           74.6813         0.378501   
    171. A(O   6,Zr  0,O  14)          133.3623         0.477894   
    172. A(O  11,Zr  0,O  15)          136.3966         0.449071   
    173. A(O  12,Zr  0,O  15)          120.3363         0.520259   
    174. A(Zr  5,Zr  0,O  13)          102.1397         0.376732   
    175. A(O   6,Zr  0,O  11)           65.5597         0.430526   
    176. A(O   9,Zr  0,O  11)          100.4826         0.426930   
    177. A(Zr  5,Zr  0,O  14)          108.0780         0.364237   
    178. A(O   6,Zr  0,O  15)          131.7702         0.465770   
    179. A(O   6,Zr  0,O   9)           64.8094         0.442602   
    180. A(Zr  5,Zr  0,O   6)           36.8521         0.341922   
    181. A(Zr  3,Zr  0,O  15)           96.2127         0.341007   
    182. A(Zr  5,Zr  0,O  11)           38.0753         0.330713   
    183. A(O   9,Zr  0,O  12)          167.6812         0.493740   
    184. A(O   7,Zr  1,O  16)          133.7892         0.476297   
    185. A(Zr  2,Zr  1,Zr  4)           73.0261         0.257579   
    186. A(O   7,Zr  1,O  17)          132.3545         0.469408   
    187. A(Zr  4,Zr  1,O  19)           69.8249         0.358842   
    188. A(O  10,Zr  1,O  19)           89.0066         0.489196   
    189. A(O  10,Zr  1,O  16)          110.6502         0.469772   
    190. A(O   7,Zr  1,O  19)           84.6568         0.496054   
    191. A(Zr  2,Zr  1,O  19)          103.1077         0.376753   
    192. A(O  16,Zr  1,O  17)           73.3401         0.498557   
    193. A(Zr  2,Zr  1,O  10)           97.1474         0.339016   
    194. A(O   8,Zr  1,O  18)           79.9333         0.479126   
    195. A(O  16,Zr  1,O  18)           82.6625         0.530451   
    196. A(Zr  4,Zr  1,O  16)          142.8190         0.345744   
    197. A(O  17,Zr  1,O  18)          120.6582         0.522599   
    198. A(O  10,Zr  1,O  18)          166.1590         0.492124   
    199. A(O   8,Zr  1,O  16)           70.5763         0.457495   
    200. A(O   7,Zr  1,O   8)           65.7188         0.431268   
    201. A(Zr  2,Zr  1,O   7)           36.8937         0.343300   
    202. A(Zr  4,Zr  1,O   8)           96.0096         0.315894   
    203. A(O   8,Zr  1,O  19)          140.4145         0.476293   
    204. A(Zr  2,Zr  1,O  18)           74.5712         0.378858   
    205. A(Zr  4,Zr  1,O   7)           36.1603         0.327471   
    206. A(Zr  4,Zr  1,O  10)           35.8554         0.323454   
    207. A(Zr  2,Zr  1,O   8)           37.9112         0.330955   
    208. A(Zr  2,Zr  1,O  17)          164.2595         0.357917   
    209. A(Zr  4,Zr  1,O  17)           96.9744         0.341178   
    210. A(Zr  2,Zr  1,O  16)          107.0474         0.362787   
    211. A(O  10,Zr  1,O  17)           68.6984         0.462999   
    212. A(O  16,Zr  1,O  19)          141.1112         0.527245   
    213. A(O  18,Zr  1,O  19)           82.2811         0.552971   
    214. A(Zr  4,Zr  1,O  18)          130.3405         0.360816   
    215. A(O   7,Zr  1,O  18)          103.3423         0.499032   
    216. A(O   8,Zr  1,O  10)          100.4980         0.425502   
    217. A(O   7,Zr  1,O  10)           64.9596         0.442671   
    218. A(O  17,Zr  1,O  19)           84.0864         0.519450   
    219. A(O   8,Zr  1,O  17)          135.2209         0.450941   
    220. A(O  11,Zr  2,O  21)           74.4610         0.488631   
    221. A(O   7,Zr  2,O   8)           68.2541         0.473990   
    222. A(O   8,Zr  2,O  22)           80.5595         0.507445   
    223. A(Zr  5,Zr  2,O  20)           71.0091         0.358026   
    224. A(O   7,Zr  2,O  23)           70.5061         0.483754   
    225. A(O  21,Zr  2,O  22)          134.3924         0.550565   
    226. A(O  22,Zr  2,O  23)           80.0223         0.518058   
    227. A(O   8,Zr  2,O  21)          143.9170         0.505562   
    228. A(Zr  5,Zr  2,O   7)           85.1672         0.338636   
    229. A(O   7,Zr  2,O  20)          156.1371         0.511959   
    230. A(O   8,Zr  2,O  23)          127.0970         0.476225   
    231. A(O   8,Zr  2,O  20)           90.9875         0.503892   
    232. A(Zr  5,Zr  2,O  22)          107.9437         0.360330   
    233. A(Zr  5,Zr  2,O   8)           37.3538         0.333875   
    234. A(Zr  1,Zr  2,O  23)           87.6384         0.356164   
    235. A(O   7,Zr  2,O  22)          105.5121         0.515581   
    236. A(O   8,Zr  2,O  11)           69.9215         0.451297   
    237. A(Zr  5,Zr  2,O  23)          155.6683         0.340086   
    238. A(Zr  5,Zr  2,O  11)           36.2830         0.323922   
    239. A(O  20,Zr  2,O  21)           87.0350         0.546645   
    240. A(Zr  1,Zr  2,O   8)           39.8255         0.349556   
    241. A(O  20,Zr  2,O  22)           81.3773         0.548714   
    242. A(Zr  1,Zr  2,O  11)           93.8672         0.338965   
    243. A(O  11,Zr  2,O  23)          135.4746         0.460486   
    244. A(O   7,Zr  2,O  21)          102.6796         0.513662   
    245. A(Zr  5,Zr  2,O  21)          109.5062         0.359109   
    246. A(Zr  1,Zr  2,O   7)           37.9842         0.354622   
    247. A(Zr  1,Zr  2,O  21)          140.5874         0.376405   
    248. A(O  11,Zr  2,O  20)           77.8468         0.487029   
    249. A(Zr  1,Zr  2,Zr  5)           72.7896         0.257950   
    250. A(O  11,Zr  2,O  22)          143.2542         0.490438   
    251. A(O  21,Zr  2,O  23)           76.5392         0.516127   
    252. A(Zr  1,Zr  2,O  20)          127.9302         0.375253   
    253. A(Zr  1,Zr  2,O  22)           75.6248         0.377704   
    254. A(O   7,Zr  2,O  11)           83.7861         0.458342   
    255. A(O  20,Zr  2,O  23)          133.3223         0.514414   
    256. A(O  25,Zr  3,O  27)           82.4872         0.545248   
    257. A(Zr  4,Zr  3,O  25)          108.0620         0.356638   
    258. A(O  10,Zr  3,O  24)          135.6389         0.477362   
    259. A(Zr  0,Zr  3,O   6)           36.7451         0.332760   
    260. A(O   9,Zr  3,O  25)           80.1997         0.506840   
    261. A(Zr  0,Zr  3,O  26)          144.7034         0.348922   
    262. A(Zr  0,Zr  3,O  27)          123.9211         0.359247   
    263. A(O   6,Zr  3,O  10)           85.8143         0.458646   
    264. A(Zr  0,Zr  3,O  10)           91.3991         0.331443   
    265. A(O   9,Zr  3,O  10)           68.4607         0.464313   
    266. A(O   6,Zr  3,O  24)           71.2201         0.479471   
    267. A(O  26,Zr  3,O  27)           83.9736         0.528356   
    268. A(O  24,Zr  3,O  25)           80.0553         0.521367   
    269. A(O  10,Zr  3,O  25)          142.6183         0.498307   
    270. A(O   9,Zr  3,O  26)          140.8448         0.491370   
    271. A(O   9,Zr  3,O  27)           89.9025         0.507355   
    272. A(Zr  4,Zr  3,O  10)           35.4876         0.329399   
    273. A(O  25,Zr  3,O  26)          136.5563         0.527815   
    274. A(Zr  4,Zr  3,O  27)           72.3704         0.356968   
    275. A(O   6,Zr  3,O  26)          109.2537         0.485294   
    276. A(Zr  4,Zr  3,O   6)           83.1481         0.330705   
    277. A(O   6,Zr  3,O   9)           66.1648         0.466352   
    278. A(Zr  4,Zr  3,O   9)           35.6776         0.334411   
    279. A(O   6,Zr  3,O  25)          100.0630         0.500530   
    280. A(Zr  0,Zr  3,Zr  4)           68.2504         0.247529   
    281. A(Zr  0,Zr  3,O  25)           73.8534         0.358915   
    282. A(Zr  0,Zr  3,O   9)           36.9546         0.336498   
    283. A(O   9,Zr  3,O  24)          128.4588         0.485458   
    284. A(Zr  4,Zr  3,O  24)          154.1992         0.342943   
    285. A(Zr  0,Zr  3,O  24)           91.7220         0.345103   
    286. A(O  24,Zr  3,O  27)          133.4289         0.521900   
    287. A(O  10,Zr  3,O  27)           77.7476         0.498812   
    288. A(Zr  4,Zr  3,O  26)          106.6847         0.346730   
    289. A(O  10,Zr  3,O  26)           72.4483         0.483153   
    290. A(O  24,Zr  3,O  26)           79.9362         0.505360   
    291. A(O   6,Zr  3,O  27)          154.8196         0.501038   
    292. A(Zr  1,Zr  4,O  29)          144.9436         0.346203   
    293. A(O   7,Zr  4,O  10)           66.2024         0.464344   
    294. A(O   9,Zr  4,O  28)           77.8086         0.500243   
    295. A(O   9,Zr  4,O  29)           72.3277         0.483300   
    296. A(O  28,Zr  4,O  29)           83.5484         0.525445   
    297. A(O  30,Zr  4,O  31)           80.3072         0.523930   
    298. A(O  10,Zr  4,O  29)          140.8004         0.488123   
    299. A(O   7,Zr  4,O  30)           99.8887         0.500544   
    300. A(O  10,Zr  4,O  31)          128.7933         0.485674   
    301. A(O   9,Zr  4,O  31)          135.4386         0.480881   
    302. A(O   9,Zr  4,O  30)          142.6397         0.501345   
    303. A(O  29,Zr  4,O  30)          136.3699         0.526616   
    304. A(Zr  3,Zr  4,O  30)          108.2402         0.357213   
    305. A(O   7,Zr  4,O  28)          154.8507         0.499443   
    306. A(O  10,Zr  4,O  30)           80.1773         0.506388   
    307. A(O  28,Zr  4,O  30)           82.3654         0.545419   
    308. A(O   7,Zr  4,O  29)          109.8879         0.482534   
    309. A(Zr  3,Zr  4,O  29)          106.2933         0.345475   
    310. A(O   7,Zr  4,O   9)           86.0127         0.459809   
    311. A(O  28,Zr  4,O  31)          133.2902         0.522767   
    312. A(Zr  1,Zr  4,O  28)          123.8997         0.357254   
    313. A(Zr  1,Zr  4,Zr  3)           68.3114         0.246639   
    314. A(Zr  3,Zr  4,O   9)           35.3185         0.330665   
    315. A(O   9,Zr  4,O  10)           68.5078         0.465075   
    316. A(Zr  1,Zr  4,O   9)           91.2204         0.331351   
    317. A(Zr  3,Zr  4,O   7)           83.3510         0.330195   
    318. A(Zr  1,Zr  4,O   7)           36.4987         0.330880   
    319. A(O  10,Zr  4,O  28)           89.8034         0.505272   
    320. A(Zr  3,Zr  4,O  10)           35.8960         0.333620   
    321. A(Zr  1,Zr  4,O  30)           74.1055         0.357974   
    322. A(Zr  1,Zr  4,O  31)           92.0904         0.344625   
    323. A(Zr  1,Zr  4,O  10)           36.9371         0.334315   
    324. A(Zr  3,Zr  4,O  31)          154.4062         0.343901   
    325. A(O   7,Zr  4,O  31)           71.2995         0.480119   
    326. A(O  29,Zr  4,O  31)           79.9705         0.504897   
    327. A(Zr  3,Zr  4,O  28)           72.2922         0.356495   
    328. A(O   6,Zr  5,O  35)          156.7839         0.513713   
    329. A(O   6,Zr  5,O  32)           70.8133         0.486904   
    330. A(Zr  2,Zr  5,O  32)          155.2955         0.341982   
    331. A(O  34,Zr  5,O  35)           85.4530         0.546369   
    332. A(O  32,Zr  5,O  35)          132.3623         0.519222   
    333. A(Zr  2,Zr  5,O  34)          109.6756         0.357945   
    334. A(O  32,Zr  5,O  33)           81.3297         0.520376   
    335. A(O  11,Zr  5,O  34)          143.4671         0.500882   
    336. A(O   6,Zr  5,O  34)          101.3574         0.512011   
    337. A(Zr  0,Zr  5,O  34)          139.3403         0.374557   
    338. A(Zr  0,Zr  5,Zr  2)           72.4922         0.257590   
    339. A(O   8,Zr  5,O  33)          140.9718         0.485983   
    340. A(O   6,Zr  5,O  33)          106.5300         0.514852   
    341. A(Zr  0,Zr  5,O  33)           75.4742         0.376475   
    342. A(O  11,Zr  5,O  32)          126.3768         0.476435   
    343. A(O   8,Zr  5,O  32)          136.2399         0.459930   
    344. A(Zr  0,Zr  5,O  32)           87.0263         0.357608   
    345. A(Zr  0,Zr  5,O   6)           38.0352         0.354168   
    346. A(O  33,Zr  5,O  34)          136.3606         0.547595   
    347. A(O  32,Zr  5,O  34)           76.9431         0.517498   
    348. A(Zr  2,Zr  5,O  33)          105.8611         0.359751   
    349. A(O  11,Zr  5,O  35)           93.2736         0.502539   
    350. A(O   8,Zr  5,O  35)           77.3922         0.484922   
    351. A(Zr  2,Zr  5,O   8)           36.1362         0.321812   
    352. A(O   8,Zr  5,O  34)           74.5772         0.483335   
    353. A(Zr  2,Zr  5,O  35)           72.3422         0.359027   
    354. A(O  33,Zr  5,O  35)           81.9289         0.549440   
    355. A(Zr  0,Zr  5,O   8)           93.4723         0.336193   
    356. A(Zr  0,Zr  5,O  35)          130.5120         0.375706   
    357. A(O   8,Zr  5,O  11)           69.5602         0.445545   
    358. A(O   6,Zr  5,O  11)           67.9829         0.471473   
    359. A(Zr  2,Zr  5,O  11)           37.1140         0.332171   
    360. A(Zr  0,Zr  5,O  11)           39.7808         0.347192   
    361. A(O  11,Zr  5,O  33)           79.0843         0.503647   
    362. A(O   6,Zr  5,O   8)           83.0359         0.455180   
    363. A(Zr  2,Zr  5,O   6)           84.4922         0.338742   
    364. A(Zr  0,O   6,Zr  5)          105.1127         0.463668   
    365. A(Zr  3,O   6,Zr  5)          147.8647         0.471085   
    366. A(Zr  0,O   6,Zr  3)          106.9803         0.453439   
    367. A(Zr  2,O   7,Zr  4)          147.4079         0.470118   
    368. A(Zr  1,O   7,Zr  4)          107.3410         0.453874   
    369. A(Zr  1,O   7,Zr  2)          105.1221         0.464747   
    370. A(Zr  1,O   8,Zr  5)          134.2797         0.422412   
    371. A(Zr  1,O   8,Zr  2)          102.2633         0.439687   
    372. A(Zr  2,O   8,Zr  5)          106.5100         0.448043   
    373. A(Zr  3,O   9,Zr  4)          109.0039         0.466290   
    374. A(Zr  0,O   9,Zr  4)          128.4281         0.449542   
    375. A(Zr  0,O   9,Zr  3)          107.1779         0.455130   
    376. A(Zr  1,O  10,Zr  3)          128.2904         0.446542   
    377. A(Zr  1,O  10,Zr  4)          107.2075         0.452821   
    378. A(Zr  3,O  10,Zr  4)          108.6164         0.463105   
    379. A(Zr  0,O  11,Zr  2)          134.1834         0.425814   
    380. A(Zr  2,O  11,Zr  5)          106.6030         0.448777   
    381. A(Zr  0,O  11,Zr  5)          102.1438         0.437642   
    382. A(Zr  0,O  12,C  36)          131.8945         0.509134   
    383. A(Zr  0,O  13,C  37)          129.5038         0.505536   
    384. A(Zr  0,O  14,C  38)          142.0672         0.489733   
    385. A(Zr  0,O  15,C  39)          125.9637         0.475655   
    386. A(Zr  1,O  16,C  40)          141.5050         0.486729   
    387. A(Zr  1,O  17,C  41)          126.5228         0.478137   
    388. A(Zr  1,O  18,C  42)          132.0334         0.508760   
    389. A(Zr  1,O  19,C  43)          130.1593         0.504833   
    390. A(C  44,O  20,H  88)           85.4469         0.148812   
    391. A(H  86,O  20,H  90)          103.9794         0.105726   
    392. A(Zr  2,O  20,C  44)          127.7725         0.502359   
    393. A(Zr  2,O  20,H  90)           93.0945         0.197749   
    394. A(H  88,O  20,H  90)           70.5152         0.104736   
    395. A(H  86,O  20,H  88)           50.4625         0.099144   
    396. A(Zr  2,O  20,H  88)          146.2205         0.154955   
    397. A(Zr  2,O  20,H  86)          109.8827         0.159105   
    398. A(C  44,O  20,H  86)           99.7323         0.152576   
    399. A(C  44,O  20,H  90)          120.6282         0.187621   
    400. A(Zr  2,O  21,C  38)          137.7195         0.506806   
    401. A(C  38,O  21,H  72)          125.6266         0.190066   
    402. A(Zr  2,O  21,H  72)           96.6481         0.200149   
    403. A(C  42,O  22,H  70)          104.9573         0.150641   
    404. A(Zr  2,O  22,C  42)          130.2817         0.507240   
    405. A(C  42,O  22,H  90)          146.8579         0.161570   
    406. A(H  70,O  22,H  90)           47.0409         0.100857   
    407. A(Zr  2,O  22,H  70)          119.4881         0.157334   
    408. A(Zr  2,O  22,H  90)           82.8505         0.169450   
    409. A(Zr  2,O  23,H  72)           80.8673         0.157299   
    410. A(C  45,O  23,H  71)           98.8734         0.153612   
    411. A(H  71,O  23,H  72)           46.7798         0.100384   
    412. A(Zr  2,O  23,H  71)          120.1067         0.155178   
    413. A(Zr  2,O  23,C  45)          136.0825         0.476647   
    414. A(C  45,O  23,H  72)          118.9908         0.155682   
    415. A(Zr  3,O  24,C  46)          140.3848         0.482812   
    416. A(Zr  3,O  25,C  37)          125.6957         0.502837   
    417. A(Zr  3,O  26,C  41)          136.3222         0.487112   
    418. A(Zr  3,O  27,C  47)          128.2784         0.503135   
    419. A(Zr  4,O  28,C  47)          128.2991         0.502386   
    420. A(Zr  4,O  29,C  39)          135.7784         0.485097   
    421. A(Zr  4,O  30,C  43)          125.9052         0.503871   
    422. A(Zr  4,O  31,C  45)          140.2155         0.484462   
    423. A(Zr  5,O  32,C  46)          135.4901         0.479514   
    424. A(Zr  5,O  33,C  36)          130.3765         0.506255   
    425. A(Zr  5,O  34,C  40)          138.2022         0.504987   
    426. A(Zr  5,O  35,C  44)          126.6071         0.504138   
    427. A(O  12,C  36,O  33)          127.5254         0.466054   
    428. A(O  33,C  36,H  58)          116.2503         0.364833   
    429. A(O  12,C  36,H  58)          116.2243         0.364792   
    430. A(O  13,C  37,O  25)          126.8908         0.464484   
    431. A(O  25,C  37,H  51)          116.5113         0.363989   
    432. A(O  13,C  37,H  51)          116.5932         0.363735   
    433. A(O  14,C  38,O  21)          129.0537         0.468680   
    434. A(O  21,C  38,H  50)          115.6360         0.366965   
    435. A(O  14,C  38,H  50)          115.3062         0.366799   
    436. A(O  15,C  39,O  29)          129.6858         0.464644   
    437. A(O  29,C  39,H  54)          115.2303         0.364527   
    438. A(O  15,C  39,H  54)          115.0777         0.365056   
    439. A(O  16,C  40,O  34)          129.0821         0.468622   
    440. A(O  34,C  40,H  56)          115.4639         0.366917   
    441. A(O  16,C  40,H  56)          115.4494         0.366734   
    442. A(O  17,C  41,O  26)          129.6427         0.464749   
    443. A(O  26,C  41,H  48)          115.2258         0.364589   
    444. A(O  17,C  41,H  48)          115.1272         0.365089   
    445. A(O  18,C  42,O  22)          127.4480         0.466140   
    446. A(O  22,C  42,H  49)          116.2791         0.364932   
    447. A(O  18,C  42,H  49)          116.2729         0.364832   
    448. A(O  30,C  43,H  52)          116.4953         0.364143   
    449. A(O  19,C  43,H  52)          116.5738         0.363894   
    450. A(O  19,C  43,O  30)          126.9249         0.464756   
    451. A(O  20,C  44,O  35)          127.0500         0.464079   
    452. A(O  35,C  44,H  59)          116.2635         0.363820   
    453. A(O  20,C  44,H  59)          116.6860         0.363661   
    454. A(O  31,C  45,H  55)          114.9384         0.366582   
    455. A(O  23,C  45,H  55)          115.0265         0.366626   
    456. A(O  23,C  45,O  31)          130.0321         0.467411   
    457. A(O  32,C  46,H  57)          114.9626         0.366491   
    458. A(O  24,C  46,H  57)          114.9328         0.366376   
    459. A(O  24,C  46,O  32)          130.0965         0.467197   
    460. A(O  28,C  47,H  53)          116.1802         0.363955   
    461. A(O  27,C  47,H  53)          116.1809         0.363967   
    462. A(O  27,C  47,O  28)          127.6390         0.464430   
    463. A(C  38,H  50,H  87)          105.5291         0.123540   
    464. A(C  45,H  55,H  71)          102.5771         0.114951   
    465. A(H  81,H  59,H  88)           57.8053         0.092688   
    466. A(C  44,H  59,H  81)          118.6956         0.113020   
    467. A(C  44,H  59,H  88)          103.2032         0.119896   
    468. A(H  88,Al 60,H  89)           89.8531         0.339171   
    469. A(H  87,Al 60,H  89)           89.7735         0.339349   
    470. A(Al 63,Al 60,H  89)           76.9682         0.292703   
    471. A(Al 62,Al 60,H  89)           37.1577         0.387991   
    472. A(Al 61,Al 60,H  89)           76.9979         0.292991   
    473. A(H  87,Al 60,H  88)          167.0476         0.338111   
    474. A(Al 63,Al 60,H  88)           20.2402         0.291696   
    475. A(Al 62,Al 60,H  88)           85.9348         0.386513   
    476. A(Al 61,Al 60,H  88)          148.5310         0.291982   
    477. A(H  86,Al 60,H  87)           94.4599         0.355160   
    478. A(Al 62,Al 60,H  87)           85.9574         0.386725   
    479. A(Al 61,Al 60,H  87)           20.2828         0.292127   
    480. A(Al 63,Al 60,H  86)          114.2420         0.305569   
    481. A(Al 61,Al 60,H  86)          114.4333         0.305875   
    482. A(Al 63,Al 60,H  87)          148.6160         0.291840   
    483. A(H  86,Al 60,H  89)          139.1610         0.356293   
    484. A(H  86,Al 60,H  88)           94.2796         0.354971   
    485. A(Al 62,Al 60,Al 63)           66.2379         0.331252   
    486. A(Al 61,Al 60,Al 63)          128.7038         0.254280   
    487. A(Al 61,Al 60,Al 62)           66.2597         0.331594   
    488. A(H  88,Al 60,H  91)           83.6471         0.338950   
    489. A(H  87,Al 60,H  91)           83.7918         0.339128   
    490. A(H  86,Al 60,H  91)          146.5836         0.356058   
    491. A(H  89,Al 60,H  91)           74.2551         0.340192   
    492. A(Al 63,Al 60,H  91)           65.3469         0.292524   
    493. A(Al 62,Al 60,H  91)           37.0975         0.387728   
    494. A(Al 61,Al 60,H  91)           65.3785         0.292812   
    495. A(H  77,Al 61,H  87)           86.1749         0.345761   
    496. A(H  75,Al 61,H  87)          115.1377         0.363314   
    497. A(H  74,Al 61,H  87)          106.7194         0.346588   
    498. A(Al 65,Al 61,H  87)           96.9413         0.279913   
    499. A(Al 62,Al 61,H  87)           69.9819         0.284033   
    500. A(Al 60,Al 61,H  87)           20.4956         0.294991   
    501. A(H  75,Al 61,H  77)          119.9778         0.363736   
    502. A(H  74,Al 61,H  77)          103.7919         0.346984   
    503. A(Al 65,Al 61,H  77)           93.7754         0.280206   
    504. A(Al 62,Al 61,H  77)           16.9640         0.284333   
    505. A(Al 60,Al 61,H  77)           66.6373         0.295308   
    506. A(H  74,Al 61,H  75)          119.5985         0.364621   
    507. A(Al 65,Al 61,H  75)          133.3627         0.293278   
    508. A(Al 62,Al 61,H  75)          130.7709         0.297686   
    509. A(Al 60,Al 61,H  75)          129.4341         0.309411   
    510. A(Al 65,Al 61,H  74)           13.7677         0.280822   
    511. A(Al 62,Al 61,H  74)          102.9953         0.284961   
    512. A(Al 60,Al 61,H  74)          104.3306         0.295972   
    513. A(Al 62,Al 61,Al 65)           90.6522         0.234238   
    514. A(Al 60,Al 61,Al 65)           91.7796         0.242398   
    515. A(Al 60,Al 61,Al 62)           50.0107         0.245709   
    516. A(H  80,Al 62,H  89)           85.8013         0.337784   
    517. A(H  79,Al 62,H  89)          116.1731         0.355443   
    518. A(H  77,Al 62,H  89)           85.8838         0.337772   
    519. A(Al 64,Al 62,H  89)          141.9434         0.271119   
    520. A(Al 63,Al 62,H  89)           74.9508         0.281105   
    521. A(Al 61,Al 62,H  89)           74.9339         0.281132   
    522. A(Al 60,Al 62,H  89)           36.9967         0.386432   
    523. A(H  78,Al 62,H  89)          153.6467         0.339440   
    524. A(H  79,Al 62,H  80)           99.6938         0.355427   
    525. A(H  78,Al 62,H  80)           89.0300         0.339425   
    526. A(Al 64,Al 62,H  80)           86.6026         0.271108   
    527. A(Al 63,Al 62,H  80)           16.7437         0.281094   
    528. A(Al 61,Al 62,H  80)          140.5861         0.281121   
    529. A(Al 60,Al 62,H  80)           80.1224         0.386415   
    530. A(H  78,Al 62,H  79)           90.1662         0.357200   
    531. A(H  77,Al 62,H  79)          103.5488         0.355415   
    532. A(Al 64,Al 62,H  79)          101.8592         0.284034   
    533. A(Al 63,Al 62,H  79)          115.7854         0.294729   
    534. A(Al 61,Al 62,H  79)          119.6129         0.294758   
    535. A(Al 60,Al 62,H  79)          153.1232         0.407525   
    536. A(H  77,Al 62,H  78)           88.8087         0.339413   
    537. A(Al 64,Al 62,H  78)           11.7039         0.272320   
    538. A(Al 63,Al 62,H  78)           93.4601         0.282373   
    539. A(Al 61,Al 62,H  78)           93.3695         0.282400   
    540. A(Al 60,Al 62,H  78)          116.6501         0.388394   
    541. A(Al 64,Al 62,H  77)           86.5960         0.271100   
    542. A(Al 63,Al 62,H  77)          140.5755         0.281085   
    543. A(Al 61,Al 62,H  77)           16.7578         0.281112   
    544. A(Al 60,Al 62,H  77)           80.1236         0.386401   
    545. A(H  77,Al 62,H  80)          156.6605         0.337757   
    546. A(Al 64,Al 62,H  91)           67.9321         0.271421   
    547. A(Al 63,Al 62,Al 64)           87.8848         0.229620   
    548. A(Al 61,Al 62,Al 64)           87.9893         0.229640   
    549. A(Al 60,Al 62,Al 64)          104.9468         0.306718   
    550. A(Al 61,Al 62,Al 63)          124.0867         0.237352   
    551. A(Al 60,Al 62,Al 63)           63.7665         0.318657   
    552. A(Al 60,Al 62,Al 61)           63.7296         0.318689   
    553. A(H  89,Al 62,H  91)           74.0114         0.338211   
    554. A(H  80,Al 62,H  91)           78.4023         0.338197   
    555. A(H  79,Al 62,H  91)          169.6243         0.355885   
    556. A(H  78,Al 62,H  91)           79.6354         0.339856   
    557. A(H  77,Al 62,H  91)           78.3488         0.338185   
    558. A(Al 63,Al 62,H  91)           63.4742         0.281424   
    559. A(Al 61,Al 62,H  91)           63.4615         0.281451   
    560. A(Al 60,Al 62,H  91)           37.0147         0.386926   
    561. A(H  82,Al 63,H  88)          115.1614         0.363294   
    562. A(H  81,Al 63,H  88)          107.4381         0.346544   
    563. A(H  80,Al 63,H  88)           86.1306         0.345740   
    564. A(Al 66,Al 63,H  88)           97.4788         0.279672   
    565. A(Al 62,Al 63,H  88)           69.9702         0.283985   
    566. A(Al 60,Al 63,H  88)           20.4617         0.294679   
    567. A(H  81,Al 63,H  82)          119.0568         0.364610   
    568. A(H  80,Al 63,H  82)          120.1364         0.363749   
    569. A(Al 66,Al 63,H  82)          132.7126         0.293047   
    570. A(Al 62,Al 63,H  82)          130.9729         0.297663   
    571. A(Al 60,Al 63,H  82)          129.3804         0.309106   
    572. A(H  80,Al 63,H  81)          103.6980         0.346972   
    573. A(Al 66,Al 63,H  81)           13.6698         0.280587   
    574. A(Al 62,Al 63,H  81)          103.0593         0.284921   
    575. A(Al 60,Al 63,H  81)          105.0939         0.295666   
    576. A(Al 66,Al 63,H  80)           94.0142         0.279988   
    577. A(Al 62,Al 63,H  80)           16.9493         0.284309   
    578. A(Al 60,Al 63,H  80)           66.5854         0.295020   
    579. A(Al 62,Al 63,Al 66)           90.9747         0.234049   
    580. A(Al 60,Al 63,Al 66)           92.4851         0.242004   
    581. A(Al 60,Al 63,Al 62)           49.9956         0.245465   
    582. A(H  78,Al 64,H  85)           90.9177         0.345279   
    583. A(H  76,Al 64,H  85)          115.1119         0.343600   
    584. A(H  69,Al 64,H  85)           80.3371         0.343438   
    585. A(Al 66,Al 64,H  85)           12.2066         0.274918   
    586. A(Al 65,Al 64,H  85)          104.1625         0.275346   
    587. A(Al 62,Al 64,H  85)           84.5317         0.273216   
    588. A(H  76,Al 64,H  84)          120.7272         0.359791   
    589. A(H  69,Al 64,H  84)           94.8063         0.359619   
    590. A(Al 67,Al 64,H  84)          113.9348         0.304569   
    591. A(Al 66,Al 64,H  84)          129.8084         0.286741   
    592. A(Al 65,Al 64,H  84)          128.9925         0.287196   
    593. A(Al 62,Al 64,H  84)          113.7619         0.284930   
    594. A(H  76,Al 64,H  78)           90.8486         0.345318   
    595. A(H  69,Al 64,H  78)          163.2307         0.345155   
    596. A(Al 67,Al 64,H  78)          144.1023         0.293047   
    597. A(Al 66,Al 64,H  78)           97.5101         0.276173   
    598. A(Al 65,Al 64,H  78)           97.1493         0.276603   
    599. A(Al 62,Al 64,H  78)           11.8029         0.274459   
    600. A(H  69,Al 64,H  76)           80.1488         0.343477   
    601. A(H  78,Al 64,H  84)          101.9591         0.361576   
    602. A(Al 67,Al 64,H  76)           70.8960         0.291711   
    603. A(Al 66,Al 64,H  76)          104.5800         0.274947   
    604. A(Al 65,Al 64,H  76)           12.4217         0.275375   
    605. A(Al 67,Al 64,H  85)           70.9411         0.291680   
    606. A(Al 62,Al 64,H  76)           84.6119         0.273244   
    607. A(Al 67,Al 64,H  69)           19.1292         0.291582   
    608. A(Al 66,Al 64,H  69)           71.4959         0.274829   
    609. A(H  84,Al 64,H  85)          122.1275         0.359749   
    610. A(Al 65,Al 64,H  69)           71.5246         0.275256   
    611. A(Al 62,Al 64,H  69)          151.4288         0.273127   
    612. A(Al 66,Al 64,Al 67)           60.0226         0.237027   
    613. A(Al 65,Al 64,Al 67)           60.0273         0.237368   
    614. A(Al 62,Al 64,Al 67)          132.2998         0.235671   
    615. A(Al 65,Al 64,Al 66)           93.0889         0.225097   
    616. A(Al 62,Al 64,Al 66)           89.3813         0.223542   
    617. A(Al 62,Al 64,Al 65)           89.0876         0.223851   
    618. A(H  74,Al 65,H  76)           88.8820         0.346319   
    619. A(H  73,Al 65,H  76)           91.4245         0.363093   
    620. A(H  72,Al 65,H  76)           84.6087         0.363900   
    621. A(H  71,Al 65,H  76)           84.1147         0.345545   
    622. A(Al 67,Al 65,H  76)           69.3604         0.284139   
    623. A(Al 64,Al 65,H  76)           12.4765         0.276503   
    624. A(Al 61,Al 65,H  76)           80.3385         0.280421   
    625. A(H  73,Al 65,H  74)           95.6306         0.362653   
    626. A(H  72,Al 65,H  74)           85.0678         0.363459   
    627. A(H  71,Al 65,H  74)          167.9734         0.345133   
    628. A(Al 67,Al 65,H  74)          153.3949         0.283826   
    629. A(Al 64,Al 65,H  74)           97.9654         0.276202   
    630. A(Al 61,Al 65,H  74)           13.7304         0.280113   
    631. A(H  71,Al 65,H  73)           94.3094         0.361830   
    632. A(Al 67,Al 65,H  73)           99.8917         0.296526   
    633. A(Al 64,Al 65,H  73)           98.9652         0.288406   
    634. A(Al 61,Al 65,H  73)          106.4170         0.292572   
    635. A(H  71,Al 65,H  72)           84.5511         0.362633   
    636. A(Al 67,Al 65,H  72)           78.0203         0.297137   
    637. A(Al 64,Al 65,H  72)           76.9972         0.288993   
    638. A(Al 61,Al 65,H  72)           73.7024         0.293171   
    639. A(Al 67,Al 65,H  71)           15.8079         0.283240   
    640. A(Al 64,Al 65,H  71)           73.7611         0.275639   
    641. A(Al 61,Al 65,H  71)          154.2527         0.279539   
    642. A(Al 64,Al 65,Al 67)           58.4324         0.230966   
    643. A(Al 61,Al 65,Al 67)          140.0704         0.233932   
    644. A(Al 61,Al 65,Al 64)           87.7934         0.228261   
    645. A(Al 63,Al 66,H  90)           73.2277         0.292823   
    646. A(H  83,Al 66,H  85)           90.9748         0.363101   
    647. A(H  81,Al 66,H  85)           88.4021         0.346347   
    648. A(H  70,Al 66,H  85)           84.0287         0.345554   
    649. A(Al 67,Al 66,H  85)           69.3710         0.283959   
    650. A(Al 64,Al 66,H  85)           12.2625         0.276089   
    651. A(Al 63,Al 66,H  85)           80.0138         0.280215   
    652. A(H  81,Al 66,H  83)           95.5143         0.362644   
    653. A(H  70,Al 66,H  83)           94.9335         0.361801   
    654. A(Al 67,Al 66,H  83)          100.4048         0.296305   
    655. A(Al 64,Al 66,H  83)           98.1284         0.287937   
    656. A(Al 63,Al 66,H  83)          106.2228         0.292324   
    657. A(H  70,Al 66,H  81)          167.1908         0.345126   
    658. A(Al 67,Al 66,H  81)          152.6661         0.283633   
    659. A(Al 64,Al 66,H  81)           97.5754         0.275777   
    660. A(Al 63,Al 66,H  81)           13.6337         0.279896   
    661. A(Al 67,Al 66,H  70)           15.7338         0.283034   
    662. A(Al 64,Al 66,H  70)           73.5911         0.275201   
    663. A(Al 63,Al 66,H  70)          153.5615         0.279308   
    664. A(Al 64,Al 66,Al 67)           58.3928         0.230497   
    665. A(Al 63,Al 66,Al 67)          139.4403         0.233617   
    666. A(Al 63,Al 66,Al 64)           87.6219         0.227780   
    667. A(H  85,Al 66,H  90)           84.7719         0.363775   
    668. A(H  81,Al 66,H  90)           84.5430         0.363316   
    669. A(H  70,Al 66,H  90)           84.4890         0.362471   
    670. A(Al 67,Al 66,H  90)           77.9665         0.296814   
    671. A(Al 64,Al 66,H  90)           77.6565         0.288425   
    672. A(H  70,Al 67,H  71)          117.2172         0.345895   
    673. A(H  69,Al 67,H  71)           86.5858         0.345209   
    674. A(H  68,Al 67,H  71)          120.1850         0.363606   
    675. A(Al 66,Al 67,H  71)          107.1542         0.283623   
    676. A(Al 65,Al 67,H  71)           15.8426         0.283820   
    677. A(Al 64,Al 67,H  71)           76.8943         0.292605   
    678. A(H  69,Al 67,H  70)           86.4121         0.345213   
    679. A(H  68,Al 67,H  70)          119.2776         0.363610   
    680. A(Al 66,Al 67,H  70)           15.7692         0.283626   
    681. A(Al 65,Al 67,H  70)          107.2630         0.283823   
    682. A(Al 64,Al 67,H  70)           76.8075         0.292608   
    683. A(H  68,Al 67,H  69)          114.5356         0.362877   
    684. A(Al 66,Al 67,H  69)           73.0130         0.283107   
    685. A(Al 65,Al 67,H  69)           72.9949         0.283303   
    686. A(Al 64,Al 67,H  69)           19.1631         0.292065   
    687. A(Al 66,Al 67,H  68)          132.1018         0.297045   
    688. A(Al 65,Al 67,H  68)          132.9467         0.297255   
    689. A(Al 64,Al 67,H  68)          133.6980         0.306646   
    690. A(Al 65,Al 67,Al 66)           94.9327         0.236598   
    691. A(Al 64,Al 67,Al 66)           61.5846         0.243254   
    692. A(Al 64,Al 67,Al 65)           61.5402         0.243410   
    693. A(Al 64,H  69,Al 67)          141.7078         0.343921   
    694. A(Al 66,H  70,Al 67)          148.4970         0.345116   
    695. A(O  22,H  70,Al 67)          106.4954         0.139865   
    696. A(O  22,H  70,Al 66)           86.9831         0.139710   
    697. A(Al 65,H  71,Al 67)          148.3495         0.345126   
    698. A(O  23,H  71,H  55)           41.8055         0.095040   
    699. A(H  55,H  71,Al 67)          117.5578         0.118146   
    700. A(H  55,H  71,Al 65)           91.7511         0.118060   
    701. A(O  23,H  71,Al 67)          101.5721         0.142231   
    702. A(O  23,H  71,Al 65)           92.4461         0.142073   
    703. A(O  21,H  72,O  23)           59.2368         0.106773   
    704. A(O  23,H  72,Al 65)           95.7623         0.147693   
    705. A(O  21,H  72,Al 65)          123.4297         0.177788   
    706. A(Al 61,H  74,Al 65)          152.5018         0.346858   
    707. A(Al 64,H  76,Al 65)          155.1018         0.345181   
    708. A(Al 61,H  77,Al 62)          146.2782         0.341916   
    709. A(Al 62,H  78,Al 64)          156.4932         0.344033   
    710. A(Al 62,H  80,Al 63)          146.3069         0.341933   
    711. A(Al 63,H  81,Al 66)          152.6965         0.346847   
    712. A(H  59,H  81,Al 66)          104.2143         0.116140   
    713. A(H  59,H  81,Al 63)           76.0471         0.116239   
    714. A(Al 64,H  85,Al 66)          155.5308         0.345164   
    715. A(O  20,H  86,Al 60)           88.4408         0.144354   
    716. A(Al 60,H  87,Al 61)          139.2216         0.341803   
    717. A(H  50,H  87,Al 61)           89.2634         0.127779   
    718. A(H  50,H  87,Al 60)          121.4960         0.127240   
    719. A(Al 60,H  88,Al 63)          139.2981         0.341597   
    720. A(O  20,H  88,H  59)           43.1936         0.095728   
    721. A(O  20,H  88,Al 63)          110.8383         0.138459   
    722. A(O  20,H  88,Al 60)           84.5472         0.137741   
    723. A(H  59,H  88,Al 63)           85.4584         0.123869   
    724. A(H  59,H  88,Al 60)          125.0500         0.123363   
    725. A(Al 60,H  89,Al 62)          105.8457         0.339102   
    726. A(O  20,H  90,O  22)           62.8038         0.108031   
    727. A(O  22,H  90,Al 66)           95.7395         0.152942   
    728. A(O  20,H  90,Al 66)          129.0981         0.176175   
    729. A(Al 60,H  91,Al 62)          105.8878         0.339297   
    730. D(O   7,Zr  2,Zr  1,Zr  4)     -1.8113         0.010000   
    731. D(Zr  5,Zr  2,Zr  1,Zr  4)    102.8663         0.010000   
    732. D(Zr  5,Zr  2,Zr  1,O   7)    104.6776         0.010000   
    733. D(Zr  4,Zr  3,Zr  0,O   6)   -108.6419         0.010000   
    734. D(O   6,Zr  3,Zr  0,Zr  5)      1.0464         0.010000   
    735. D(Zr  4,Zr  3,Zr  0,Zr  5)   -107.5955         0.010000   
    736. D(Zr  3,Zr  4,Zr  1,Zr  2)   -107.3055         0.010000   
    737. D(Zr  3,Zr  4,Zr  1,O   7)   -109.1484         0.010000   
    738. D(Zr  1,Zr  4,Zr  3,O   6)     68.9802         0.010000   
    739. D(O   7,Zr  4,Zr  1,Zr  2)      1.8429         0.010000   
    740. D(Zr  1,Zr  4,Zr  3,Zr  0)    103.7964         0.010000   
    741. D(O   7,Zr  4,Zr  3,Zr  0)     69.3455         0.010000   
    742. D(Zr  2,Zr  5,Zr  0,O   6)    103.8806         0.010000   
    743. D(O   6,Zr  5,Zr  0,Zr  3)     -1.0323         0.010000   
    744. D(Zr  2,Zr  5,Zr  0,Zr  3)    102.8483         0.010000   
    745. D(Zr  0,Zr  5,Zr  2,Zr  1)    -99.4887         0.010000   
    746. D(O   6,Zr  5,Zr  2,Zr  1)    -62.5524         0.010000   
    747. D(Zr  0,Zr  5,Zr  2,O   7)    -62.7987         0.010000   
    748. D(Zr  3,O   6,Zr  5,Zr  0)    176.9969         0.010000   
    749. D(Zr  0,O   6,Zr  5,Zr  2)    -68.4537         0.010000   
    750. D(Zr  0,O   6,Zr  3,Zr  4)     62.4259         0.010000   
    751. D(Zr  0,O   6,Zr  5,O   8)   -104.7839         0.010000   
    752. D(Zr  0,O   6,Zr  3,O   9)     29.7093         0.010000   
    753. D(Zr  3,O   6,Zr  0,O   9)    -29.2257         0.010000   
    754. D(Zr  5,O   6,Zr  0,Zr  3)    178.3303         0.010000   
    755. D(Zr  3,O   6,Zr  0,Zr  5)   -178.3303         0.010000   
    756. D(Zr  5,O   6,Zr  3,Zr  0)   -176.9686         0.010000   
    757. D(Zr  2,O   7,Zr  1,Zr  4)    177.0631         0.010000   
    758. D(Zr  4,O   7,Zr  1,Zr  2)   -177.0631         0.010000   
    759. D(Zr  1,O   7,Zr  2,Zr  5)    -68.0254         0.010000   
    760. D(Zr  2,O   7,Zr  1,O   8)     32.7778         0.010000   
    761. D(Zr  1,O   7,Zr  4,Zr  3)     62.0967         0.010000   
    762. D(Zr  2,O   7,Zr  4,Zr  1)   -174.7315         0.010000   
    763. D(Zr  1,O   7,Zr  4,O   9)     97.4753         0.010000   
    764. D(Zr  4,O   7,Zr  2,Zr  1)    174.7907         0.010000   
    765. D(Zr  1,O   7,Zr  2,O   8)    -33.6276         0.010000   
    766. D(Zr  5,O   8,Zr  1,Zr  2)    128.1827         0.010000   
    767. D(Zr  1,O   8,Zr  2,O   7)     32.1522         0.010000   
    768. D(Zr  1,O   8,Zr  5,Zr  2)   -126.7611         0.010000   
    769. D(Zr  2,O   8,Zr  5,Zr  0)     53.5457         0.010000   
    770. D(Zr  5,O   8,Zr  2,Zr  1)   -144.0584         0.010000   
    771. D(Zr  1,O   8,Zr  5,Zr  0)    -73.2153         0.010000   
    772. D(Zr  1,O   8,Zr  2,Zr  5)    144.0584         0.010000   
    773. D(Zr  2,O   8,Zr  1,Zr  4)    -52.1984         0.010000   
    774. D(Zr  2,O   8,Zr  1,O   7)    -31.9347         0.010000   
    775. D(Zr  3,O   9,Zr  4,Zr  1)    -47.9745         0.010000   
    776. D(Zr  0,O   9,Zr  4,Zr  3)    132.2202         0.010000   
    777. D(Zr  4,O   9,Zr  3,Zr  0)    142.6098         0.010000   
    778. D(Zr  0,O   9,Zr  4,Zr  1)     84.2457         0.010000   
    779. D(Zr  0,O   9,Zr  3,Zr  4)   -142.6098         0.010000   
    780. D(Zr  4,O   9,Zr  0,Zr  3)   -132.8702         0.010000   
    781. D(Zr  0,O   9,Zr  3,O   6)    -29.5503         0.010000   
    782. D(Zr  3,O   9,Zr  0,O   6)     29.5404         0.010000   
    783. D(Zr  3,O   9,Zr  0,Zr  5)     47.6234         0.010000   
    784. D(Zr  1,O  10,Zr  4,O   7)    -28.9044         0.010000   
    785. D(Zr  4,O  10,Zr  3,Zr  0)    -47.7206         0.010000   
    786. D(Zr  1,O  10,Zr  3,Zr  0)     83.8596         0.010000   
    787. D(Zr  1,O  10,Zr  3,Zr  4)    131.5802         0.010000   
    788. D(Zr  3,O  10,Zr  1,Zr  4)   -132.0889         0.010000   
    789. D(Zr  4,O  10,Zr  1,Zr  2)     47.4820         0.010000   
    790. D(Zr  3,O  10,Zr  1,Zr  2)    -84.6069         0.010000   
    791. D(Zr  3,O  10,Zr  4,Zr  1)    142.0755         0.010000   
    792. D(Zr  1,O  10,Zr  4,Zr  3)   -142.0755         0.010000   
    793. D(Zr  2,O  11,Zr  5,Zr  0)   -143.9095         0.010000   
    794. D(Zr  0,O  11,Zr  5,Zr  2)    143.9095         0.010000   
    795. D(Zr  5,O  11,Zr  2,Zr  1)     53.6148         0.010000   
    796. D(Zr  0,O  11,Zr  2,Zr  5)   -126.5771         0.010000   
    797. D(Zr  0,O  11,Zr  2,Zr  1)    -72.9623         0.010000   
    798. D(Zr  5,O  11,Zr  0,Zr  3)    -52.2800         0.010000   
    799. D(Zr  0,O  11,Zr  5,O   6)     32.6356         0.010000   
    800. D(Zr  2,O  11,Zr  0,Zr  5)    128.0764         0.010000   
    801. D(Zr  2,O  11,Zr  0,Zr  3)     75.7964         0.010000   
    802. D(C  36,O  12,Zr  0,Zr  5)      2.2632         0.010000   
    803. D(C  36,O  12,Zr  0,Zr  3)     51.7950         0.010000   
    804. D(C  37,O  13,Zr  0,Zr  5)   -101.1708         0.010000   
    805. D(C  37,O  13,Zr  0,Zr  3)    -34.4171         0.010000   
    806. D(C  38,O  14,Zr  0,Zr  3)    -52.5365         0.010000   
    807. D(C  38,O  14,Zr  0,Zr  5)     32.7762         0.010000   
    808. D(C  39,O  15,Zr  0,Zr  5)    -30.8848         0.010000   
    809. D(C  39,O  15,Zr  0,Zr  3)    -75.7890         0.010000   
    810. D(C  40,O  16,Zr  1,Zr  4)    -49.1359         0.010000   
    811. D(C  40,O  16,Zr  1,Zr  2)     35.0664         0.010000   
    812. D(C  41,O  17,Zr  1,Zr  4)    -74.8392         0.010000   
    813. D(C  41,O  17,Zr  1,Zr  2)    -25.3912         0.010000   
    814. D(C  42,O  18,Zr  1,Zr  4)     51.1487         0.010000   
    815. D(C  42,O  18,Zr  1,Zr  2)      0.3259         0.010000   
    816. D(C  43,O  19,Zr  1,Zr  4)    -33.3852         0.010000   
    817. D(C  43,O  19,Zr  1,Zr  2)    -99.5004         0.010000   
    818. D(H  90,O  20,Zr  2,Zr  1)    117.7754         0.010000   
    819. D(C  44,O  20,Zr  2,Zr  5)     32.6778         0.010000   
    820. D(C  44,O  20,Zr  2,Zr  1)    -15.6461         0.010000   
    821. D(H  72,O  21,Zr  2,Zr  1)   -128.3329         0.010000   
    822. D(C  38,O  21,Zr  2,Zr  5)    -35.6028         0.010000   
    823. D(C  38,O  21,Zr  2,Zr  1)     50.7657         0.010000   
    824. D(H  90,O  22,Zr  2,Zr  1)   -177.0603         0.010000   
    825. D(C  42,O  22,Zr  2,Zr  5)     68.1997         0.010000   
    826. D(C  42,O  22,Zr  2,Zr  1)      2.0318         0.010000   
    827. D(H  72,O  23,Zr  2,Zr  1)   -171.2518         0.010000   
    828. D(C  45,O  23,Zr  2,Zr  5)     30.1021         0.010000   
    829. D(C  45,O  23,Zr  2,Zr  1)     66.0122         0.010000   
    830. D(C  46,O  24,Zr  3,Zr  4)      2.1858         0.010000   
    831. D(C  46,O  24,Zr  3,Zr  0)    -35.6699         0.010000   
    832. D(C  37,O  25,Zr  3,Zr  4)    -86.2278         0.010000   
    833. D(C  37,O  25,Zr  3,Zr  0)    -26.2397         0.010000   
    834. D(C  41,O  26,Zr  3,Zr  4)     -1.0471         0.010000   
    835. D(C  41,O  26,Zr  3,Zr  0)    -76.7990         0.010000   
    836. D(C  47,O  27,Zr  3,Zr  4)    -27.3621         0.010000   
    837. D(C  47,O  27,Zr  3,Zr  0)     19.6165         0.010000   
    838. D(C  47,O  28,Zr  4,Zr  3)    -27.3423         0.010000   
    839. D(C  47,O  28,Zr  4,Zr  1)     19.6618         0.010000   
    840. D(C  39,O  29,Zr  4,Zr  3)     -2.0706         0.010000   
    841. D(C  39,O  29,Zr  4,Zr  1)    -77.3701         0.010000   
    842. D(C  43,O  30,Zr  4,Zr  3)    -85.3165         0.010000   
    843. D(C  43,O  30,Zr  4,Zr  1)    -25.2124         0.010000   
    844. D(C  45,O  31,Zr  4,Zr  3)      4.0909         0.010000   
    845. D(C  45,O  31,Zr  4,Zr  1)    -34.6616         0.010000   
    846. D(C  46,O  32,Zr  5,Zr  2)     35.0659         0.010000   
    847. D(C  46,O  32,Zr  5,Zr  0)     68.5854         0.010000   
    848. D(C  36,O  33,Zr  5,Zr  2)     67.6683         0.010000   
    849. D(C  36,O  33,Zr  5,Zr  0)      1.0394         0.010000   
    850. D(C  40,O  34,Zr  5,Zr  0)     60.3029         0.010000   
    851. D(C  40,O  34,Zr  5,Zr  2)    -25.4514         0.010000   
    852. D(C  44,O  35,Zr  5,Zr  2)     30.7128         0.010000   
    853. D(C  44,O  35,Zr  5,Zr  0)    -15.8739         0.010000   
    854. D(O  12,C  36,O  33,Zr  5)      0.1118         0.046937   
    855. D(H  58,C  36,O  12,Zr  0)    177.5722         0.046869   
    856. D(O  33,C  36,O  12,Zr  0)     -2.5188         0.046869   
    857. D(H  58,C  36,O  33,Zr  5)   -179.9792         0.046937   
    858. D(H  51,C  37,O  25,Zr  3)   -164.8566         0.046158   
    859. D(O  13,C  37,O  25,Zr  3)     14.3204         0.046158   
    860. D(H  51,C  37,O  13,Zr  0)   -150.5068         0.045741   
    861. D(O  25,C  37,O  13,Zr  0)     30.3168         0.045741   
    862. D(H  50,C  38,O  21,Zr  2)   -175.1089         0.053846   
    863. D(O  14,C  38,O  21,H  72)   -176.9849         0.053846   
    864. D(O  14,C  38,O  21,Zr  2)      4.1167         0.053846   
    865. D(H  50,C  38,O  14,Zr  0)    177.2180         0.048394   
    866. D(O  21,C  38,O  14,Zr  0)     -2.0097         0.048394   
    867. D(H  54,C  39,O  29,Zr  4)   -144.3044         0.045613   
    868. D(O  15,C  39,O  29,Zr  4)     36.6572         0.045613   
    869. D(H  54,C  39,O  15,Zr  0)   -164.3929         0.046482   
    870. D(O  29,C  39,O  15,Zr  0)     14.6467         0.046482   
    871. D(H  56,C  40,O  34,Zr  5)    171.9714         0.048658   
    872. D(O  16,C  40,O  34,Zr  5)     -8.8582         0.048658   
    873. D(H  56,C  40,O  16,Zr  1)   -178.0845         0.048343   
    874. D(O  34,C  40,O  16,Zr  1)      2.7450         0.048343   
    875. D(H  48,C  41,O  26,Zr  3)   -145.8494         0.045700   
    876. D(O  17,C  41,O  26,Zr  3)     34.9580         0.045700   
    877. D(H  48,C  41,O  17,Zr  1)   -164.0366         0.046522   
    878. D(O  26,C  41,O  17,Zr  1)     15.1566         0.046522   
    879. D(H  49,C  42,O  22,Zr  2)    177.2452         0.056667   
    880. D(O  18,C  42,O  22,H  90)    175.6276         0.056667   
    881. D(O  18,C  42,O  22,Zr  2)     -2.7246         0.056667   
    882. D(O  22,C  42,O  18,Zr  1)      1.0331         0.046872   
    883. D(H  49,C  42,O  18,Zr  1)   -178.9367         0.046872   
    884. D(H  52,C  43,O  30,Zr  4)   -165.3990         0.046319   
    885. D(H  52,C  43,O  19,Zr  1)   -151.3559         0.045908   
    886. D(O  30,C  43,O  19,Zr  1)     29.5696         0.045908   
    887. D(O  19,C  43,O  30,Zr  4)     13.6762         0.046319   
    888. D(H  59,C  44,O  35,Zr  5)    158.9777         0.045836   
    889. D(O  20,C  44,O  35,Zr  5)    -21.2879         0.045836   
    890. D(H  59,C  44,O  20,Zr  2)    154.6168         0.059116   
    891. D(O  35,C  44,O  20,H  90)   -147.6752         0.059116   
    892. D(O  35,C  44,O  20,Zr  2)    -25.1166         0.059116   
    893. D(H  55,C  45,O  31,Zr  4)    171.6907         0.047704   
    894. D(O  23,C  45,O  31,Zr  4)     -7.6353         0.047704   
    895. D(H  55,C  45,O  23,Zr  2)    166.6471         0.057562   
    896. D(O  31,C  45,O  23,H  72)   -122.3176         0.057562   
    897. D(O  31,C  45,O  23,Zr  2)    -14.0273         0.057562   
    898. D(H  57,C  46,O  32,Zr  5)    162.8269         0.047706   
    899. D(O  24,C  46,O  32,Zr  5)    -18.2755         0.047706   
    900. D(H  57,C  46,O  24,Zr  3)    174.2839         0.047510   
    901. D(O  32,C  46,O  24,Zr  3)     -4.6139         0.047510   
    902. D(H  53,C  47,O  28,Zr  4)   -159.9747         0.045907   
    903. D(O  27,C  47,O  28,Zr  4)     20.0620         0.045907   
    904. D(H  53,C  47,O  27,Zr  3)   -159.8792         0.045926   
    905. D(O  28,C  47,O  27,Zr  3)     20.0842         0.045926   
    906. D(H  87,H  50,C  38,O  21)    -59.8347         0.114196   
    907. D(H  87,H  50,C  38,O  14)    120.8305         0.114196   
    908. D(H  71,H  55,C  45,O  31)    167.3835         0.115025   
    909. D(H  71,H  55,C  45,O  23)    -13.1860         0.115025   
    910. D(H  81,H  59,C  44,O  20)    -23.6663         0.119557   
    911. D(H  88,H  59,C  44,O  35)   -143.6041         0.119557   
    912. D(H  88,H  59,C  44,O  20)     36.6332         0.119557   
    913. D(Al 65,Al 61,Al 60,Al 62)     89.3585         0.010000   
[...]
  42   2.0000     -10.042969      -273.2831 
  43   2.0000     -10.042739      -273.2768 
  44   2.0000     -10.039559      -273.1903 
  45   2.0000     -10.039391      -273.1857 
  46   2.0000     -10.036743      -273.1137 
  47   2.0000     -10.036356      -273.1031 
  48   2.0000     -10.036054      -273.0949 
  49   2.0000     -10.035445      -273.0783 
  50   2.0000      -3.971491      -108.0698 
  51   2.0000      -3.966857      -107.9437 
  52   2.0000      -3.962388      -107.8221 
  53   2.0000      -3.950933      -107.5104 
  54   2.0000      -3.948421      -107.4420 
  55   2.0000      -3.948017      -107.4310 
  56   2.0000      -3.945295      -107.3569 
  57   2.0000      -3.944314      -107.3302 
  58   2.0000      -2.578569       -70.1664 
  59   2.0000      -2.578227       -70.1571 
  60   2.0000      -2.574555       -70.0572 
  61   2.0000      -2.574335       -70.0512 
  62   2.0000      -2.573704       -70.0341 
  63   2.0000      -2.570160       -69.9376 
  64   2.0000      -2.570005       -69.9334 
  65   2.0000      -2.569434       -69.9178 
  66   2.0000      -2.563780       -69.7640 
  67   2.0000      -2.558289       -69.6146 
  68   2.0000      -2.557210       -69.5852 
  69   2.0000      -2.557120       -69.5828 
  70   2.0000      -2.556921       -69.5774 
  71   2.0000      -2.555566       -69.5405 
  72   2.0000      -2.553927       -69.4959 
  73   2.0000      -2.553809       -69.4927 
  74   2.0000      -2.552997       -69.4706 
  75   2.0000      -2.552415       -69.4547 
  76   2.0000      -2.551865       -69.4398 
  77   2.0000      -2.551488       -69.4295 
  78   2.0000      -2.550991       -69.4160 
  79   2.0000      -2.548403       -69.3456 
  80   2.0000      -2.548102       -69.3374 
  81   2.0000      -2.544579       -69.2415 
  82   2.0000      -2.055420       -55.9308 
  83   2.0000      -2.054505       -55.9059 
  84   2.0000      -2.054282       -55.8998 
  85   2.0000      -2.053777       -55.8861 
  86   2.0000      -2.053690       -55.8838 
  87   2.0000      -2.052904       -55.8624 
  88   2.0000      -1.237575       -33.6761 
  89   2.0000      -1.233940       -33.5772 
  90   2.0000      -1.233859       -33.5750 
  91   2.0000      -1.232493       -33.5378 
  92   2.0000      -1.231121       -33.5005 
  93   2.0000      -1.230913       -33.4948 
  94   2.0000      -1.228420       -33.4270 
  95   2.0000      -1.227532       -33.4028 
  96   2.0000      -1.227124       -33.3918 
  97   2.0000      -1.227017       -33.3888 
  98   2.0000      -1.226745       -33.3814 
  99   2.0000      -1.224858       -33.3301 
 100   2.0000      -1.223119       -33.2828 
 101   2.0000      -1.222955       -33.2783 
 102   2.0000      -1.222204       -33.2579 
 103   2.0000      -1.221918       -33.2501 
 104   2.0000      -1.221533       -33.2396 
 105   2.0000      -1.221253       -33.2320 
 106   2.0000      -1.005139       -27.3512 
 107   2.0000      -1.003043       -27.2942 
 108   2.0000      -1.001732       -27.2585 
 109   2.0000      -1.000383       -27.2218 
 110   2.0000      -1.000302       -27.2196 
 111   2.0000      -0.999324       -27.1930 
 112   2.0000      -0.995710       -27.0946 
 113   2.0000      -0.995222       -27.0814 
 114   2.0000      -0.992132       -26.9973 
 115   2.0000      -0.991846       -26.9895 
 116   2.0000      -0.990869       -26.9629 
 117   2.0000      -0.990197       -26.9446 
 118   2.0000      -0.924793       -25.1649 
 119   2.0000      -0.922485       -25.1021 
 120   2.0000      -0.921550       -25.0766 
 121   2.0000      -0.920090       -25.0369 
 122   2.0000      -0.919508       -25.0211 
 123   2.0000      -0.918400       -24.9909 
 124   2.0000      -0.915811       -24.9205 
 125   2.0000      -0.915581       -24.9142 
 126   2.0000      -0.913486       -24.8572 
 127   2.0000      -0.912908       -24.8415 
 128   2.0000      -0.910583       -24.7782 
 129   2.0000      -0.910027       -24.7631 
 130   2.0000      -0.830637       -22.6028 
 131   2.0000      -0.821699       -22.3596 
 132   2.0000      -0.820842       -22.3363 
 133   2.0000      -0.811326       -22.0773 
 134   2.0000      -0.810522       -22.0554 
 135   2.0000      -0.807562       -21.9749 
 136   2.0000      -0.564796       -15.3689 
 137   2.0000      -0.562379       -15.3031 
 138   2.0000      -0.561739       -15.2857 
 139   2.0000      -0.559849       -15.2343 
 140   2.0000      -0.558463       -15.1965 
 141   2.0000      -0.557833       -15.1794 
 142   2.0000      -0.556225       -15.1357 
 143   2.0000      -0.554867       -15.0987 
 144   2.0000      -0.550451       -14.9785 
 145   2.0000      -0.549796       -14.9607 
 146   2.0000      -0.547902       -14.9092 
 147   2.0000      -0.547283       -14.8923 
 148   2.0000      -0.507417       -13.8075 
 149   2.0000      -0.479492       -13.0476 
 150   2.0000      -0.476463       -12.9652 
 151   2.0000      -0.475586       -12.9414 
 152   2.0000      -0.475135       -12.9291 
 153   2.0000      -0.473220       -12.8770 
 154   2.0000      -0.471992       -12.8435 
 155   2.0000      -0.471401       -12.8275 
 156   2.0000      -0.470696       -12.8083 
 157   2.0000      -0.469670       -12.7804 
 158   2.0000      -0.466531       -12.6950 
 159   2.0000      -0.465954       -12.6793 
 160   2.0000      -0.465405       -12.6643 
 161   2.0000      -0.464268       -12.6334 
 162   2.0000      -0.462453       -12.5840 
 163   2.0000      -0.461755       -12.5650 
 164   2.0000      -0.460510       -12.5311 
 165   2.0000      -0.459543       -12.5048 
 166   2.0000      -0.459437       -12.5019 
 167   2.0000      -0.459001       -12.4901 
 168   2.0000      -0.448363       -12.2006 
 169   2.0000      -0.447170       -12.1681 
 170   2.0000      -0.446752       -12.1568 
 171   2.0000      -0.446413       -12.1475 
 172   2.0000      -0.444898       -12.1063 
 173   2.0000      -0.444517       -12.0959 
 174   2.0000      -0.444102       -12.0846 
 175   2.0000      -0.428111       -11.6495 
 176   2.0000      -0.423293       -11.5184 
 177   2.0000      -0.422348       -11.4927 
 178   2.0000      -0.420832       -11.4514 
 179   2.0000      -0.415130       -11.2963 
 180   2.0000      -0.413255       -11.2452 
 181   2.0000      -0.411931       -11.2092 
 182   2.0000      -0.410440       -11.1686 
 183   2.0000      -0.409068       -11.1313 
 184   2.0000      -0.405969       -11.0470 
 185   2.0000      -0.405654       -11.0384 
 186   2.0000      -0.404156       -10.9976 
 187   2.0000      -0.402127       -10.9424 
 188   2.0000      -0.401005       -10.9119 
 189   2.0000      -0.400420       -10.8960 
 190   2.0000      -0.383942       -10.4476 
 191   2.0000      -0.372268       -10.1299 
 192   2.0000      -0.368179       -10.0187 
 193   2.0000      -0.367121        -9.9899 
 194   2.0000      -0.366928        -9.9846 
 195   2.0000      -0.366134        -9.9630 
 196   2.0000      -0.359838        -9.7917 
 197   2.0000      -0.358983        -9.7684 
 198   2.0000      -0.358757        -9.7623 
 199   2.0000      -0.336420        -9.1545 
 200   2.0000      -0.335596        -9.1320 
 201   2.0000      -0.334771        -9.1096 
 202   2.0000      -0.334050        -9.0900 
 203   2.0000      -0.332838        -9.0570 
 204   2.0000      -0.332276        -9.0417 
 205   2.0000      -0.330796        -9.0014 
 206   2.0000      -0.330383        -8.9902 
 207   2.0000      -0.324535        -8.8311 
 208   2.0000      -0.323528        -8.8036 
 209   2.0000      -0.321607        -8.7514 
 210   2.0000      -0.320492        -8.7210 
 211   2.0000      -0.315516        -8.5856 
 212   2.0000      -0.312224        -8.4960 
 213   2.0000      -0.309508        -8.4221 
 214   2.0000      -0.308446        -8.3932 
 215   2.0000      -0.304973        -8.2987 
 216   2.0000      -0.304329        -8.2812 
 217   2.0000      -0.303214        -8.2509 
 218   2.0000      -0.301813        -8.2128 
 219   2.0000      -0.301085        -8.1929 
 220   2.0000      -0.298745        -8.1293 
 221   2.0000      -0.297517        -8.0959 
 222   2.0000      -0.295930        -8.0527 
 223   2.0000      -0.295069        -8.0292 
 224   2.0000      -0.294427        -8.0118 
 225   2.0000      -0.292664        -7.9638 
 226   2.0000      -0.292205        -7.9513 
 227   2.0000      -0.290012        -7.8916 
 228   2.0000      -0.289017        -7.8645 
 229   2.0000      -0.288882        -7.8609 
 230   2.0000      -0.287606        -7.8262 
 231   2.0000      -0.286600        -7.7988 
 232   2.0000      -0.286504        -7.7962 
 233   2.0000      -0.285475        -7.7682 
 234   2.0000      -0.284911        -7.7528 
 235   2.0000      -0.284228        -7.7342 
 236   2.0000      -0.283488        -7.7141 
 237   2.0000      -0.281588        -7.6624 
 238   2.0000      -0.279517        -7.6061 
 239   2.0000      -0.277980        -7.5642 
 240   2.0000      -0.277848        -7.5606 
 241   2.0000      -0.277247        -7.5443 
 242   2.0000      -0.275985        -7.5099 
 243   2.0000      -0.274902        -7.4805 
 244   2.0000      -0.274339        -7.4651 
 245   2.0000      -0.273621        -7.4456 
 246   2.0000      -0.273161        -7.4331 
 247   2.0000      -0.270059        -7.3487 
 248   2.0000      -0.269621        -7.3368 
 249   2.0000      -0.269166        -7.3244 
 250   2.0000      -0.268027        -7.2934 
 251   2.0000      -0.267341        -7.2747 
 252   2.0000      -0.266151        -7.2423 
 253   2.0000      -0.263866        -7.1802 
 254   2.0000      -0.262388        -7.1399 
 255   2.0000      -0.261813        -7.1243 
 256   2.0000      -0.261584        -7.1181 
 257   2.0000      -0.252081        -6.8595 
 258   2.0000      -0.247024        -6.7219 
 259   2.0000      -0.237469        -6.4619 
 260   2.0000      -0.236949        -6.4477 
 261   2.0000      -0.233393        -6.3510 
 262   0.0000      -0.126367        -3.4386 
 263   0.0000      -0.124870        -3.3979 
 264   0.0000      -0.094007        -2.5581 
 265   0.0000      -0.093823        -2.5530 
 266   0.0000      -0.091045        -2.4774 
 267   0.0000      -0.090197        -2.4544 
 268   0.0000      -0.088887        -2.4187 
 269   0.0000      -0.087720        -2.3870 
 270   0.0000      -0.085650        -2.3307 
 271   0.0000      -0.081544        -2.2189 
 272   0.0000      -0.078877        -2.1463 
*Only the first 10 virtual orbitals were printed.
-------
TIMINGS
-------

Total SCF time: 0 days 0 hours 1 min 10 sec 

Total time                  ....      70.601 sec
Sum of individual times     ....      67.002 sec  ( 94.9%)

SCF preparation             ....       1.598 sec  (  2.3%)
Fock matrix formation       ....      43.786 sec  ( 62.0%)
  Startup                   ....       0.355 sec  (  0.8% of F)
  Split-RI-J                ....      31.163 sec  ( 71.2% of F)
  XC integration            ....      14.680 sec  ( 33.5% of F)
    XC Preparation          ....       0.000 sec  (  0.0% of XC)
    Basis function eval.    ....       4.430 sec  ( 30.2% of XC)
    Density eval.           ....       4.810 sec  ( 32.8% of XC)
    XC-Functional eval.     ....       0.249 sec  (  1.7% of XC)
    XC-Potential eval.      ....       2.952 sec  ( 20.1% of XC)
Diagonalization             ....       0.000 sec  (  0.0%)
Density matrix formation    ....       1.496 sec  (  2.1%)
Total Energy calculation    ....       0.427 sec  (  0.6%)
Population analysis         ....       0.000 sec  (  0.0%)
Orbital Transformation      ....       2.796 sec  (  4.0%)
Orbital Orthonormalization  ....       0.000 sec  (  0.0%)
DIIS solution               ....      10.975 sec  ( 15.5%)
SOSCF solution              ....       5.925 sec  (  8.4%)
Finished LeanSCF after  71.3 sec

Maximum memory used throughout the entire LEANSCF-calculation: 117.2 MB


           ************************************************************
           *        Program running with 24 parallel MPI-processes    *
           *              working on a common directory               *
           ************************************************************

------------------------------------------------------------------------------
                         ORCA PROPERTY INTEGRAL CALCULATIONS
------------------------------------------------------------------------------

GBWName                                   ... run.gbw
Number of atoms                           ...     92
Number of basis functions                 ...    948
Max core memory                           ...   4096 MB

Dipole integrals                          ... YES
Quadrupole integrals                      ...  NO
Linear momentum integrals                 ...  NO
Angular momentum integrals                ...  NO
Higher moments length integrals           ...  NO
Higher moments velocity integrals         ...  NO
Kinetic energy integrals                  ...  NO
GIAO right hand sides                     ...  NO
GIAO dipole derivative integrals          ...  NO
SOC integrals                             ...  NO
EPR diamagnetic integrals (GIAO)          ...  NO
EPR gauge integrals                       ...  NO
Field gradient integrals                  ...  NO (   0 nuclei)
Spin-dipole/Fermi contact integrals       ...  NO (   0 nuclei)
Contact density integrals                 ...  NO (   0 nuclei)
Nucleus-orbit integrals                   ...  NO (   0 nuclei)
Geometric perturbations                   ... YES (  92 nuclei)

Choice of electric origin   ... Center of mass
Position of electric origin ... (  1.8752, -0.6013,  1.2567) 
Choice of magnetic origin   ... GIAO
Position of magnetic origin ... (  0.0000,  0.0000,  0.0000) 

Calculating integrals                     ... Electric Dipole (Length)     done (  0.2 sec)
Calculating integrals                     ... Geometrical perturbation right hand sides

-----------------------
GEOMETRIC PERTURBATIONS (92 nuclei)
-----------------------

MaxCore                            ...   4096 MB
Number of batches                  ...      2

BATCH   0: Atoms    0 -   58 (177 perturbations)
   => H(core) and overlap derivative integrals     ... done (    10.8 sec)
   => Making and storing internal U-coefficients   ... done (     2.4 sec)
   => RI-J derivative integrals                    ... done (   224.2 sec)
   => RI-J response operators                      ... done (    65.6 sec)
   => ECP derivative integrals                     ... done (  1246.9 sec)
   => XC derivative integrals                      ... done (   333.1 sec)
   => XC response operators                        ... done (   146.4 sec)
   => Completing and storing right hand sides      ... done (     1.1 sec)
BATCH   1: Atoms   59 -   91 ( 99 perturbations)
   => H(core) and overlap derivative integrals     ... done (     9.7 sec)
   => Making and storing internal U-coefficients   ... done (     1.3 sec)
   => RI-J derivative integrals                    ... done (   125.1 sec)
   => RI-J response operators                      ... done (    33.5 sec)
   => ECP derivative integrals                     ... done (   691.5 sec)
   => XC derivative integrals                      ... done (    93.6 sec)
   => XC response operators                        ... done (    62.8 sec)
   => Completing and storing right hand sides      ... done (     0.6 sec)
   => Total time for right hand sides = 3082.4 sec

  geometrical perturbations done (3082.4 sec)

Property integrals calculated in 3082.8 sec

Maximum memory used throughout the entire PROPINT-calculation: 3604.0 MB


-------------------------------------------------------------------------------
                          DFT DISPERSION CORRECTION                            
                                                                               
                              DFTD3 V3.1  Rev 1                                
                          USING Becke-Johnson damping                          
-------------------------------------------------------------------------------
The PBE functional is recognized
Active option DFTDOPT                   ...         4   

molecular C6(AA) [au] = 193334.696954 


            DFT-D V3
 parameters
 s6 scaling factor         :     1.0000 
 a1 scaling factor         :     0.4289 
 s8 scaling factor         :     0.7875 
 a2 scaling factor         :     4.4407 
 ad hoc parameters k1-k3   :    16.0000     1.3333    -4.0000 

 Edisp/kcal,au: -114.544067573645  -0.182537571287 
 E6   /kcal   : -71.505568716 
 E8   /kcal   : -43.038498858 
 % E8         :  37.573747615 

-------------------------   ----------------
Dispersion correction           -0.182537571
-------------------------   ----------------

NOTIFICATION: Different basis set in ORCA and otool_gcp:
ORCA: 948  gCP: 990 
If you are NOT using ECPs, check your basis set inputs!
------------------   -----------------
gCP correction             0.446760949
------------------   -----------------

-------------------------   --------------------
FINAL SINGLE POINT ENERGY     -4952.473671751202
-------------------------   --------------------

                                *** OPTIMIZATION RUN DONE ***



           ************************************************************
           *        Program running with 24 parallel MPI-processes    *
           *              working on a common directory               *
           ************************************************************
------------------------------------------------------------------------------
                            ORCA SCF RESPONSE CALCULATION
------------------------------------------------------------------------------

GBWName                                 ... run.gbw
Number of atoms                         ...     92
Number of basis functions               ...    948
Max core memory                         ...   4096 MB

Electric field perturbation             ...  NO
Quadrupolar field perturbation          ...  NO
Magnetic field perturbation (no GIAO)   ...  NO
Magnetic field perturbation (with GIAO) ...  NO
Linear momentum (velocity) perturbation ...  NO
Spin-orbit coupling perturbation        ...  NO
Choice of electric origin               ... Center of mass
Position of electric origin             ...     1.875224    -0.601331     1.256726
Choice of magnetic origin               ... GIAO
Position of magnetic origin             ...     0.000000     0.000000     0.000000
Nuclear geometric perturbations         ... YES ( 276 perturbations)
Nucleus-orbit perturbations             ...  NO (   0 perturbations)
Spin-dipole/Fermi contact perturbations ...  NO (   0 perturbations)

Total number of real perturbations      ...    276
Total number of imaginary perturbations ...      0
Total number of triplet perturbations   ...      0
Total number of SOC perturbations       ...      0

Using XC Grid                  ... (run.grid_cpscf.tmp) 
Recalculating density on grid  ... (run.grho_cpscf0.tmp) done
Calculating the xc-kernel      ... (run.fxc_cpscf0.tmp) done

                                **********************
                                * REAL PERTURBATIONS *
                                **********************



-------------------
SHARK CP-SCF DRIVER
-------------------

Dimension of the orbital basis          ...    948
Dimension of the CPSCF-problem          ... 179732
Number of operators                     ...      1
Max. number of iterations               ...    128
Convergence Tolerance                   ... 1.0e-03
Number of perturbations                 ...    276
Perturbation type                       ... REAL

----------------------------
POPLE LINEAR EQUATION SOLVER
----------------------------

  ITERATION   0: 
ORCA finished by error termination in SCF RESPONSE
Calling Command: mpirun -np 24  /home/mehlhorn/programs/orca6/orca_scfresp_mpi run.respinp.tmp run 1 run 
[file orca_tools/qcmsg.cpp, line 394]: 
  .... aborting the run

