
                                 *****************
                                 * O   R   C   A *
                                 *****************

                                            #,                                       
                                            ###                                      
                                            ####                                     
                                            #####                                    
                                            ######                                   
                                           ########,                                 
                                     ,,################,,,,,                         
                               ,,#################################,,                 
                          ,,##########################################,,             
                       ,#########################################, ''#####,          
                    ,#############################################,,   '####,        
                  ,##################################################,,,,####,       
                ,###########''''           ''''###############################       
              ,#####''   ,,,,##########,,,,          '''####'''          '####       
            ,##' ,,,,###########################,,,                        '##       
           ' ,,###''''                  '''############,,,                           
         ,,##''                                '''############,,,,        ,,,,,,###''
      ,#''                                            '''#######################'''  
     '                                                          ''''####''''         
             ,#######,   #######,   ,#######,      ##                                
            ,#'     '#,  ##    ##  ,#'     '#,    #''#        ,####,    ,#,          
            ##       ##  ##   ,#'  ##            #'  '#       #'       ,# #          
            ##       ##  #######   ##           ,######,      #####,      #          
            '#,     ,#'  ##    ##  '#,     ,#' ,#      #,     #,   #      #          
             '#######'   ##     ##  '#######'  #'      '#     '####' #    #          



                #########################################################
                #                        -***-                          #
                #          Department of theory and spectroscopy        #
                #                                                       #
                #                      Frank Neese                      #
                #                                                       #
                #     Directorship, Architecture, Infrastructure        #
                #                    SHARK, DRIVERS                     #
                #        Core code/Algorithms in most modules           #
                #                                                       #
                #        Max Planck Institute fuer Kohlenforschung      #
                #                Kaiser Wilhelm Platz 1                 #
                #                 D-45470 Muelheim/Ruhr                 #
                #                      Germany                          #
                #                                                       #
                #                  All rights reserved                  #
                #                        -***-                          #
                #########################################################


                         Program Version 6.1.0  -  RELEASE   -
                                (GIT: $679e74b$)
                          ($2025-06-10 18:02:51 +0200$)


 With contributions from (in alphabetic order):
[Max-Planck-Institut fuer Kohlenforschung]                               
  Daniel Aravena         : Magnetic Suceptibility                        
  Michael Atanasov       : Ab Initio Ligand Field Theory (pilot matlab implementation)
  Alexander A. Auer      : GIAO ZORA, VPT2 properties, NMR spectrum      
  Ute Becker             : All parallelization in ORCA, NUMFREQ, NUMCALC 
  Giovanni Bistoni       : ED, misc. LED, open-shell LED, HFLD           
  Dmytro Bykov           : pre 5.0 version of the SCF Hessian            
  Marcos Casanova-Páez   : Triplet and SCS-CIS(D). UHF-(DLPNO)-IP/EA/STEOM-CCSD. UHF-CVS-IP/STEOM-CCSD   
  Vijay G. Chilkuri      : MRCI spin determinant printing, contributions to CSF-ICE 
  Pauline Colinet        : FMM embedding                                 
  Dipayan Datta          : RHF DLPNO-CCSD density                        
  Achintya Kumar Dutta   : EOM-CC, STEOM-CC                              
  Nicolas Foglia         : Exact transition moments, OPA infrastructure, MCD improvements    
  Dmitry Ganyushin       : Spin-Orbit,Spin-Spin,Magnetic field MRCI      
  Miquel Garcia-Rates    : C-PCM and meta-GGA Hessian, CCSD/C-PCM, Gaussian charge scheme 
  Tiago L. C. Gouveia    : GS-ROHF, GS-ROCIS                             
  Yang Guo               : DLPNO-NEVPT2, F12-NEVPT2, CIM, IAO-localization        
  Andreas Hansen         : Spin unrestricted coupled pair/coupled cluster methods 
  Ingolf Harden          : AUTO-CI MPn and infrastructure                
  Benjamin Helmich-Paris : MC-RPA, TRAH-(SCF,CASSCF), AVAS, COSX integrals, SCF dyn. polar., MC-PDFT, srDFT 
  Lee Huntington         : MR-EOM, pCC                                   
  Robert Izsak           : Overlap fitted RIJCOSX, COSX-SCS-MP3, EOM     
  Riya Kayal             : Wick's Theorem for AUTO-CI, AUTO-CI UHF-CCSDT 
  Emily Kempfer          : AUTO-CI RHF CISDT and CCSDT, approximate NEVPT4
  Christian Kollmar      : KDIIS, OOCD, Brueckner-CCSD(T), CCSD density, CASPT2, CASPT2-K, improved NEVPT2 
  Axel Koslowski         : Symmetry handling                             
  Simone Kossmann        : meta-GGA functionals, TD-DFT gradient, OOMP2, (MP2 Hessian; deprecated post 5.0) 
  Lucas Lang             : DCDCAS, Hyperfine gauge corrections, ICE-SOC+SSC
  Marvin Lechner         : AUTO-CI (C++ implementation), FIC-MRCC        
  Spencer Leger          : CASSCF response                               
  Dagmar Lenk            : GEPOL surface, SMD, ORCA-2-JSON               
  Dimitrios Liakos       : Extrapolation schemes; Compound Job, Property file
  Dimitrios Manganas     : Further ROCIS development; embedding schemes. LFT, Crystal Embedding 
  Dimitrios Pantazis     : SARC Basis sets                               
  Anastasios Papadopoulos: AUTO-CI, single reference methods and gradients 
  Taras Petrenko         : pre 6.0 DFT Hessian and TD-DFT gradient,  ECA, NRVS 
  Petra Pikulova         : Analytic Raman intensities                    
  Peter Pinski           : DLPNO-MP2, DLPNO-MP2 Gradient                 
  Shashank Vittal Rao    : ES-AILFT, MagRelax                            
  Christoph Reimann      : Effective Core Potentials                     
  Marius Retegan         : Local ZFS, SOC                                
  Christoph Riplinger    : Optimizer, TS searches, QM/MM, DLPNO-CCSD(T), (RO)-DLPNO pert. Triples 
  Michael Roemelt        : Original ROCIS implementation, recursive CI coupling coefficients
  Masaaki Saitow         : Open-shell DLPNO-CCSD energy and density      
  Barbara Sandhoefer     : DKH picture change effects                    
  Yorick L. A. Schmerwitz: GMF and freeze-and-release deltaSCF, NEB S-IDPP initial path                    
  Kantharuban Sivalingam : CASSCF convergence/infrastructure, NEVPT2, NEVPT3, NEVPT4(SD), FIC-MRCI and CEPA variants
  Bernardo de Souza      : ESD, SOC TD-DFT                               
  Georgi L. Stoychev     : AutoAux, RI-MP2 NMR, DLPNO-MP2 response, X2C  
  Van Anh Tran           : RI-MP2 g-tensors                              
  Willem Van den Heuvel  : Paramagnetic NMR                              
  Zikuan Wang            : NOTCH, Electric field optimization            
  Frank Wennmohs         : Technical directorship and infrastructure     
  Hang Xu                : AUTO-CI-Response properties                   
                                                                         
[FACCTs GmbH]                                                            
  Markus Bursch, Nicolas Foglia, Miquel Garcia-Rates, Ingolf Harden, Hagen Neugebauer, Anastasios Papadopoulos, 
  Christoph Riplinger, Bernardo de Souza, Georgi L. Stoychev                                                    
                                                                 
  APM, various basis sets, CI-OPT, improved COSX, DLPNO-Multilevel,           
  DOCKER, DRACO, updates on ESD, Fragmentator, GOAT, IRC, LR-CPCM, L-BFGS, MBIS, meta-GGA TD-DFT gradient, ML-optimized integration grids, 
  MM, NACMEs, nearIR, NEB, NEB-TS, NL-DFT gradient (VV10), 2- and 3-layer-ONIOM, interface openCOSMO-RS, QMMM,   
  Crystal-QMMM, RESP, rigid body optimization, SF, symmetry and pop. for TD-DFT, various functionals, SOLVATOR                                   
                                                                         
[Other institutions]                                                     
  V. Asgeirsson          : NEB                                           
  Christoph Bannwarth    : sTDA-DFT, sTD-DFT, PBEh-3c, B97-3c, D3        
  Giovanni Bistoni       : ETS/NOCV, ADLD/ADEX, COVALED                  
  Martin Brehm           : Molecular dynamics                            
  Ronald Cardenas        : ETS/NOCV                                      
  Martina Colucci        : COVALED                                       
  Sebastian Ehlert       : rSCAN, r2SCAN, r2SCAN-3c, D4, dhf basis sets  
  Marvin Friede          : D4 for Fr, Ra, Ac-Lr                          
  Lars Goerigk           : TD-DFT with DH, B97 family of functionals     
  Stefan Grimme          : VdW corrections, initial TS optimization, DFT functionals, gCP, sTDA/sTD-DF 
  Waldemar Hujo          : DFT-NL                                        
  H. Jonsson             : NEB                                           
  Holger Kruse           : gCP                                           
  Marcel Mueller         : wB97X-3c, vDZP basis set                      
  Hagen Neugebauer       : wr2SCAN, Native XTB                           
  Gianluca Regni         : ADLD/ADEX                                     
  Tobias Risthaus        : pre 6.0 range-separated hybrid DFT and stability analysis
  Lukas Wittmann         : regularized MP2, r2SCAN double-hybrids, wr2SCAN        
                                                                         
We gratefully acknowledge several colleagues who have allowed us to      
interface, adapt or use parts of their codes:                            
  Ed Valeev, F. Pavosevic, A. Kumar             : LibInt (2-el integral package), F12 methods 
  Garnet Chan, S. Sharma, J. Yang, R. Olivares  : DMRG                   
  Ulf Ekstrom                                   : XCFun DFT Library      
  Mihaly Kallay                                 : mrcc  (arbitrary order and MRCC methods)
  Frank Weinhold                                : gennbo (NPA and NBO analysis)           
  Simon Mueller                                 : openCOSMO-RS                            
  Christopher J. Cramer and Donald G. Truhlar   : smd solvation model                     
  S Lehtola, MJT Oliveira, MAL Marques          : LibXC Library                           
  Liviu Ungur et al                             : ANISO software                          


 Your calculation uses the libint2 library for the computation of 2-el integrals
 For citations please refer to: http://libint.valeyev.net

 Your ORCA version has been built with support for libXC version: 7.0.0
 For citations please refer to: https://libxc.gitlab.io

 This ORCA versions uses:
   CBLAS   interface :  Fast vector & matrix operations
   LAPACKE interface :  Fast linear algebra routines
   SCALAPACK package :  Parallel linear algebra routines
   Shared memory     :  Shared parallel matrices
   BLAS/LAPACK       :  OpenBLAS 0.3.29  USE64BITINT DYNAMIC_ARCH NO_AFFINITY Bulldozer SINGLE_THREADED
        Core in use  :  Bulldozer
   Copyright (c) 2011-2014, The OpenBLAS Project


  ***********************************
  * Starting time: Fri Aug  8 17:13:36 2025
  * Host name:     chromium07
  * Process ID:    135219
  * Working dir.:  /local/scratch/mehlhorn/61801
  ***********************************



***************************************
The coordinates will be read from file: start.xyz
***************************************


Your calculation utilizes the geometrical counterpoise correction gCP
Please cite in your paper:
H.Kruse, S. Grimme J.Chem.Phys., 136, (2012), 154101 
   

Your calculation utilizes the atom-pairwise dispersion correction
with the Becke-Johnson damping scheme (D3BJ)


Warning: RI is on but no J-basis has been assigned. Assigning Def2/J (nothing to worry about!)
================================================================================

cite the ECPs for Zr [Def2-ECP] as follows:
Ce-Yb(ecp-28): M. Dolg, H. Stoll, H.Preuss, J. Chem. Phys., 1989, 90, 1730-1734.
Y-Cd(ecp-28), Hf-Hg(ecp-46): D. Andrae,U. Haeussermann, M. Dolg, H. Stoll, H. Preuss, Theor. Chim. Acta, 1990, 77, 123-141.
In-Sb(ecp-28), Tl-Bi(ecp-46): B. Metz, H. Stoll, M. Dolg, J. Chem. Phys., 2000, 113, 2563-2569.
Te-Xe(ecp-28), Po-Rn(ecp-46): K. A. Peterson, D. Figgen, E. Goll, H. Stoll, M. Dolg, J. Chem. Phys., 2003, 119, 11113-11123.
Rb(ecp-28), Cs(ecp-46): T. Leininger, A. Nicklass, W. Kuechle, H. Stoll, M. Dolg, A. Bergner, Chem. Phys. Lett., 1996, 255, 274-280.
Sr(ecp-28), Ba(ecp-46): M. Kaupp, P. V. Schleyer, H. Stoll and H. Preuss, J. Chem. Phys., 1991, 94, 1360-1366.
La(ecp-46): M. Dolg, H. Stoll, A. Savin, H. Preuss, Theor. Chim. Acta, 1989, 75, 173-194.
Lu(ecp-28): X. Cao, M. Dolg, J. Chem. Phys., 2001, 115, 7348-7355.

ECP parameters for Zr [Def2-ECP] have been obtained from:
TURBOMOLE (7.0.2)

----- Orbital basis set information -----
Your calculation utilizes the basis: def2-SV(P)
   F. Weigend and R. Ahlrichs, Phys. Chem. Chem. Phys. 7, 3297 (2005).

----- AuxJ basis set information -----
Your calculation utilizes the auxiliary basis: def2/J
   H-Rn: F. Weigend, Phys. Chem. Chem. Phys. 8, 1057 (2006).
   Fr-Lr: K. Eichkorn, F. Weigend, O. Treutler, R. Ahlrichs; Theor. Chem. Acc. 97, 119 (1997).

================================================================================
                                        WARNINGS
                       Please study these warnings very carefully!
================================================================================


WARNING: Gradients are needed
  ===> : At least TightSCF should be used for SCF convergence

WARNING: Geometry Optimization
  ===> : Switching off AutoStart
         For restart on a previous wavefunction, please use MOREAD

================================================================================
                                       INPUT FILE
================================================================================
NAME = run.inp
|  1> # Geometry optimization for (AlH3)n cluster
|  2> 
|  3> %pal nprocs 24  end
|  4> 
|  5> %geom MaxIter 500 end
|  6> 
|  7> 
|  8> ! PBE def2-SV(P)
|  9> ! RKS	# closed shell for AlH3
| 10> ! D3    #  dispersion correction
| 11> ! gCP(DFT/SV(P))
| 12> ! Freq 	# Frequency analysis to check the stabiltity of the structures
| 13> 
| 14> ! NoPop # population analysis not necessary	
| 15> 
| 16> ! DEFGRID2
| 17> ! NormalSCF
| 18> ! SloppyOpt
| 19> 
| 20> ! SmallPrint
| 21> 
| 22> 
| 23> * xyzFile 0 1 start.xyz # only maingroup elements H and Al so there should be no net spin
| 24> 
| 25>                          ****END OF INPUT****
================================================================================

                       *****************************
                       * Geometry Optimization Run *
                       *****************************

Geometry optimization settings:
Update method            Update   .... BFGS
Choice of coordinates    CoordSys .... (2022) Redundant Internals
Initial Hessian          InHess   .... Almloef's Model
Max. no of cycles        MaxIter  .... 500

Convergence Tolerances:
Energy Change            TolE     ....  8.0000e-05 Eh
Max. Gradient            TolMAXG  ....  5.0000e-03 Eh/bohr
RMS Gradient             TolRMSG  ....  1.0000e-03 Eh/bohr
Max. Displacement        TolMAXD  ....  3.0000e-02 bohr
RMS Displacement         TolRMSD  ....  2.0000e-02 bohr
Strict Convergence                .... False

------------------------------------------------------------------------------
                        ORCA OPTIMIZATION COORDINATE SETUP
------------------------------------------------------------------------------

The optimization will be done in redundant internal coordinates (2022)
Making redundant internal coordinates   ...  (2022 redundants) done
Evaluating the initial hessian          ...  (Almloef) done
Evaluating the coordinates              ...  done
Calculating the B-matrix                .... done
Calculating the G-matrix                .... done
The number of degrees of freedom        ....  656

    -----------------------------------------------------------------
                    Redundant Internal Coordinates


    -----------------------------------------------------------------
         Definition                    Initial Value    Approx d2E/dq
    -----------------------------------------------------------------
      1. B(Zr  2,Zr  1)                  3.4288         0.035749   
      2. B(Zr  3,Zr  0)                  3.4307         0.035491   
      3. B(Zr  4,Zr  3)                  3.4068         0.038761   
      4. B(Zr  4,Zr  1)                  3.3805         0.042685   
      5. B(Zr  5,Zr  2)                  3.3922         0.040895   
      6. B(Zr  5,Zr  0)                  3.3936         0.040683   
      7. B(O   6,Zr  0)                  2.0905         0.431877   
      8. B(O   6,Zr  3)                  2.1116         0.399719   
      9. B(O   6,Zr  5)                  2.1548         0.341000   
     10. B(O   7,Zr  4)                  2.1721         0.320088   
     11. B(O   7,Zr  2)                  2.1293         0.374581   
     12. B(O   7,Zr  1)                  2.0935         0.427152   
     13. B(O   8,Zr  5)                  2.1715         0.320803   
     14. B(O   8,Zr  2)                  2.1326         0.369983   
     15. B(O   8,Zr  1)                  2.1507         0.346167   
     16. B(O   9,Zr  4)                  2.1696         0.322975   
     17. B(O   9,Zr  3)                  2.1289         0.375056   
     18. B(O   9,Zr  0)                  2.1533         0.342964   
     19. B(O  10,Zr  4)                  2.1186         0.389601   
     20. B(O  10,Zr  3)                  2.0861         0.438885   
     21. B(O  10,Zr  1)                  2.1082         0.404681   
     22. B(O  11,Zr  5)                  2.1176         0.390962   
     23. B(O  11,Zr  2)                  2.0727         0.461062   
     24. B(O  11,Zr  0)                  2.1096         0.402708   
     25. B(O  12,Zr  0)                  1.9899         0.625081   
     26. B(O  13,Zr  0)                  1.9941         0.615408   
     27. B(O  14,Zr  0)                  2.0680         0.469203   
     28. B(O  15,Zr  0)                  1.9994         0.603617   
     29. B(O  16,Zr  1)                  1.9857         0.634810   
     30. B(O  17,Zr  1)                  2.0715         0.463149   
     31. B(O  18,Zr  1)                  1.9991         0.604287   
     32. B(O  19,Zr  1)                  1.9859         0.634368   
     33. B(O  20,Zr  2)                  1.9752         0.659678   
     34. B(O  21,Zr  2)                  2.0617         0.480052   
     35. B(O  22,Zr  2)                  1.9928         0.618458   
     36. B(O  23,Zr  2)                  2.0305         0.538467   
     37. B(O  24,Zr  3)                  2.0374         0.524940   
     38. B(O  25,Zr  3)                  1.9958         0.611723   
     39. B(O  26,Zr  3)                  2.0618         0.480024   
     40. B(O  27,Zr  3)                  1.9741         0.662436   
     41. B(O  28,Zr  4)                  1.9829         0.641249   
     42. B(O  29,Zr  4)                  2.0422         0.515790   
     43. B(O  30,Zr  4)                  1.9842         0.638314   
     44. B(O  31,Zr  4)                  2.0620         0.479660   
     45. B(O  32,Zr  5)                  2.0670         0.470925   
     46. B(O  33,Zr  5)                  1.9809         0.646049   
     47. B(O  34,Zr  5)                  2.0376         0.524591   
     48. B(O  35,Zr  5)                  1.9775         0.654038   
     49. B(C  36,O  33)                  1.3012         0.775311   
     50. B(C  36,O  12)                  1.3003         0.777935   
     51. B(C  37,O  25)                  1.3022         0.772528   
     52. B(C  37,O  13)                  1.3022         0.772622   
     53. B(C  38,O  21)                  1.2971         0.787083   
     54. B(C  38,O  14)                  1.2970         0.787449   
     55. B(C  39,O  29)                  1.2960         0.790503   
     56. B(C  39,O  15)                  1.2967         0.788382   
     57. B(C  40,O  34)                  1.2955         0.791986   
     58. B(C  40,O  16)                  1.2951         0.792913   
     59. B(C  41,O  26)                  1.2972         0.787066   
     60. B(C  41,O  17)                  1.2969         0.787783   
     61. B(C  42,O  22)                  1.3024         0.771981   
     62. B(C  42,O  18)                  1.3026         0.771574   
     63. B(C  43,O  19)                  1.2997         0.779720   
     64. B(C  43,O  30)                  1.3005         0.777477   
     65. B(C  44,O  35)                  1.2985         0.783053   
     66. B(C  44,O  20)                  1.2981         0.784224   
     67. B(C  45,O  31)                  1.2973         0.786712   
     68. B(C  45,O  23)                  1.2988         0.782249   
     69. B(C  46,O  32)                  1.2989         0.782100   
     70. B(C  46,O  24)                  1.3009         0.776417   
     71. B(C  47,O  28)                  1.2987         0.782736   
     72. B(C  47,O  27)                  1.2980         0.784471   
     73. B(H  48,C  41)                  1.0847         0.367220   
     74. B(H  49,C  42)                  1.0920         0.357518   
     75. B(H  50,C  38)                  1.0849         0.366846   
     76. B(H  51,C  37)                  1.0918         0.357756   
     77. B(H  52,C  43)                  1.0912         0.358483   
     78. B(H  53,C  47)                  1.0900         0.360132   
     79. B(H  54,C  39)                  1.0863         0.364995   
     80. B(H  55,C  45)                  1.0866         0.364644   
     81. B(H  56,C  40)                  1.0860         0.365443   
     82. B(H  57,C  46)                  1.0875         0.363384   
     83. B(H  58,C  36)                  1.0917         0.357852   
     84. B(H  59,C  44)                  1.0900         0.360124   
     85. B(Al 61,Al 60)                  2.6250         0.328520   
     86. B(H  62,C  44)                  2.8433         0.010000   
     87. B(H  62,O  35)                  2.4913         0.010000   
     88. B(H  62,O  33)                  2.3305         0.010000   
     89. B(H  62,Al 61)                  1.6715         0.298030   
     90. B(H  62,Al 60)                  1.6742         0.295138   
     91. B(H  63,H  50)                  2.9122         0.010000   
     92. B(H  63,Al 61)                  1.6044         0.381309   
     93. B(H  64,Al 61)                  1.6747         0.294573   
     94. B(H  64,Al 60)                  1.6739         0.295376   
     95. B(H  65,H  59)                  2.7868         0.010000   
     96. B(H  65,Al 60)                  1.6046         0.381111   
     97. B(H  66,H  58)                  2.7498         0.010000   
     98. B(H  66,Al 60)                  1.6044         0.381299   
     99. B(H  67,H  59)                  2.8694         0.010000   
    100. B(H  67,Al 61)                  1.6042         0.381574   
    101. A(O   9,Zr  0,O  12)          141.3890         0.487597   
    102. A(O  13,Zr  0,O  15)           85.7605         0.540408   
    103. A(O   6,Zr  0,O  14)          128.1313         0.482547   
    104. A(O   9,Zr  0,O  15)           74.1310         0.484457   
    105. A(Zr  5,Zr  0,O  11)           36.6829         0.338342   
    106. A(Zr  5,Zr  0,O  13)          125.9336         0.363461   
    107. A(O  12,Zr  0,O  15)          135.5074         0.542004   
    108. A(O   9,Zr  0,O  14)          137.1236         0.462540   
    109. A(Zr  3,Zr  0,O  12)          106.2762         0.356051   
    110. A(O  13,Zr  0,O  14)          132.1229         0.515391   
    111. A(Zr  3,Zr  0,O   6)           35.4743         0.334612   
    112. A(Zr  3,Zr  0,O  13)           71.7735         0.355110   
    113. A(O  12,Zr  0,O  13)           81.4669         0.543992   
    114. A(O  11,Zr  0,O  14)           70.3536         0.476367   
    115. A(Zr  5,Zr  0,O  15)          142.9544         0.362262   
    116. A(O   9,Zr  0,O  11)           88.4660         0.449841   
    117. A(O   9,Zr  0,O  13)           76.5034         0.486192   
    118. A(O  11,Zr  0,O  12)          100.8305         0.502351   
    119. A(O  11,Zr  0,O  15)          106.9636         0.499095   
    120. A(O  14,Zr  0,O  15)           77.1013         0.513528   
    121. A(O   6,Zr  0,O  15)          142.1023         0.505637   
    122. A(Zr  3,Zr  0,O  14)          156.0951         0.339264   
    123. A(O  12,Zr  0,O  14)           80.5312         0.516899   
    124. A(Zr  5,Zr  0,O   6)           37.5883         0.342320   
    125. A(O   6,Zr  0,O  13)           91.8311         0.507465   
    126. A(O   6,Zr  0,O  11)           66.2826         0.469167   
    127. A(Zr  3,Zr  0,Zr  5)           69.9419         0.250091   
    128. A(Zr  3,Zr  0,O  15)          109.7353         0.353947   
    129. A(O  11,Zr  0,O  13)          157.0409         0.500894   
    130. A(Zr  5,Zr  0,O  14)           90.6765         0.347118   
    131. A(Zr  3,Zr  0,O  11)           85.7894         0.330755   
    132. A(O   6,Zr  0,O   9)           68.5668         0.455597   
    133. A(Zr  3,Zr  0,O   9)           36.5159         0.322126   
    134. A(O   6,Zr  0,O  12)           81.0050         0.508945   
    135. A(Zr  5,Zr  0,O  12)           74.3662         0.364432   
    136. A(Zr  5,Zr  0,O   9)           93.5276         0.329442   
    137. A(O   8,Zr  1,O  16)           75.1995         0.489835   
    138. A(O  16,Zr  1,O  17)           77.3001         0.517137   
    139. A(O   7,Zr  1,O  16)          143.4981         0.509368   
    140. A(O   7,Zr  1,O  18)           92.2070         0.504705   
    141. A(O  10,Zr  1,O  17)           70.0738         0.475657   
    142. A(O  16,Zr  1,O  18)           85.8203         0.543705   
    143. A(O   7,Zr  1,O  10)           66.4725         0.468641   
    144. A(O   8,Zr  1,O  10)           86.3691         0.451001   
    145. A(Zr  2,Zr  1,O   8)           36.6426         0.323000   
    146. A(O  18,Zr  1,O  19)           80.9471         0.543633   
    147. A(O  10,Zr  1,O  16)          105.3097         0.504257   
    148. A(O   7,Zr  1,O  17)          126.4031         0.480416   
    149. A(Zr  4,Zr  1,O  17)           88.2190         0.349174   
    150. A(Zr  2,Zr  1,O   7)           36.0614         0.334403   
    151. A(Zr  2,Zr  1,O  19)          105.7254         0.357383   
    152. A(O  17,Zr  1,O  18)          133.1797         0.512388   
    153. A(O  10,Zr  1,O  18)          156.5726         0.499652   
    154. A(Zr  2,Zr  1,O  10)           85.3713         0.331419   
    155. A(O  16,Zr  1,O  19)          134.4849         0.548732   
    156. A(O   8,Zr  1,O  18)           76.4798         0.485389   
    157. A(Zr  4,Zr  1,O  19)           75.3426         0.368375   
    158. A(Zr  4,Zr  1,O   8)           93.7753         0.332583   
    159. A(O  10,Zr  1,O  19)          103.7992         0.504192   
    160. A(O  17,Zr  1,O  19)           80.7254         0.517069   
    161. A(Zr  4,Zr  1,O  16)          142.0788         0.368419   
    162. A(Zr  2,Zr  1,O  18)           71.3288         0.354448   
    163. A(Zr  4,Zr  1,O  18)          127.4427         0.365319   
    164. A(Zr  4,Zr  1,O   7)           38.3992         0.344453   
    165. A(Zr  2,Zr  1,O  17)          155.4430         0.338938   
    166. A(Zr  4,Zr  1,O  10)           36.9964         0.341348   
    167. A(Zr  2,Zr  1,Zr  4)           71.1466         0.252119   
    168. A(O   8,Zr  1,O  17)          137.1857         0.462228   
    169. A(O   7,Zr  1,O  19)           80.6809         0.509301   
    170. A(O   8,Zr  1,O  19)          140.9684         0.489772   
    171. A(O   7,Zr  1,O   8)           68.9435         0.455456   
    172. A(Zr  2,Zr  1,O  16)          110.7869         0.357425   
    173. A(Zr  1,Zr  2,O  21)          156.9550         0.340974   
    174. A(O   8,Zr  2,O  21)          129.9033         0.470978   
    175. A(Zr  5,Zr  2,O  20)           75.2611         0.368139   
    176. A(Zr  5,Zr  2,O   8)           38.3948         0.333893   
    177. A(O  11,Zr  2,O  20)          101.5581         0.520435   
    178. A(O   8,Zr  2,O  20)           80.1085         0.499471   
    179. A(O  22,Zr  2,O  23)           84.5265         0.529381   
    180. A(O   7,Zr  2,O   8)           68.6332         0.450121   
    181. A(O   8,Zr  2,O  22)           91.5980         0.493520   
    182. A(Zr  5,Zr  2,O   7)           91.8244         0.334579   
    183. A(Zr  1,Zr  2,Zr  5)           71.1095         0.250545   
    184. A(O  11,Zr  2,O  23)          106.1336         0.501058   
    185. A(Zr  1,Zr  2,O   8)           37.0054         0.326550   
    186. A(O  20,Zr  2,O  23)          137.2009         0.535859   
    187. A(O   7,Zr  2,O  22)           78.0370         0.494653   
    188. A(Zr  5,Zr  2,O  21)           91.7836         0.348763   
    189. A(O  20,Zr  2,O  21)           81.8830         0.524395   
    190. A(O   8,Zr  2,O  23)          140.8235         0.481036   
    191. A(Zr  5,Zr  2,O  23)          141.4912         0.355603   
    192. A(Zr  1,Zr  2,O  23)          106.3569         0.347609   
    193. A(O  21,Zr  2,O  22)          131.2791         0.518082   
    194. A(O  11,Zr  2,O  22)          157.5587         0.514180   
    195. A(Zr  1,Zr  2,O   7)           35.3640         0.327215   
    196. A(O  21,Zr  2,O  23)           77.1757         0.504840   
    197. A(Zr  1,Zr  2,O  20)          107.4010         0.359770   
    198. A(O   8,Zr  2,O  11)           67.5382         0.467504   
    199. A(O   7,Zr  2,O  11)           86.3219         0.468564   
    200. A(O  11,Zr  2,O  21)           71.0109         0.490487   
    201. A(Zr  5,Zr  2,O  11)           36.3986         0.346400   
    202. A(Zr  1,Zr  2,O  11)           86.3082         0.338683   
    203. A(Zr  5,Zr  2,O  22)          127.3072         0.364093   
    204. A(O   7,Zr  2,O  21)          134.9392         0.472047   
    205. A(O   7,Zr  2,O  23)           72.4392         0.482134   
    206. A(O   7,Zr  2,O  20)          142.0071         0.500620   
    207. A(O  20,Zr  2,O  22)           81.9245         0.550089   
    208. A(Zr  1,Zr  2,O  22)           71.6110         0.355844   
    209. A(O   6,Zr  3,O  10)           85.5274         0.469912   
    210. A(O   9,Zr  3,O  10)           67.0397         0.464460   
    211. A(Zr  4,Zr  3,O  10)           36.2032         0.340475   
    212. A(O  24,Zr  3,O  25)           83.5932         0.525768   
    213. A(O  26,Zr  3,O  27)           81.2644         0.524800   
    214. A(O  10,Zr  3,O  24)          107.9271         0.494147   
    215. A(Zr  0,Zr  3,O  27)          108.5323         0.359582   
    216. A(O  25,Zr  3,O  27)           81.8462         0.549383   
    217. A(O  24,Zr  3,O  27)          135.6576         0.533713   
    218. A(O   9,Zr  3,O  27)           80.7524         0.501127   
    219. A(O   6,Zr  3,O  27)          142.7688         0.507111   
    220. A(Zr  4,Zr  3,O  27)           76.0223         0.365034   
    221. A(O  10,Zr  3,O  27)          101.9873         0.516052   
    222. A(O   9,Zr  3,O  26)          129.0248         0.472152   
    223. A(O  25,Zr  3,O  26)          132.8556         0.517015   
    224. A(O  24,Zr  3,O  26)           78.6449         0.502447   
    225. A(O  10,Zr  3,O  26)           70.8037         0.486027   
    226. A(O   6,Zr  3,O  25)           77.9799         0.499642   
    227. A(Zr  4,Zr  3,O  26)           91.3206         0.345627   
    228. A(Zr  4,Zr  3,O   6)           91.2050         0.335210   
    229. A(O  10,Zr  3,O  25)          156.1297         0.508422   
    230. A(O   9,Zr  3,O  25)           90.7219         0.493765   
    231. A(Zr  4,Zr  3,O   9)           37.9962         0.331687   
    232. A(Zr  4,Zr  3,O  25)          126.2251         0.360103   
    233. A(O   6,Zr  3,O  26)          134.6421         0.477715   
    234. A(Zr  0,Zr  3,O  26)          155.5240         0.340558   
    235. A(Zr  0,Zr  3,Zr  4)           70.3344         0.248336   
    236. A(Zr  4,Zr  3,O  24)          142.9936         0.350875   
    237. A(Zr  0,Zr  3,O   9)           37.0026         0.326894   
    238. A(Zr  0,Zr  3,O  25)           71.5117         0.354748   
    239. A(Zr  0,Zr  3,O   6)           35.0681         0.330348   
    240. A(Zr  0,Zr  3,O  24)          105.9990         0.345703   
    241. A(Zr  0,Zr  3,O  10)           85.0618         0.335508   
    242. A(O   9,Zr  3,O  24)          141.1273         0.479988   
    243. A(O   6,Zr  3,O  24)           72.5634         0.485665   
    244. A(O   6,Zr  3,O   9)           68.6443         0.456600   
    245. A(Zr  1,Zr  4,Zr  3)           72.1958         0.255133   
    246. A(O   9,Zr  4,O  10)           65.7463         0.442313   
    247. A(O   7,Zr  4,O  10)           64.9108         0.441596   
    248. A(Zr  3,Zr  4,O  10)           35.5639         0.333786   
    249. A(O  10,Zr  4,O  28)           94.3117         0.501645   
    250. A(O   9,Zr  4,O  29)           70.7123         0.465478   
    251. A(O  28,Zr  4,O  30)           81.4339         0.550431   
    252. A(O  30,Zr  4,O  31)           81.7945         0.521083   
    253. A(O  29,Zr  4,O  31)           73.6885         0.500734   
    254. A(O   7,Zr  4,O  31)           68.9276         0.458589   
    255. A(O  28,Zr  4,O  31)          129.2533         0.521531   
    256. A(O  10,Zr  4,O  31)          133.4850         0.475400   
    257. A(O   9,Zr  4,O  31)          127.6229         0.459341   
    258. A(Zr  3,Zr  4,O  31)          157.1073         0.345583   
    259. A(Zr  1,Zr  4,O  31)           98.8928         0.351245   
    260. A(O  29,Zr  4,O  30)          130.7565         0.528243   
    261. A(O  10,Zr  4,O  30)           90.9948         0.501217   
    262. A(O   9,Zr  4,O  30)          150.1589         0.484084   
    263. A(O   7,Zr  4,O  30)           87.8861         0.483282   
    264. A(Zr  3,Zr  4,O  30)          113.5246         0.362726   
    265. A(Zr  1,Zr  4,O  30)           71.0180         0.368767   
    266. A(O  28,Zr  4,O  29)           82.1834         0.528700   
    267. A(O  10,Zr  4,O  29)          136.3659         0.481803   
    268. A(O   7,Zr  4,O  29)          120.0877         0.464714   
    269. A(Zr  3,Zr  4,O  29)          104.6543         0.349835   
    270. A(Zr  1,Zr  4,O  29)          153.5606         0.355591   
    271. A(O   9,Zr  4,O  28)           81.9815         0.484495   
    272. A(O   7,Zr  4,O  28)          156.5498         0.483692   
    273. A(Zr  3,Zr  4,O  28)           71.8307         0.363010   
    274. A(O   7,Zr  4,O   9)           97.8576         0.426942   
    275. A(Zr  1,Zr  4,O  28)          119.7869         0.369058   
    276. A(Zr  3,Zr  4,O   9)           37.1614         0.323612   
    277. A(Zr  1,Zr  4,O   9)           96.4146         0.328790   
    278. A(Zr  3,Zr  4,O   7)           93.8064         0.323136   
    279. A(Zr  1,Zr  4,O   7)           36.7751         0.328303   
    280. A(Zr  1,Zr  4,O  10)           36.7860         0.339188   
    281. A(O  11,Zr  5,O  35)           98.3186         0.503821   
    282. A(O  34,Zr  5,O  35)           82.1322         0.532364   
    283. A(O  33,Zr  5,O  35)           82.7556         0.553763   
    284. A(O  32,Zr  5,O  35)          125.4679         0.521665   
    285. A(O   8,Zr  5,O  35)           79.9695         0.485660   
    286. A(O   6,Zr  5,O  35)          162.3014         0.491180   
    287. A(Zr  2,Zr  5,O  35)           73.4707         0.367598   
    288. A(O  33,Zr  5,O  34)          135.7066         0.531132   
    289. A(O  32,Zr  5,O  34)           73.6603         0.500598   
    290. A(O  11,Zr  5,O  34)          136.7962         0.483622   
    291. A(Zr  0,Zr  5,O  35)          126.1953         0.367269   
    292. A(O  32,Zr  5,O  33)           82.0320         0.520464   
    293. A(O   6,Zr  5,O  34)          113.8239         0.471597   
    294. A(Zr  2,Zr  5,O  34)          107.2646         0.354032   
    295. A(Zr  0,Zr  5,O  34)          147.3769         0.353720   
    296. A(O  11,Zr  5,O  33)           86.5495         0.502668   
    297. A(O   8,Zr  5,O  33)          144.7594         0.484558   
    298. A(O   6,Zr  5,O  33)           89.9914         0.490063   
    299. A(Zr  0,Zr  5,O  33)           70.6183         0.366496   
    300. A(O  11,Zr  5,O  32)          132.4058         0.474100   
    301. A(O   8,Zr  5,O  32)          132.7155         0.457240   
    302. A(O   6,Zr  5,O  32)           68.9270         0.462364   
    303. A(Zr  2,Zr  5,O  32)          160.3542         0.347637   
    304. A(Zr  0,Zr  5,O  32)           96.6845         0.347332   
    305. A(Zr  2,Zr  5,O   6)           93.6340         0.329413   
    306. A(Zr  0,Zr  5,O   6)           36.2833         0.329130   
    307. A(Zr  0,Zr  5,Zr  2)           71.7593         0.255343   
    308. A(O   8,Zr  5,O  34)           71.6086         0.466346   
    309. A(O   8,Zr  5,O  11)           66.0521         0.442053   
    310. A(O   6,Zr  5,O  11)           65.0148         0.446965   
    311. A(Zr  2,Zr  5,O  11)           35.5082         0.336969   
    312. A(Zr  0,Zr  5,O  11)           36.5206         0.336677   
    313. A(O   6,Zr  5,O   8)           97.3364         0.431294   
    314. A(Zr  2,Zr  5,O  33)          107.8061         0.366824   
    315. A(Zr  2,Zr  5,O   8)           37.5875         0.326114   
    316. A(Zr  0,Zr  5,O   8)           95.6300         0.325834   
    317. A(Zr  3,O   6,Zr  5)          132.9293         0.448765   
    318. A(Zr  0,O   6,Zr  5)          106.1285         0.455121   
    319. A(Zr  0,O   6,Zr  3)          109.4576         0.468526   
    320. A(Zr  2,O   7,Zr  4)          134.1375         0.438472   
    321. A(Zr  1,O   7,Zr  4)          104.8256         0.449016   
    322. A(Zr  1,O   7,Zr  2)          108.5746         0.462058   
    323. A(Zr  1,O   8,Zr  2)          106.3520         0.443730   
    324. A(Zr  2,O   8,Zr  5)          104.0177         0.437673   
    325. A(Zr  1,O   8,Zr  5)          133.1752         0.432461   
    326. A(Zr  3,O   9,Zr  4)          104.8424         0.439284   
    327. A(Zr  0,O   9,Zr  4)          131.2907         0.432263   
    328. A(Zr  0,O   9,Zr  3)          106.4815         0.444077   
    329. A(Zr  3,O  10,Zr  4)          108.2330         0.467708   
    330. A(Zr  1,O  10,Zr  4)          106.2176         0.460816   
    331. A(Zr  1,O  10,Zr  3)          144.8757         0.470977   
    332. A(Zr  2,O  11,Zr  5)          108.0931         0.472259   
    333. A(Zr  0,O  11,Zr  5)          106.7965         0.460698   
    334. A(Zr  0,O  11,Zr  2)          143.9480         0.474835   
    335. A(Zr  0,O  12,C  36)          125.7308         0.503417   
    336. A(Zr  0,O  13,C  37)          126.8921         0.501316   
    337. A(Zr  0,O  14,C  38)          137.3516         0.478436   
    338. A(Zr  0,O  15,C  39)          138.7277         0.501395   
    339. A(Zr  1,O  16,C  40)          138.5460         0.506667   
    340. A(Zr  1,O  17,C  41)          136.5399         0.477330   
    341. A(Zr  1,O  18,C  42)          126.5719         0.499492   
    342. A(Zr  1,O  19,C  43)          126.1995         0.505018   
    343. A(Zr  2,O  20,C  44)          130.6110         0.509266   
    344. A(Zr  2,O  21,C  38)          137.6232         0.480415   
    345. A(Zr  2,O  22,C  42)          126.8805         0.501700   
    346. A(Zr  2,O  23,C  45)          137.6987         0.490161   
    347. A(Zr  3,O  24,C  46)          136.0328         0.487183   
    348. A(Zr  3,O  25,C  37)          127.3600         0.500745   
    349. A(Zr  3,O  26,C  41)          139.3287         0.480408   
    350. A(Zr  3,O  27,C  47)          128.8846         0.509693   
    351. A(Zr  4,O  28,C  47)          134.3842         0.506400   
    352. A(Zr  4,O  29,C  39)          135.5409         0.487219   
    353. A(Zr  4,O  30,C  43)          131.5101         0.505331   
    354. A(Zr  4,O  31,C  45)          131.6408         0.480301   
    355. A(Zr  5,O  32,C  46)          128.4994         0.478158   
    356. A(Zr  5,O  33,C  36)          130.3799         0.506204   
    357. A(C  36,O  33,H  62)          115.9034         0.183619   
    358. A(Zr  5,O  33,H  62)          107.4543         0.194112   
    359. A(Zr  5,O  34,C  40)          139.2867         0.488916   
    360. A(C  44,O  35,H  62)           91.6961         0.171957   
    361. A(Zr  5,O  35,H  62)          101.7510         0.181207   
    362. A(Zr  5,O  35,C  44)          133.0128         0.508308   
    363. A(O  12,C  36,O  33)          126.8314         0.464842   
    364. A(O  33,C  36,H  58)          116.6442         0.363931   
    365. A(O  12,C  36,H  58)          116.5208         0.364141   
    366. A(O  13,C  37,O  25)          127.3500         0.463954   
    367. A(O  25,C  37,H  51)          116.3221         0.363691   
    368. A(O  13,C  37,H  51)          116.3279         0.363698   
    369. A(O  14,C  38,O  21)          130.1166         0.467165   
    370. A(O  21,C  38,H  50)          114.9080         0.366425   
    371. A(O  14,C  38,H  50)          114.9459         0.366454   
    372. A(O  15,C  39,O  29)          129.1138         0.467638   
    373. A(O  29,C  39,H  54)          115.4201         0.366379   
    374. A(O  15,C  39,H  54)          115.4596         0.366211   
    375. A(O  16,C  40,O  34)          129.0691         0.468290   
    376. A(O  34,C  40,H  56)          115.4684         0.366574   
    377. A(O  16,C  40,H  56)          115.4574         0.366648   
    378. A(O  17,C  41,O  26)          130.1174         0.467199   
    379. A(O  26,C  41,H  48)          114.8960         0.366487   
    380. A(O  17,C  41,H  48)          114.9754         0.366545   
    381. A(O  18,C  42,O  22)          127.2478         0.463779   
    382. A(O  22,C  42,H  49)          116.3658         0.363605   
    383. A(O  18,C  42,H  49)          116.3863         0.363573   
    384. A(O  30,C  43,H  52)          116.5271         0.364215   
    385. A(O  19,C  43,H  52)          116.5160         0.364394   
    386. A(O  19,C  43,O  30)          126.9538         0.465274   
    387. A(H  59,C  44,H  62)           92.2272         0.135976   
    388. A(O  35,C  44,H  62)           61.1426         0.153221   
    389. A(O  20,C  44,H  62)          116.2409         0.153242   
    390. A(O  35,C  44,H  59)          116.2653         0.364945   
    391. A(O  20,C  44,H  59)          116.2803         0.365039   
    392. A(O  20,C  44,O  35)          127.4526         0.466375   
    393. A(O  31,C  45,H  55)          115.2183         0.366017   
    394. A(O  23,C  45,H  55)          115.3400         0.365661   
    395. A(O  23,C  45,O  31)          129.4363         0.466558   
    396. A(O  32,C  46,H  57)          115.1278         0.365432   
    397. A(O  24,C  46,H  57)          115.3007         0.364976   
    398. A(O  24,C  46,O  32)          129.5654         0.465418   
    399. A(O  28,C  47,H  53)          116.3023         0.364921   
    400. A(O  27,C  47,H  53)          116.3524         0.365059   
    401. A(O  27,C  47,O  28)          127.3444         0.466367   
    402. A(C  38,H  50,H  63)           91.3246         0.113501   
    403. A(C  36,H  58,H  66)          114.0069         0.116887   
    404. A(H  65,H  59,H  67)           69.4423         0.092392   
    405. A(C  44,H  59,H  67)           87.9396         0.114284   
    406. A(C  44,H  59,H  65)          111.4171         0.116082   
    407. A(H  65,Al 60,H  66)          159.0876         0.377907   
    408. A(H  64,Al 60,H  66)           98.0116         0.361714   
    409. A(H  62,Al 60,H  66)           98.4656         0.361664   
    410. A(Al 61,Al 60,H  66)          100.6642         0.429764   
    411. A(H  64,Al 60,H  65)           98.2123         0.361684   
    412. A(H  62,Al 60,H  65)           98.0451         0.361634   
    413. A(Al 61,Al 60,H  65)          100.2471         0.429726   
    414. A(H  62,Al 60,H  64)           76.6711         0.346353   
    415. A(Al 61,Al 60,H  64)           38.3907         0.410629   
    416. A(Al 61,Al 60,H  62)           38.2808         0.410570   
    417. A(H  64,Al 61,H  67)          102.7527         0.361590   
    418. A(H  63,Al 61,H  67)          153.1581         0.377988   
    419. A(H  62,Al 61,H  67)           94.7777         0.362311   
    420. A(Al 60,Al 61,H  67)          101.0406         0.429819   
    421. A(H  63,Al 61,H  64)          103.9020         0.361548   
    422. A(H  62,Al 61,H  64)           76.7228         0.346763   
    423. A(Al 60,Al 61,H  64)           38.3706         0.410431   
    424. A(H  62,Al 61,H  63)           94.3243         0.362268   
    425. A(Al 60,Al 61,H  63)          101.7478         0.429766   
    426. A(Al 60,Al 61,H  62)           38.3526         0.411281   
    427. A(O  35,H  62,C  44)           27.1613         0.103122   
    428. A(O  33,H  62,C  44)           88.6736         0.105144   
    429. A(C  44,H  62,Al 61)          108.9489         0.142155   
    430. A(C  44,H  62,Al 60)          114.8987         0.142038   
    431. A(O  33,H  62,O  35)           65.6314         0.109854   
    432. A(O  35,H  62,Al 61)          134.8380         0.157663   
    433. A(O  35,H  62,Al 60)          107.6365         0.157512   
    434. A(O  33,H  62,Al 61)          131.4202         0.167492   
    435. A(O  33,H  62,Al 60)          109.4116         0.167319   
    436. A(Al 60,H  62,Al 61)          103.3666         0.346875   
    437. A(H  50,H  63,Al 61)           89.4420         0.118192   
    438. A(Al 60,H  64,Al 61)          103.2387         0.346242   
    439. A(H  59,H  65,Al 60)          112.8309         0.121399   
    440. A(H  58,H  66,Al 60)          118.6022         0.122413   
    441. A(H  59,H  67,Al 61)          114.5659         0.119255   
    442. D(Zr  5,Zr  2,Zr  1,O   7)    122.7033         0.010000   
    443. D(Zr  5,Zr  2,Zr  1,Zr  4)    102.4043         0.010000   
    444. D(O   7,Zr  2,Zr  1,Zr  4)    -20.2990         0.010000   
    445. D(O   6,Zr  3,Zr  0,Zr  5)     19.7390         0.010000   
    446. D(Zr  4,Zr  3,Zr  0,O   6)   -123.2274         0.010000   
    447. D(Zr  4,Zr  3,Zr  0,Zr  5)   -103.4884         0.010000   
    448. D(Zr  1,Zr  4,Zr  3,Zr  0)    105.1120         0.010000   
    449. D(Zr  3,Zr  4,Zr  1,O   7)   -123.1024         0.010000   
    450. D(Zr  3,Zr  4,Zr  1,Zr  2)   -103.9079         0.010000   
    451. D(O   7,Zr  4,Zr  3,Zr  0)     74.9387         0.010000   
    452. D(O   7,Zr  4,Zr  1,Zr  2)     19.1944         0.010000   
    453. D(Zr  1,Zr  4,Zr  3,O   6)     76.3797         0.010000   
    454. D(Zr  2,Zr  5,Zr  0,Zr  3)    105.4307         0.010000   
    455. D(Zr  2,Zr  5,Zr  0,O   6)    124.1737         0.010000   
    456. D(O   6,Zr  5,Zr  0,Zr  3)    -18.7429         0.010000   
    457. D(O   6,Zr  5,Zr  2,Zr  1)    -75.3101         0.010000   
    458. D(Zr  0,Zr  5,Zr  2,O   7)    -75.5281         0.010000   
    459. D(Zr  0,Zr  5,Zr  2,Zr  1)   -104.6893         0.010000   
    460. D(Zr  3,O   6,Zr  0,O   9)    -20.4665         0.010000   
    461. D(Zr  0,O   6,Zr  3,O   9)     20.6997         0.010000   
    462. D(Zr  5,O   6,Zr  3,Zr  0)   -136.9708         0.010000   
    463. D(Zr  0,O   6,Zr  3,Zr  4)     51.9884         0.010000   
    464. D(Zr  0,O   6,Zr  5,O   8)    -89.5284         0.010000   
    465. D(Zr  5,O   6,Zr  0,Zr  3)    148.6611         0.010000   
    466. D(Zr  3,O   6,Zr  0,Zr  5)   -148.6611         0.010000   
    467. D(Zr  3,O   6,Zr  5,Zr  0)    137.9514         0.010000   
    468. D(Zr  0,O   6,Zr  5,Zr  2)    -51.9384         0.010000   
    469. D(Zr  2,O   7,Zr  1,O   8)     21.2687         0.010000   
    470. D(Zr  1,O   7,Zr  2,Zr  5)    -52.8029         0.010000   
    471. D(Zr  2,O   7,Zr  1,Zr  4)    148.0920         0.010000   
    472. D(Zr  4,O   7,Zr  1,Zr  2)   -148.0920         0.010000   
    473. D(Zr  2,O   7,Zr  4,Zr  1)   -135.7232         0.010000   
    474. D(Zr  1,O   7,Zr  4,O   9)     90.2142         0.010000   
    475. D(Zr  1,O   7,Zr  4,Zr  3)     53.0671         0.010000   
    476. D(Zr  1,O   7,Zr  2,O   8)    -21.5056         0.010000   
    477. D(Zr  4,O   7,Zr  2,Zr  1)    134.6045         0.010000   
    478. D(Zr  2,O   8,Zr  5,Zr  0)     49.9312         0.010000   
    479. D(Zr  1,O   8,Zr  5,Zr  2)   -129.2086         0.010000   
    480. D(Zr  1,O   8,Zr  2,O   7)     20.6409         0.010000   
    481. D(Zr  5,O   8,Zr  2,Zr  1)   -143.9216         0.010000   
    482. D(Zr  5,O   8,Zr  1,Zr  2)    128.4209         0.010000   
    483. D(Zr  1,O   8,Zr  5,Zr  0)    -79.2774         0.010000   
    484. D(Zr  1,O   8,Zr  2,Zr  5)    143.9216         0.010000   
    485. D(Zr  2,O   8,Zr  1,O   7)    -20.9638         0.010000   
    486. D(Zr  2,O   8,Zr  1,Zr  4)    -50.8509         0.010000   
    487. D(Zr  0,O   9,Zr  4,Zr  1)     79.6854         0.010000   
    488. D(Zr  0,O   9,Zr  4,Zr  3)    128.5612         0.010000   
    489. D(Zr  3,O   9,Zr  4,Zr  1)    -48.8758         0.010000   
    490. D(Zr  4,O   9,Zr  3,Zr  0)    142.2147         0.010000   
    491. D(Zr  3,O   9,Zr  0,O   6)     19.9388         0.010000   
    492. D(Zr  0,O   9,Zr  3,Zr  4)   -142.2147         0.010000   
    493. D(Zr  4,O   9,Zr  0,Zr  3)   -127.9787         0.010000   
    494. D(Zr  0,O   9,Zr  3,O   6)    -19.7207         0.010000   
    495. D(Zr  3,O   9,Zr  0,Zr  5)     48.6441         0.010000   
    496. D(Zr  1,O  10,Zr  4,O   7)    -31.7045         0.010000   
    497. D(Zr  1,O  10,Zr  4,Zr  3)   -173.0459         0.010000   
    498. D(Zr  4,O  10,Zr  3,Zr  0)    -63.0094         0.010000   
    499. D(Zr  1,O  10,Zr  3,Zr  4)    168.3424         0.010000   
    500. D(Zr  1,O  10,Zr  3,Zr  0)    105.3330         0.010000   
    501. D(Zr  4,O  10,Zr  1,Zr  2)     64.4498         0.010000   
    502. D(Zr  3,O  10,Zr  1,Zr  4)   -168.4706         0.010000   
    503. D(Zr  3,O  10,Zr  4,Zr  1)    173.0459         0.010000   
    504. D(Zr  3,O  10,Zr  1,Zr  2)   -104.0209         0.010000   
    505. D(Zr  2,O  11,Zr  5,Zr  0)   -170.7740         0.010000   
    506. D(Zr  0,O  11,Zr  5,Zr  2)    170.7740         0.010000   
    507. D(Zr  5,O  11,Zr  2,Zr  1)     62.6635         0.010000   
    508. D(Zr  0,O  11,Zr  2,Zr  5)   -164.8822         0.010000   
    509. D(Zr  0,O  11,Zr  2,Zr  1)   -102.2187         0.010000   
    510. D(Zr  5,O  11,Zr  0,Zr  3)    -61.5206         0.010000   
    511. D(Zr  0,O  11,Zr  5,O   6)     30.1053         0.010000   
    512. D(Zr  2,O  11,Zr  0,Zr  5)    164.9919         0.010000   
    513. D(Zr  2,O  11,Zr  0,Zr  3)    103.4713         0.010000   
    514. D(C  36,O  12,Zr  0,Zr  5)     25.9556         0.010000   
    515. D(C  36,O  12,Zr  0,Zr  3)     89.0370         0.010000   
    516. D(C  37,O  13,Zr  0,Zr  5)    -15.0127         0.010000   
    517. D(C  37,O  13,Zr  0,Zr  3)     31.7815         0.010000   
    518. D(C  38,O  14,Zr  0,Zr  5)     58.7366         0.010000   
    519. D(C  38,O  14,Zr  0,Zr  3)     23.8019         0.010000   
    520. D(C  39,O  15,Zr  0,Zr  5)     71.2515         0.010000   
    521. D(C  39,O  15,Zr  0,Zr  3)    -11.3058         0.010000   
    522. D(C  40,O  16,Zr  1,Zr  4)    -64.3069         0.010000   
    523. D(C  40,O  16,Zr  1,Zr  2)     21.3823         0.010000   
    524. D(C  41,O  17,Zr  1,Zr  4)    -63.0591         0.010000   
    525. D(C  41,O  17,Zr  1,Zr  2)    -30.8357         0.010000   
    526. D(C  42,O  18,Zr  1,Zr  4)     13.1519         0.010000   
    527. D(C  42,O  18,Zr  1,Zr  2)    -33.3464         0.010000   
    528. D(C  43,O  19,Zr  1,Zr  4)    -22.2334         0.010000   
    529. D(C  43,O  19,Zr  1,Zr  2)    -87.3578         0.010000   
    530. D(C  44,O  20,Zr  2,Zr  5)     -1.6044         0.010000   
    531. D(C  44,O  20,Zr  2,Zr  1)    -65.9286         0.010000   
    532. D(C  38,O  21,Zr  2,Zr  5)    -54.2807         0.010000   
    533. D(C  38,O  21,Zr  2,Zr  1)    -13.2421         0.010000   
    534. D(C  42,O  22,Zr  2,Zr  5)     14.8522         0.010000   
    535. D(C  42,O  22,Zr  2,Zr  1)    -32.1269         0.010000   
    536. D(C  45,O  23,Zr  2,Zr  5)    -79.2048         0.010000   
    537. D(C  45,O  23,Zr  2,Zr  1)      0.8296         0.010000   
    538. D(C  46,O  24,Zr  3,Zr  0)      3.5516         0.010000   
    539. D(C  46,O  24,Zr  3,Zr  4)     81.9429         0.010000   
    540. D(C  37,O  25,Zr  3,Zr  4)    -15.4138         0.010000   
    541. D(C  37,O  25,Zr  3,Zr  0)     31.3653         0.010000   
    542. D(C  41,O  26,Zr  3,Zr  4)     44.0615         0.010000   
    543. D(C  41,O  26,Zr  3,Zr  0)      3.6878         0.010000   
    544. D(C  47,O  27,Zr  3,Zr  4)      9.2274         0.010000   
    545. D(C  47,O  27,Zr  3,Zr  0)     72.5346         0.010000   
    546. D(C  47,O  28,Zr  4,Zr  3)     11.6343         0.010000   
    547. D(C  47,O  28,Zr  4,Zr  1)     67.6712         0.010000   
    548. D(C  39,O  29,Zr  4,Zr  3)     53.8562         0.010000   
    549. D(C  39,O  29,Zr  4,Zr  1)    -25.5438         0.010000   
    550. D(C  43,O  30,Zr  4,Zr  3)    -87.0798         0.010000   
    551. D(C  43,O  30,Zr  4,Zr  1)    -27.2386         0.010000   
    552. D(C  45,O  31,Zr  4,Zr  3)     -2.6308         0.010000   
    553. D(C  45,O  31,Zr  4,Zr  1)    -67.4777         0.010000   
    554. D(C  46,O  32,Zr  5,Zr  2)     20.6995         0.010000   
    555. D(C  46,O  32,Zr  5,Zr  0)     73.1767         0.010000   
    556. D(H  62,O  33,Zr  5,Zr  0)   -119.2979         0.010000   
    557. D(C  36,O  33,Zr  5,Zr  2)     93.5098         0.010000   
    558. D(C  36,O  33,Zr  5,Zr  0)     30.9936         0.010000   
    559. D(C  40,O  34,Zr  5,Zr  2)    -41.3430         0.010000   
    560. D(C  40,O  34,Zr  5,Zr  0)     41.6227         0.010000   
    561. D(H  62,O  35,Zr  5,Zr  0)     47.4717         0.010000   
    562. D(C  44,O  35,Zr  5,Zr  2)     -4.5882         0.010000   
    563. D(C  44,O  35,Zr  5,Zr  0)    -56.1442         0.010000   
    564. D(H  58,C  36,O  33,Zr  5)    155.4675         0.050864   
    565. D(O  12,C  36,O  33,H  62)    123.0399         0.050864   
    566. D(O  12,C  36,O  33,Zr  5)    -25.2534         0.050864   
    567. D(H  58,C  36,O  12,Zr  0)    162.9311         0.046339   
    568. D(O  33,C  36,O  12,Zr  0)    -16.3488         0.046339   
    569. D(H  51,C  37,O  25,Zr  3)    157.4231         0.045624   
    570. D(O  13,C  37,O  25,Zr  3)    -22.5614         0.045624   
    571. D(H  51,C  37,O  13,Zr  0)    156.3472         0.045637   
    572. D(O  25,C  37,O  13,Zr  0)    -23.6683         0.045637   
    573. D(H  50,C  38,O  21,Zr  2)   -168.7093         0.047563   
    574. D(O  14,C  38,O  21,Zr  2)     13.3948         0.047563   
    575. D(H  50,C  38,O  14,Zr  0)    165.4888         0.047613   
    576. D(O  21,C  38,O  14,Zr  0)    -16.6159         0.047613   
    577. D(H  54,C  39,O  29,Zr  4)    173.2933         0.048026   
    578. D(O  15,C  39,O  29,Zr  4)     -5.7269         0.048026   
    579. D(H  54,C  39,O  15,Zr  0)    158.2719         0.047739   
    580. D(O  29,C  39,O  15,Zr  0)    -22.7082         0.047739   
    581. D(H  56,C  40,O  34,Zr  5)   -178.5211         0.048228   
    582. D(O  16,C  40,O  34,Zr  5)      0.6073         0.048228   
    583. D(H  56,C  40,O  16,Zr  1)   -168.1569         0.048354   
    584. D(O  34,C  40,O  16,Zr  1)     12.7146         0.048354   
    585. D(H  48,C  41,O  26,Zr  3)   -179.9632         0.047561   
    586. D(O  17,C  41,O  26,Zr  3)     -1.2548         0.047561   
    587. D(H  48,C  41,O  17,Zr  1)   -166.7454         0.047658   
    588. D(O  26,C  41,O  17,Zr  1)     14.5471         0.047658   
    589. D(H  49,C  42,O  22,Zr  2)   -157.4750         0.045553   
    590. D(O  18,C  42,O  22,Zr  2)     22.4655         0.045553   
    591. D(H  49,C  42,O  18,Zr  1)   -154.6623         0.045499   
    592. D(O  22,C  42,O  18,Zr  1)     25.3972         0.045499   
    593. D(H  52,C  43,O  30,Zr  4)   -158.1415         0.046278   
    594. D(O  19,C  43,O  30,Zr  4)     22.5254         0.046278   
    595. D(H  52,C  43,O  19,Zr  1)   -165.7596         0.046576   
    596. D(O  30,C  43,O  19,Zr  1)     13.5735         0.046576   
    597. D(H  59,C  44,O  35,Zr  5)   -175.0185         0.056645   
    598. D(O  20,C  44,O  35,H  62)   -102.3456         0.056645   
    599. D(O  20,C  44,O  35,Zr  5)      5.4892         0.056645   
    600. D(H  59,C  44,O  20,Zr  2)    179.6136         0.052181   
    601. D(O  35,C  44,O  20,Zr  2)     -0.8941         0.052181   
    602. D(H  55,C  45,O  31,Zr  4)   -166.7469         0.047513   
    603. D(O  23,C  45,O  31,Zr  4)     12.3553         0.047513   
    604. D(H  55,C  45,O  23,Zr  2)   -148.5891         0.046914   
    605. D(O  31,C  45,O  23,Zr  2)     32.3095         0.046914   
    606. D(H  57,C  46,O  32,Zr  5)    165.5505         0.046894   
    607. D(O  24,C  46,O  32,Zr  5)    -13.4950         0.046894   
    608. D(H  57,C  46,O  24,Zr  3)    143.3768         0.046138   
    609. D(O  32,C  46,O  24,Zr  3)    -37.5791         0.046138   
    610. D(H  53,C  47,O  28,Zr  4)    170.4400         0.046979   
    611. D(O  27,C  47,O  28,Zr  4)     -9.9117         0.046979   
    612. D(H  53,C  47,O  27,Zr  3)    174.1190         0.047212   
    613. D(O  28,C  47,O  27,Zr  3)     -5.5291         0.047212   
    614. D(H  63,H  50,C  38,O  21)   -107.9061         0.114694   
    615. D(H  63,H  50,C  38,O  14)     70.3194         0.114694   
    616. D(H  66,H  58,C  36,O  33)     14.2872         0.107972   
    617. D(H  66,H  58,C  36,O  12)   -165.0679         0.107972   
    618. D(H  67,H  59,C  44,O  20)     76.6606         0.132510   
    619. D(H  65,H  59,C  44,O  35)    -35.9410         0.132510   
    620. D(H  65,H  59,C  44,O  20)    143.6095         0.132510   
    621. D(H  63,Al 61,Al 60,H  62)     82.0269         0.010000   
    622. D(H  62,Al 61,Al 60,H  65)     90.0290         0.010000   
    623. D(H  62,Al 61,Al 60,H  64)   -179.6513         0.010000   
    624. D(O  33,H  62,Al 61,Al 60)    131.6966         0.010000   
    625. D(Al 60,H  62,Al 61,H  64)     -0.2224         0.010000   
    626. D(Al 60,H  62,Al 61,H  63)   -103.5031         0.010000   
    627. D(O  33,H  62,Al 60,Al 61)   -143.5826         0.010000   
    628. D(Al 61,H  62,Al 60,H  65)    -96.3677         0.010000   
    629. D(Al 61,H  62,Al 60,H  64)      0.2226         0.010000   
    630. D(Al 61,H  62,C  44,O  20)    -44.4030         0.010000   
    631. D(Al 60,H  62,C  44,O  35)     80.0408         0.010000   
    632. D(Al 60,H  62,C  44,O  20)   -159.7965         0.010000   
    633. D(Al 61,H  62,O  35,Zr  5)   -113.8951         0.010000   
    634. D(Al 60,H  62,O  35,C  44)   -110.3729         0.010000   
    635. D(Al 60,H  62,O  35,Zr  5)    114.9404         0.010000   
    636. D(Al 61,H  62,O  33,Zr  5)    117.8460         0.010000   
    637. D(Al 60,H  62,O  33,C  36)     92.2858         0.010000   
    638. D(Al 60,H  62,O  33,Zr  5)   -112.5289         0.010000   
    639. D(H  50,H  63,Al 61,H  62)   -105.7253         0.010000   
    640. D(H  50,H  63,Al 61,Al 60)   -143.7686         0.010000   
    641. D(Al 61,H  63,H  50,C  38)     82.2680         0.010000   
    642. D(Al 60,H  64,Al 61,H  63)     91.4489         0.010000   
    643. D(Al 60,H  64,Al 61,H  62)      0.2223         0.010000   
    644. D(Al 61,H  64,Al 60,H  65)     96.1580         0.010000   
    645. D(Al 61,H  64,Al 60,H  62)     -0.2220         0.010000   
    646. D(H  59,H  65,Al 60,H  62)    -11.0090         0.010000   
    647. D(H  59,H  65,Al 60,Al 61)    -49.7406         0.010000   
    648. D(Al 60,H  65,H  59,H  67)     58.9670         0.010000   
    649. D(Al 60,H  65,H  59,C  44)    -20.1765         0.010000   
    650. D(H  58,H  66,Al 60,H  62)     17.1655         0.010000   
    651. D(H  58,H  66,Al 60,Al 61)     55.9459         0.010000   
    652. D(Al 60,H  66,H  58,C  36)     13.9433         0.010000   
    653. D(H  59,H  67,Al 61,H  62)      0.2451         0.010000   
    654. D(H  59,H  67,Al 61,Al 60)     38.4807         0.010000   
    655. D(Al 61,H  67,H  59,H  65)    -53.6253         0.010000   
    656. D(Al 61,H  67,H  59,C  44)     60.1866         0.010000   
    -----------------------------------------------------------------

Number of atoms                         .... 68
Number of degrees of freedom            .... 656


         *************************************************************
         *                GEOMETRY OPTIMIZATION CYCLE   1            *
         *************************************************************
---------------------------------
CARTESIAN COORDINATES (ANGSTROEM)
---------------------------------
  Zr    -0.436501    2.114827    1.479762
  Zr     0.286445   -2.176653   -1.480562
  Zr     1.585585   -1.308536    1.571499
  Zr    -1.809098    1.228715   -1.536986
  Zr     1.581799    0.938729   -1.690836
  Zr    -1.789762   -0.990545    1.684002
  O     -1.793369    0.833833    0.537290
  O      1.623843   -0.887270   -0.515329
  O     -0.190583   -1.990980    0.608375
  O     -0.021369    1.940216   -0.625886
  O     -0.239927   -0.141760   -1.644174
  O      0.042686    0.070789    1.685986
  O     -1.953607    2.273973    2.757521
  O     -1.314836    3.724970    0.697147
  O      0.580943    1.814881    3.254951
  O      1.283024    3.089629    1.178858
  O     -1.432416   -3.147094   -1.264566
  O     -0.659777   -1.835589   -3.291481
  O      1.133084   -3.792267   -0.662431
  O      1.845737   -2.361790   -2.696284
  O      0.995580   -2.671317    2.873875
  O      1.812773   -0.188736    3.287655
  O      2.630578   -2.848212    0.858380
  O      3.270386   -0.240376    1.192924
  O     -3.511841    0.199426   -1.098530
  O     -2.828107    2.783218   -0.810224
  O     -2.032446    0.073475   -3.230018
  O     -1.276728    2.567898   -2.886114
  O      0.998282    2.151985   -3.146690
  O      2.286090    2.683651   -0.897262
  O      2.215909   -0.129665   -3.237893
  O      3.486839    0.538390   -1.010964
  O     -3.712906   -0.450332    1.152951
  O     -2.247549    0.034672    3.315966
  O     -2.580822   -2.586305    0.694294
  O     -1.312202   -2.388386    2.998794
  C     -2.438868    1.310775    3.483897
  C     -2.372214    3.747046   -0.062570
  C      1.454603    0.979011    3.724307
  C      2.106753    3.335878    0.208162
  C     -2.366123   -3.281974   -0.377224
  C     -1.561949   -1.020877   -3.743461
  C      2.185760   -3.812597    0.104463
  C      2.399796   -1.408693   -3.384654
  C     -0.190552   -2.961585    3.314318
  C      3.928391    0.179971    0.155005
  C     -4.164249   -0.114169   -0.017671
  C     -0.115763    2.753242   -3.436331
  H     -1.974728   -1.285661   -4.710939
  H      2.758781   -4.742033    0.117527
  H      1.940176    1.292139    4.642611
  H     -2.940699    4.679069   -0.074228
  H      3.084775   -1.714835   -4.177026
  H     -0.071631    3.493279   -4.235358
  H      2.746682    4.202620    0.347265
  H      5.004473    0.255088    0.285679
  H     -3.075878   -4.082342   -0.564395
  H     -5.247793   -0.107740   -0.110457
  H     -3.063336    1.605077    4.329620
  H     -0.251140   -3.774680    4.037689
  Al    -2.583597   -1.722857    6.077367
  Al    -0.189949   -0.660790    6.259040
  H     -1.343979   -1.107417    5.135364
  H     -0.518950    0.906028    6.154122
  H     -1.431135   -1.270164    7.203845
  H     -2.198835   -3.276733    5.967592
  H     -3.498694   -0.407129    6.152537
  H      0.736452   -1.948141    6.018056

----------------------------
CARTESIAN COORDINATES (A.U.)
----------------------------
  NO LB      ZA    FRAG     MASS         X           Y           Z
   0 Zr   12.0000*   0    91.220   -0.824868    3.996443    2.796346
   1 Zr   12.0000*   0    91.220    0.541303   -4.113278   -2.797858
   2 Zr   12.0000*   0    91.220    2.996321   -2.472774    2.969703
   3 Zr   12.0000*   0    91.220   -3.418700    2.321934   -2.904482
   4 Zr   12.0000*   0    91.220    2.989168    1.773940   -3.195218
   5 Zr   12.0000*   0    91.220   -3.382160   -1.871858    3.182303
   6 O     8.0000    0    15.999   -3.388976    1.575716    1.015331
   7 O     8.0000    0    15.999    3.068618   -1.676697   -0.973831
   8 O     8.0000    0    15.999   -0.360149   -3.762406    1.149662
   9 O     8.0000    0    15.999   -0.040381    3.666477   -1.182753
  10 O     8.0000    0    15.999   -0.453397   -0.267887   -3.107038
  11 O     8.0000    0    15.999    0.080665    0.133772    3.186052
  12 O     8.0000    0    15.999   -3.691783    4.297185    5.210960
  13 O     8.0000    0    15.999   -2.484680    7.039173    1.317417
  14 O     8.0000    0    15.999    1.097823    3.429628    6.150965
  15 O     8.0000    0    15.999    2.424564    5.838553    2.227719
  16 O     8.0000    0    15.999   -2.706874   -5.947145   -2.389683
  17 O     8.0000    0    15.999   -1.246798   -3.468761   -6.219998
  18 O     8.0000    0    15.999    2.141218   -7.166345   -1.251814
  19 O     8.0000    0    15.999    3.487938   -4.463136   -5.095237
  20 O     8.0000    0    15.999    1.881373   -5.048058    5.430837
  21 O     8.0000    0    15.999    3.425645   -0.356659    6.212767
  22 O     8.0000    0    15.999    4.971072   -5.382341    1.622103
  23 O     8.0000    0    15.999    6.180134   -0.454244    2.254299
  24 O     8.0000    0    15.999   -6.636417    0.376860   -2.075920
  25 O     8.0000    0    15.999   -5.344348    5.259520   -1.531102
  26 O     8.0000    0    15.999   -3.840767    0.138848   -6.103850
  27 O     8.0000    0    15.999   -2.412667    4.852624   -5.453965
  28 O     8.0000    0    15.999    1.886480    4.066662   -5.946382
  29 O     8.0000    0    15.999    4.320085    5.071366   -1.695579
  30 O     8.0000    0    15.999    4.187462   -0.245031   -6.118730
  31 O     8.0000    0    15.999    6.589170    1.017409   -1.910445
  32 O     8.0000    0    15.999   -7.016376   -0.851004    2.178762
  33 O     8.0000    0    15.999   -4.247251    0.065521    6.266267
  34 O     8.0000    0    15.999   -4.877047   -4.887409    1.312025
  35 O     8.0000    0    15.999   -2.479702   -4.513395    5.666899
  36 C     6.0000    0    12.011   -4.608793    2.477006    6.583612
  37 C     6.0000    0    12.011   -4.482834    7.080891   -0.118240
  38 C     6.0000    0    12.011    2.748801    1.850063    7.037920
  39 C     6.0000    0    12.011    3.981186    6.303896    0.393369
  40 C     6.0000    0    12.011   -4.471324   -6.202031   -0.712850
  41 C     6.0000    0    12.011   -2.951655   -1.929178   -7.074117
  42 C     6.0000    0    12.011    4.130487   -7.204765    0.197406
  43 C     6.0000    0    12.011    4.534957   -2.662044   -6.396069
  44 C     6.0000    0    12.011   -0.360092   -5.596585    6.263153
  45 C     6.0000    0    12.011    7.423583    0.340095    0.292917
  46 C     6.0000    0    12.011   -7.869290   -0.215748   -0.033393
  47 C     6.0000    0    12.011   -0.218760    5.202873   -6.493724
  48 H     1.0000    0     1.008   -3.731695   -2.429547   -8.902384
  49 H     1.0000    0     1.008    5.213340   -8.961144    0.222093
  50 H     1.0000    0     1.008    3.666401    2.441789    8.773263
  51 H     1.0000    0     1.008   -5.557116    8.842159   -0.140271
  52 H     1.0000    0     1.008    5.829381   -3.240568   -7.893434
  53 H     1.0000    0     1.008   -0.135363    6.601341   -8.003667
  54 H     1.0000    0     1.008    5.190477    7.941801    0.656235
  55 H     1.0000    0     1.008    9.457083    0.482047    0.539855
  56 H     1.0000    0     1.008   -5.812568   -7.714508   -1.066552
  57 H     1.0000    0     1.008   -9.916892   -0.203599   -0.208734
  58 H     1.0000    0     1.008   -5.788865    3.033157    8.181796
  59 H     1.0000    0     1.008   -0.474585   -7.133112    7.630126
  60 Al   13.0000    0    26.982   -4.882291   -3.255728   11.484559
  61 Al   13.0000    0    26.982   -0.358952   -1.248713   11.827872
  62 H     1.0000    0     1.008   -2.539752   -2.092715    9.704431
  63 H     1.0000    0     1.008   -0.980674    1.712145   11.629604
  64 H     1.0000    0     1.008   -2.704454   -2.400263   13.613295
  65 H     1.0000    0     1.008   -4.155196   -6.192128   11.277114
  66 H     1.0000    0     1.008   -6.611573   -0.769362   11.626611
  67 H     1.0000    0     1.008    1.391692   -3.681453   11.372478
* core charge reduced due to ECP

--------------------------------
INTERNAL COORDINATES (ANGSTROEM)
--------------------------------
 Zr     0   0   0     0.000000000000     0.00000000     0.00000000
 Zr     1   0   0     5.263361291048     0.00000000     0.00000000
 Zr     2   1   0     3.428771390751    49.07741431     0.00000000
 Zr     1   2   3     3.430741087772    49.44264417   181.77560603
 Zr     2   1   3     3.380497210991    48.41053174   258.60432945
 Zr     3   2   1     3.392158898739    71.10954827    51.62267874
 O      1   2   3     2.090523512529    48.39205726   229.43514679
 O      2   1   3     2.093517952031    47.64363432   311.10107450
 O      3   2   1     2.132629761246    37.00540389    74.36377295
 O      4   1   2     2.128923053066    37.00262751   285.39687844
 O      4   1   2     2.086141411209    85.06179110   342.99036216
 O      3   2   1     2.072723113916    86.30822975    17.76444597
 O      1   2   3     1.989875850106   122.07914984   265.97598743
 O      1   2   3     1.994121211197   119.87527059   166.87901669
 O      1   2   3     2.067958670234   107.27582068   355.49504761
 O      1   2   3     1.999387512899   101.23009217    75.32393524
 O      2   1   3     1.985671941346   102.61505227   106.69567147
 O      2   1   3     2.071493782500   107.13982931   187.09776499
 O      2   1   3     1.999085569067   119.13950170    14.44570672
 O      2   1   3     1.985861493091   121.88273233   276.70877082
 O      3   2   1     1.975212067010   107.40097068   118.72810398
 O      3   2   1     2.061736157319   156.95495879     7.70633456
 O      3   2   1     1.992775646133    71.61100628   193.69814511
 O      3   2   1     2.030477630558   106.35686276   272.02497676
 O      4   1   2     2.037403306629   105.99899264    90.24563509
 O      4   1   2     1.995756108386    71.51172427   167.63804473
 O      4   1   2     2.061752001890   155.52399613   352.45850809
 O      4   1   2     1.974076102129   108.53234301   241.98472396
 O      5   2   1     1.982924920231   119.78691105   251.73827652
 O      5   2   1     2.042190099757   153.56055693    34.78777259
 O      5   2   1     1.984173299685    71.01801531   183.97207304
 O      5   2   1     2.061958476152    98.89278110   105.89457784
 O      6   3   2     2.066961261880   160.35420390   311.34737982
 O      6   3   2     1.980894692672   107.80605095   193.53009411
 O      6   3   2     2.037584411113   107.26459766    41.02209639
 O      6   3   2     1.977549217518    73.47066347   117.03172337
 C     13   1   2     1.300326701001   125.73083173    37.09144380
 C     14   1   2     1.302192153657   126.89212798    43.64797821
 C     15   1   2     1.297017920301   137.35163997    11.96590886
 C     30   5   2     1.295964264549   135.54089410   334.45620203
 C     17   2   1     1.295135559844   138.54601245   330.65578436
 C     18   2   1     1.296902480705   136.53987189   342.14652160
 C     23   3   2     1.302418128416   126.88054223   327.87309253
 C     20   2   1     1.299703003907   126.19949441   323.86622816
 C     21   3   2     1.298135120413   130.61097204   294.07139281
 C     32   5   2     1.297272744184   131.64076259   292.52227964
 C     33   6   3     1.298873159974   128.49941035    20.69954858
 C     28   4   1     1.298049405774   128.88455637    72.53456011
 H     42  18   2     1.084670220699   114.97543774   193.25460605
 H     43  23   3     1.091958988667   116.36583051   202.52502083
 H     39  15   1     1.084948012455   114.94592364   165.48883537
 H     38  14   1     1.091777682268   116.32789791   156.34724019
 H     44  20   2     1.091224997475   116.51595497   194.24037015
 H     48  28   4     1.089976130569   116.35236615   174.11897550
 H     40  30   5     1.086324399540   115.42008583   173.29328089
 H     46  32   5     1.086586664007   115.21827336   193.25305897
 H     41  17   2     1.085990382928   115.45743795   191.84305505
 H     47  33   6     1.087528961606   115.12779193   165.55046754
 H     37  13   1     1.091705036906   116.52077407   162.93108522
 H     45  21   3     1.089981578198   116.28025907   179.61363590
 Al    34   6   3     3.290467206237   116.01136671   273.66678804
 Al    61  34   6     2.624984173182    75.45419750   100.98952364
 H     62  61  34     1.671499046222    38.35264611   335.81466062
 H     62  61  34     1.604422009464   101.74775493    57.84156785
 H     61  34   6     1.673933568559   110.48672323   116.96820622
 H     61  34   6     1.604563210061   115.80763441     6.47743546
 H     61  34   6     1.604429315292    70.09579652   208.28359013
 H     62  61  34     1.604233087336   101.04063621   252.12028096

---------------------------
INTERNAL COORDINATES (A.U.)
---------------------------
 Zr     0   0   0     0.000000000000     0.00000000     0.00000000
 Zr     1   0   0     9.946311383962     0.00000000     0.00000000
 Zr     2   1   0     6.479438904343    49.07741431     0.00000000
 Zr     1   2   3     6.483161092280    49.44264417   181.77560603
 Zr     2   1   3     6.388213925258    48.41053174   258.60432945
 Zr     3   2   1     6.410251321361    71.10954827    51.62267874
 O      1   2   3     3.950516915202    48.39205726   229.43514679
 O      2   1   3     3.956175585787    47.64363432   311.10107450
 O      3   2   1     4.030086193804    37.00540389    74.36377295
 O      4   1   2     4.023081530486    37.00262751   285.39687844
 O      4   1   2     3.942235943818    85.06179110   342.99036216
 O      3   2   1     3.916879036749    86.30822975    17.76444597
 O      1   2   3     3.760320397204   122.07914984   265.97598743
 O      1   2   3     3.768342967005   119.87527059   166.87901669
 O      1   2   3     3.907875543010   107.27582068   355.49504761
 O      1   2   3     3.778294834962   101.23009217    75.32393524
 O      2   1   3     3.752376160957   102.61505227   106.69567147
 O      2   1   3     3.914555937046   107.13982931   187.09776499
 O      2   1   3     3.777724243811   119.13950170    14.44570672
 O      2   1   3     3.752734361843   121.88273233   276.70877082
 O      3   2   1     3.732609863065   107.40097068   118.72810398
 O      3   2   1     3.896116697735   156.95495879     7.70633456
 O      3   2   1     3.765800217539    71.61100628   193.69814511
 O      3   2   1     3.837046642809   106.35686276   272.02497676
 O      4   1   2     3.850134273875   105.99899264    90.24563509
 O      4   1   2     3.771432474951    71.51172427   167.63804473
 O      4   1   2     3.896146639636   155.52399613   352.45850809
 O      4   1   2     3.730463200542   108.53234301   241.98472396
 O      5   2   1     3.747185043364   119.78691105   251.73827652
 O      5   2   1     3.859180001945   153.56055693    34.78777259
 O      5   2   1     3.749544138644    71.01801531   183.97207304
 O      5   2   1     3.896536819444    98.89278110   105.89457784
 O      6   3   2     3.905990714377   160.35420390   311.34737982
 O      6   3   2     3.743348469288   107.80605095   193.53009411
 O      6   3   2     3.850476511751   107.26459766    41.02209639
 O      6   3   2     3.737026437460    73.47066347   117.03172337
 C     13   1   2     2.457261349516   125.73083173    37.09144380
 C     14   1   2     2.460786544153   126.89212798    43.64797821
 C     15   1   2     2.451008660158   137.35163997    11.96590886
 C     30   5   2     2.449017539346   135.54089410   334.45620203
 C     17   2   1     2.447451514407   138.54601245   330.65578436
 C     18   2   1     2.450790510936   136.53987189   342.14652160
 C     23   3   2     2.461213574561   126.88054223   327.87309253
 C     20   2   1     2.456082732819   126.19949441   323.86622816
 C     21   3   2     2.453119862405   130.61097204   294.07139281
 C     32   5   2     2.451490207507   131.64076259   292.52227964
 C     33   6   3     2.454514555053   128.49941035    20.69954858
 C     28   4   1     2.452957885212   128.88455637    72.53456011
 H     42  18   2     2.049729662741   114.97543774   193.25460605
 H     43  23   3     2.063503438054   116.36583051   202.52502083
 H     39  15   1     2.050254613082   114.94592364   165.48883537
 H     38  14   1     2.063160818614   116.32789791   156.34724019
 H     44  20   2     2.062116395717   116.51595497   194.24037015
 H     48  28   4     2.059756379286   116.35236615   174.11897550
 H     40  30   5     2.052855607727   115.42008583   173.29328089
 H     46  32   5     2.053351215744   115.21827336   193.25305897
 H     41  17   2     2.052224407806   115.45743795   191.84305505
 H     47  33   6     2.055131900144   115.12779193   165.55046754
 H     37  13   1     2.063023538774   116.52077407   162.93108522
 H     45  21   3     2.059766673813   116.28025907   179.61363590
 Al    34   6   3     6.218081872436   116.01136671   273.66678804
 Al    61  34   6     4.960501193192    75.45419750   100.98952364
 H     62  61  34     3.158675430469    38.35264611   335.81466062
 H     62  61  34     3.031918201122   101.74775493    57.84156785
 H     61  34   6     3.163276010954   110.48672323   116.96820622
 H     61  34   6     3.032185031580   115.80763441     6.47743546
 H     61  34   6     3.031932007136    70.09579652   208.28359013
 H     62  61  34     3.031561190039   101.04063621   252.12028096

---------------------
BASIS SET INFORMATION
---------------------
There are 5 groups of distinct atoms

[...]
198:   2905.28   0.015093   76.27  0.001621  ( 0.024240 -0.030785 -0.009266)
199:   2905.60   0.005882   29.72  0.000632  ( 0.002862 -0.018602  0.016658)
200:   2906.14   0.035619  180.01  0.003825  (-0.029510  0.054166 -0.004481)
201:   2907.22   0.033399  168.78  0.003585  ( 0.022838  0.009283 -0.054565)
202:   2911.41   0.012411   62.72  0.001330  ( 0.003841 -0.028080  0.022959)
203:   2913.52   0.017514   88.51  0.001876  ( 0.020715 -0.003898 -0.037836)

* The epsilon (eps) is given for a Dirac delta lineshape.
** The dipole moment derivative (T) already includes vibrational overlap.

The first frequency considered to be a vibration is 7
The total number of vibrations considered is 197


--------------------------
THERMOCHEMISTRY AT 298.15K
--------------------------

Temperature         ...   298.15 K
Pressure            ...     1.00 atm
Total Mass          ...  1243.53 AMU
Quasi RRHO          ...     True
Cut-Off Frequency   ...     1.00 cm^-1

Throughout the following assumptions are being made:
  (1) The electronic state is orbitally nondegenerate
  (2) There are no thermally accessible electronically excited states
  (3) Hindered rotations indicated by low frequency modes are not
      treated as such but are treated as vibrations and this may
      cause some error
  (4) All equations used are the standard statistical mechanics
      equations for an ideal gas
  (5) All vibrations are strictly harmonic

freq.      10.96  E(vib)   ...       0.58 
freq.      20.28  E(vib)   ...       0.56 
freq.      20.94  E(vib)   ...       0.56 
freq.      30.96  E(vib)   ...       0.55 
freq.      34.02  E(vib)   ...       0.55 
freq.      36.87  E(vib)   ...       0.54 
freq.      38.62  E(vib)   ...       0.54 
freq.      46.12  E(vib)   ...       0.53 
freq.      52.58  E(vib)   ...       0.52 
freq.      56.98  E(vib)   ...       0.51 
freq.      80.83  E(vib)   ...       0.48 
freq.      81.49  E(vib)   ...       0.48 
freq.      91.94  E(vib)   ...       0.47 
freq.      95.56  E(vib)   ...       0.47 
freq.      99.95  E(vib)   ...       0.46 
freq.     101.02  E(vib)   ...       0.46 
freq.     103.94  E(vib)   ...       0.46 
freq.     104.52  E(vib)   ...       0.46 
freq.     108.88  E(vib)   ...       0.45 
freq.     112.92  E(vib)   ...       0.45 
freq.     113.20  E(vib)   ...       0.45 
freq.     117.15  E(vib)   ...       0.44 
freq.     121.70  E(vib)   ...       0.44 
freq.     131.83  E(vib)   ...       0.42 
freq.     144.24  E(vib)   ...       0.41 
freq.     146.28  E(vib)   ...       0.41 
freq.     150.61  E(vib)   ...       0.40 
freq.     151.45  E(vib)   ...       0.40 
freq.     152.41  E(vib)   ...       0.40 
freq.     154.07  E(vib)   ...       0.40 
freq.     157.07  E(vib)   ...       0.40 
freq.     160.04  E(vib)   ...       0.39 
freq.     163.12  E(vib)   ...       0.39 
freq.     164.56  E(vib)   ...       0.39 
freq.     166.10  E(vib)   ...       0.39 
freq.     168.67  E(vib)   ...       0.38 
freq.     171.54  E(vib)   ...       0.38 
freq.     173.59  E(vib)   ...       0.38 
freq.     185.33  E(vib)   ...       0.37 
freq.     187.37  E(vib)   ...       0.36 
freq.     189.33  E(vib)   ...       0.36 
freq.     192.79  E(vib)   ...       0.36 
freq.     195.72  E(vib)   ...       0.36 
freq.     196.33  E(vib)   ...       0.36 
freq.     197.64  E(vib)   ...       0.35 
freq.     204.09  E(vib)   ...       0.35 
freq.     209.55  E(vib)   ...       0.34 
freq.     210.73  E(vib)   ...       0.34 
freq.     211.34  E(vib)   ...       0.34 
freq.     228.74  E(vib)   ...       0.32 
freq.     230.14  E(vib)   ...       0.32 
freq.     231.96  E(vib)   ...       0.32 
freq.     235.89  E(vib)   ...       0.32 
freq.     241.79  E(vib)   ...       0.31 
freq.     258.93  E(vib)   ...       0.30 
freq.     260.33  E(vib)   ...       0.30 
freq.     260.93  E(vib)   ...       0.30 
freq.     263.08  E(vib)   ...       0.29 
freq.     264.91  E(vib)   ...       0.29 
freq.     266.51  E(vib)   ...       0.29 
freq.     267.24  E(vib)   ...       0.29 
freq.     271.24  E(vib)   ...       0.29 
freq.     272.43  E(vib)   ...       0.29 
freq.     274.59  E(vib)   ...       0.28 
freq.     276.16  E(vib)   ...       0.28 
freq.     277.35  E(vib)   ...       0.28 
freq.     278.78  E(vib)   ...       0.28 
freq.     285.06  E(vib)   ...       0.28 
freq.     289.61  E(vib)   ...       0.27 
freq.     290.78  E(vib)   ...       0.27 
freq.     292.55  E(vib)   ...       0.27 
freq.     295.05  E(vib)   ...       0.27 
freq.     302.19  E(vib)   ...       0.26 
freq.     304.69  E(vib)   ...       0.26 
freq.     305.69  E(vib)   ...       0.26 
freq.     307.56  E(vib)   ...       0.26 
freq.     308.60  E(vib)   ...       0.26 
freq.     313.61  E(vib)   ...       0.25 
freq.     314.24  E(vib)   ...       0.25 
freq.     316.40  E(vib)   ...       0.25 
freq.     320.23  E(vib)   ...       0.25 
freq.     322.16  E(vib)   ...       0.25 
freq.     329.12  E(vib)   ...       0.24 
freq.     337.34  E(vib)   ...       0.24 
freq.     339.71  E(vib)   ...       0.23 
freq.     348.63  E(vib)   ...       0.23 
freq.     351.19  E(vib)   ...       0.23 
freq.     354.01  E(vib)   ...       0.22 
freq.     360.06  E(vib)   ...       0.22 
freq.     371.09  E(vib)   ...       0.21 
freq.     385.99  E(vib)   ...       0.20 
freq.     393.78  E(vib)   ...       0.20 
freq.     399.99  E(vib)   ...       0.19 
freq.     402.18  E(vib)   ...       0.19 
freq.     402.78  E(vib)   ...       0.19 
freq.     408.14  E(vib)   ...       0.19 
freq.     415.89  E(vib)   ...       0.18 
freq.     418.87  E(vib)   ...       0.18 
freq.     421.35  E(vib)   ...       0.18 
freq.     429.37  E(vib)   ...       0.18 
freq.     450.79  E(vib)   ...       0.17 
freq.     464.22  E(vib)   ...       0.16 
freq.     471.79  E(vib)   ...       0.15 
freq.     477.72  E(vib)   ...       0.15 
freq.     481.65  E(vib)   ...       0.15 
freq.     521.90  E(vib)   ...       0.13 
freq.     537.79  E(vib)   ...       0.12 
freq.     601.94  E(vib)   ...       0.10 
freq.     623.89  E(vib)   ...       0.09 
freq.     659.11  E(vib)   ...       0.08 
freq.     680.59  E(vib)   ...       0.08 
freq.     683.03  E(vib)   ...       0.08 
freq.     687.45  E(vib)   ...       0.07 
freq.     688.88  E(vib)   ...       0.07 
freq.     699.21  E(vib)   ...       0.07 
freq.     716.03  E(vib)   ...       0.07 
freq.     733.26  E(vib)   ...       0.06 
freq.     733.60  E(vib)   ...       0.06 
freq.     734.22  E(vib)   ...       0.06 
freq.     735.22  E(vib)   ...       0.06 
freq.     735.53  E(vib)   ...       0.06 
freq.     737.54  E(vib)   ...       0.06 
freq.     738.26  E(vib)   ...       0.06 
freq.     738.64  E(vib)   ...       0.06 
freq.     738.76  E(vib)   ...       0.06 
freq.     739.29  E(vib)   ...       0.06 
freq.     741.73  E(vib)   ...       0.06 
freq.     742.00  E(vib)   ...       0.06 
freq.     795.32  E(vib)   ...       0.05 
freq.     998.39  E(vib)   ...       0.02 
freq.     999.02  E(vib)   ...       0.02 
freq.     999.67  E(vib)   ...       0.02 
freq.     999.79  E(vib)   ...       0.02 
freq.    1001.44  E(vib)   ...       0.02 
freq.    1001.72  E(vib)   ...       0.02 
freq.    1005.72  E(vib)   ...       0.02 
freq.    1006.20  E(vib)   ...       0.02 
freq.    1006.56  E(vib)   ...       0.02 
freq.    1006.88  E(vib)   ...       0.02 
freq.    1007.97  E(vib)   ...       0.02 
freq.    1008.73  E(vib)   ...       0.02 
freq.    1260.80  E(vib)   ...       0.01 
freq.    1348.53  E(vib)   ...       0.01 
freq.    1348.84  E(vib)   ...       0.01 
freq.    1352.56  E(vib)   ...       0.01 
freq.    1352.73  E(vib)   ...       0.01 
freq.    1353.98  E(vib)   ...       0.01 
freq.    1354.20  E(vib)   ...       0.01 
freq.    1354.87  E(vib)   ...       0.01 
freq.    1356.07  E(vib)   ...       0.01 
freq.    1356.49  E(vib)   ...       0.01 
freq.    1357.22  E(vib)   ...       0.01 
freq.    1357.83  E(vib)   ...       0.01 
freq.    1357.95  E(vib)   ...       0.01 
freq.    1358.83  E(vib)   ...       0.01 
freq.    1360.37  E(vib)   ...       0.01 
freq.    1360.91  E(vib)   ...       0.01 
freq.    1363.01  E(vib)   ...       0.01 
freq.    1363.53  E(vib)   ...       0.01 
freq.    1364.14  E(vib)   ...       0.01 
freq.    1364.51  E(vib)   ...       0.01 
freq.    1364.87  E(vib)   ...       0.01 
freq.    1366.77  E(vib)   ...       0.01 
freq.    1367.33  E(vib)   ...       0.01 
freq.    1371.18  E(vib)   ...       0.01 
freq.    1371.50  E(vib)   ...       0.01 
freq.    1379.93  E(vib)   ...       0.01 
freq.    1432.21  E(vib)   ...       0.00 
freq.    1501.99  E(vib)   ...       0.00 
freq.    1537.80  E(vib)   ...       0.00 
freq.    1546.22  E(vib)   ...       0.00 
freq.    1561.87  E(vib)   ...       0.00 
freq.    1564.74  E(vib)   ...       0.00 
freq.    1568.26  E(vib)   ...       0.00 
freq.    1575.90  E(vib)   ...       0.00 
freq.    1576.94  E(vib)   ...       0.00 
freq.    1630.95  E(vib)   ...       0.00 
freq.    1631.85  E(vib)   ...       0.00 
freq.    1635.59  E(vib)   ...       0.00 
freq.    1637.33  E(vib)   ...       0.00 
freq.    1638.97  E(vib)   ...       0.00 
freq.    1879.29  E(vib)   ...       0.00 
freq.    1884.76  E(vib)   ...       0.00 
freq.    1901.61  E(vib)   ...       0.00 
freq.    1909.18  E(vib)   ...       0.00 
freq.    2881.01  E(vib)   ...       0.00 
freq.    2885.50  E(vib)   ...       0.00 
freq.    2891.43  E(vib)   ...       0.00 
freq.    2893.33  E(vib)   ...       0.00 
freq.    2894.48  E(vib)   ...       0.00 
freq.    2896.02  E(vib)   ...       0.00 
freq.    2905.28  E(vib)   ...       0.00 
freq.    2905.60  E(vib)   ...       0.00 
freq.    2906.14  E(vib)   ...       0.00 
freq.    2907.22  E(vib)   ...       0.00 
freq.    2911.41  E(vib)   ...       0.00 
freq.    2913.52  E(vib)   ...       0.00 

------------
INNER ENERGY
------------

The inner energy is: U= E(el) + E(ZPE) + E(vib) + E(rot) + E(trans)
    E(el)   - is the total energy from the electronic structure calculation
              = E(kin-el) + E(nuc-el) + E(el-el) + E(nuc-nuc)
    E(ZPE)  - the the zero temperature vibrational energy from the frequency calculation
    E(vib)  - the the finite temperature correction to E(ZPE) due to population
              of excited vibrational states
    E(rot)  - is the rotational thermal energy
    E(trans)- is the translational thermal energy

Summary of contributions to the inner energy U:
Electronic energy                ...  -3488.52762707 Eh
Zero point energy                ...      0.34883968 Eh     218.90 kcal/mol
Thermal vibrational correction   ...      0.05928462 Eh      37.20 kcal/mol
Thermal rotational correction    ...      0.00141627 Eh       0.89 kcal/mol
Thermal translational correction ...      0.00141627 Eh       0.89 kcal/mol
-----------------------------------------------------------------------
Total thermal energy                  -3488.11667023 Eh


Summary of corrections to the electronic energy:
(perhaps to be used in another calculation)
Total thermal correction                  0.06211716 Eh      38.98 kcal/mol
Non-thermal (ZPE) correction              0.34883968 Eh     218.90 kcal/mol
-----------------------------------------------------------------------
Total correction                          0.41095684 Eh     257.88 kcal/mol


--------
ENTHALPY
--------

The enthalpy is H = U + kB*T
                kB is Boltzmann's constant
Total thermal energy              ...  -3488.11667023 Eh 
Thermal Enthalpy correction       ...      0.00094421 Eh       0.59 kcal/mol
-----------------------------------------------------------------------
Total Enthalpy                    ...  -3488.11572602 Eh


Note: Only C1 symmetry has been detected, increase convergence thresholds 
      if your molecule has a higher symmetry. Symmetry factor of 1.0 is   
      used for the rotational entropy correction. 
 

Note: Rotational entropy computed according to Herzberg 
Infrared and Raman Spectra, Chapter V,1, Van Nostrand Reinhold, 1945 
Point Group:  C1, Symmetry Number:   1  
Rotational constants in cm-1:     0.001863     0.001409     0.001372 

Vibrational entropy computed according to the QRRHO of S. Grimme
Chem.Eur.J. 2012 18 9955 using a reference frequency of 100.0 cm-1


-------
ENTROPY
-------

The entropy contributions are T*S = T*(S(el)+S(vib)+S(rot)+S(trans))
     S(el)   - electronic entropy
     S(vib)  - vibrational entropy
     S(rot)  - rotational entropy
     S(trans)- translational entropy
The entropies will be listed as multiplied by the temperature to get
units of energy

Electronic entropy                ...      0.00000000 Eh      0.00 kcal/mol
Vibrational entropy               ...      0.10751163 Eh     67.46 kcal/mol
Rotational entropy                ...      0.01868916 Eh     11.73 kcal/mol
Translational entropy             ...      0.02244101 Eh     14.08 kcal/mol
-----------------------------------------------------------------------
Final entropy term                ...      0.14864180 Eh     93.27 kcal/mol

In case the symmetry of your molecule has not been determined correctly
or in case you have a reason to use a different symmetry number we print 
out the resulting rotational entropy values for sn=1,12:

 non-linear molecules -----------------------------------
|  sn= 1 | S(rot)=       0.01868916 Eh     11.73 kcal/mol|
|  sn= 2 | S(rot)=       0.01803471 Eh     11.32 kcal/mol|
|  sn= 3 | S(rot)=       0.01765187 Eh     11.08 kcal/mol|
|  sn= 4 | S(rot)=       0.01738025 Eh     10.91 kcal/mol|
|  sn= 5 | S(rot)=       0.01716956 Eh     10.77 kcal/mol|
|  sn= 6 | S(rot)=       0.01699742 Eh     10.67 kcal/mol|
|  sn= 7 | S(rot)=       0.01685187 Eh     10.57 kcal/mol|
|  sn= 8 | S(rot)=       0.01672579 Eh     10.50 kcal/mol|
|  sn= 9 | S(rot)=       0.01661459 Eh     10.43 kcal/mol|
|  sn=10 | S(rot)=       0.01651511 Eh     10.36 kcal/mol|
|  sn=11 | S(rot)=       0.01642512 Eh     10.31 kcal/mol|
|  sn=12 | S(rot)=       0.01634296 Eh     10.26 kcal/mol|
 linear molecules ---------------------------------------
|  Dinfh | S(rot)=       0.01154970 Eh      7.25 kcal/mol|
|  Cinfv | S(rot)=       0.01220416 Eh      7.66 kcal/mol|
 --------------------------------------------------------


-------------------
GIBBS FREE ENERGY
-------------------

The Gibbs free energy is G = H - T*S

Total enthalpy                    ...  -3488.11572602 Eh 
Total entropy correction          ...     -0.14864180 Eh    -93.27 kcal/mol
-----------------------------------------------------------------------
Final Gibbs free energy         ...  -3488.26436782 Eh

For completeness - the Gibbs free energy minus the electronic energy
G-E(el)                           ...      0.26325925 Eh    165.20 kcal/mol


Maximum memory used throughout the entire PROP-calculation: 137.8 MB

--------------------------------
SUGGESTED CITATIONS FOR THIS RUN
--------------------------------

Below you find a list of papers that are relevant to this ORCA run
We neither can nor want to force you to cite these papers, but we appreciate if you do
You receive ORCA, which is the product of decades of hard work by many enthusiastic individuals, for free
The only thing we kindly ask in return is that you cite our papers,
We deeply appreciate it, if you show your appreciation for ORCA by not just citing the generic ORCA reference.

Please note that relegating all ORCA citations to the supporting information does *not* help us.
SI sections are not indexed - citations you put there will not count into any citation statistics
But we need these citations in order to attract the funding resources that allow us to do what we are doing

Therefore, if you are a happy ORCA user, please consider citing a few of the papers listed below in the main body of your paper

In addition to the list printed below, the program has created the file run.bibtex that contains the list in bibtex format
You can import this file easily into all common literature databanks and citation aid programs


List of essential papers. We consider these as the minimum necessary citations

  1. Neese, F.
     Software update: the ORCA program system, version 6.0
     WIRES Comput. Molec. Sci. 2025 15(1), e70019
     doi.org/10.1002/wcms.7019

List of papers to cite with high priority. The work reported in these papers was absolutely
necessary for this run to complete.
Our perspective: the developers of density functionals and basis sets usually get cited in chemistry papers
Good! But without the algorithms to do something with them, the functionals or basis sets would not do anything.
Hence, in our opinion, the algorithm design and method developments papers are equally worthy of getting cited

  1. Neese, F.
     An improvement of the resolution of the identity approximation for the formation of the Coulomb matrix
     J. Comp. Chem. 2003 24(14), 1740-1747
     doi.org/10.1002/jcc.10318
  2. Grimme, S.; Antony, J.; Ehrlich, S.; Krieg, H.
     A consistent and accurate ab initio parametrization of density functional dispersion correction (DFT-D) for the 94 elements H-Pu
     J. Chem. Phys. 2010 132 , 154104
     doi.org/10.1063/1.3382344
  3. Grimme, S.; Ehrlich, S.; Goerigk, L.
     Effect of the damping function in dispersion corrected density functional theory
     J. Comput. Chem. 2011 32(7), 1456-1465
     doi.org/10.1002/jcc.21759
  4. Bykov, D.; Petrenko, T.; Izsak, R.; Kossmann, S.; Becker, U.; Valeev, E.; Neese, F.
     Efficient implementation of the analytic second derivatives of Hartree-Fock and hybrid DFT energies: a detailed analysis of different approximations
     Molec. Phys. 2015 113 , 1961-1977
     doi.org/10.1080/00268976.2015.1025114
  5. Helmich-Paris, B.
     A trust-region augmented Hessian implementation for restricted and unrestricted Hartree–Fock and Kohn–Sham methods
     J. Chem. Phys. 2021 154 , 164104
     doi.org/10.1063/5.0040798
  6. Neese, F.
     The SHARK Integral Generation and Digestion System
     J. Comp. Chem. 2022 44(3), 381
     doi.org/10.1002/jcc.26942

List of suggested additional citations. These are papers that are important in the 'surrounding' of 
of this run, or papers that preceded the highly important papers. If you like your results we are grateful for a citation.

  1. Neese, F.
     The ORCA program system
     WIRES Comput. Molec. Sci. 2012 2(1), 73-78
     doi.org/10.1002/wcms.81
  2. Neese, F.
     Software update: the ORCA program system, version 4.0
     WIRES Comput. Molec. Sci. 2018 8(1), 1-6
     doi.org/10.1002/wcms.1327
  3. Neese, F.; Wennmohs, F.; Becker, U.; Riplinger, C.
     The ORCA quantum chemistry program package
     J. Chem. Phys. 2020 152(22), 224108
     doi.org/10.1063/5.0004608
  4. Neese, F.
     Software update: The ORCA program system—Version 5.0
     WIRES Comput. Molec. Sci. 2022 12(1), e1606
     doi.org/10.1002/wcms.1606

List of optional additional citations

  1. Neese, F.
     Approximate second-order SCF convergence for spin unrestricted wavefunctions
     Chem. Phys. Lett. 2000 325(1-3), 93-98
     doi.org/10.1016/s0009-2614(00)00662-x

Timings for individual modules:

Sum of individual times          ...     7719.323 sec (= 128.655 min)
Startup calculation              ...      310.448 sec (=   5.174 min)   4.0 %
SCF iterations                   ...     2149.710 sec (=  35.828 min)  27.8 %
Property integrals               ...     1702.897 sec (=  28.382 min)  22.1 %
SCF Response                     ...     1181.596 sec (=  19.693 min)  15.3 %
Property calculations            ...     1645.889 sec (=  27.431 min)  21.3 %
SCF Gradient evaluation          ...      720.726 sec (=  12.012 min)   9.3 %
Geometry relaxation              ...        8.058 sec (=   0.134 min)   0.1 %
                             ****ORCA TERMINATED NORMALLY****
TOTAL RUN TIME: 0 days 2 hours 9 minutes 0 seconds 369 msec
