
     Program PWSCF v.7.3.1 starts on 20Jun2025 at  6:55:58 

     This program is part of the open-source Quantum ESPRESSO suite
     for quantum simulation of materials; please cite
         "P. Giannozzi et al., J. Phys.:Condens. Matter 21 395502 (2009);
         "P. Giannozzi et al., J. Phys.:Condens. Matter 29 465901 (2017);
         "P. Giannozzi et al., J. Chem. Phys. 152 154105 (2020);
          URL http://www.quantum-espresso.org", 
     in publications or presentations arising from this work. More details at
     http://www.quantum-espresso.org/quote

     Parallel version (MPI), running on   256 processors

     MPI processes distributed on     1 nodes
     1534461 MiB available memory on the printing compute node when the environment starts

     Waiting for input...
     Reading input from standard input

     Current dimensions of program PWSCF are:
     Max number of different atomic species (ntypx) = 10
     Max number of k-points (npk) =  40000
     Max angular momentum in pseudopotentials (lmaxx) =  4
     file H.pbe-kjpaw_psl.1.0.0.UPF: wavefunction(s)  1S renormalized
     file Zr.pbe-spn-kjpaw_psl.1.0.0.UPF: wavefunction(s)  4S 4P renormalized
     file C.pbe-n-kjpaw_psl.1.0.0.UPF: wavefunction(s)  2S 2P renormalized
     file O.pbe-n-kjpaw_psl.1.0.0.UPF: wavefunction(s)  2S 2P renormalized

     IMPORTANT: XC functional enforced from input :
     Exchange-correlation= PBE
                           (   1   4   3   4   0   0   0)
     Any further DFT definition will be discarded
     Please, verify this is what you really want


     K-points division:     npool     =       4
     R & G space division:  proc/nbgrp/npool/nimage =      64
     Subspace diagonalization in iterative solution of the eigenvalue problem:
     one sub-group per band group will be used
     custom distributed-memory algorithm (size of sub-group:  2*  2 procs)


     Parallelization info
     --------------------
     sticks:   dense  smooth     PW     G-vecs:    dense   smooth      PW
     Min         746     497    127               108993    59311    7733
     Max         747     498    128               108999    59316    7740
     Sum       47779   31815   8191              6975721  3796139  495213

     Using Slab Decomposition


     Title: 
     UiO-66-dehydrox k convergence                                              


     bravais-lattice index     =            5
     lattice parameter (alat)  =      27.5251  a.u.
     unit-cell volume          =   15298.4561 (a.u.)^3
     number of atoms/cell      =          108
     number of atomic types    =            4
     number of electrons       =       468.00
     number of Kohn-Sham states=          234
     kinetic-energy cutoff     =     150.0000  Ry
     charge density cutoff     =     900.0000  Ry
     scf convergence threshold =      1.0E-08
     mixing beta               =       0.7000
     number of iterations used =            8  plain     mixing
     Exchange-correlation= PBE
                           (   1   4   3   4   0   0   0)

     celldm(1)=  27.525059  celldm(2)=   0.000000  celldm(3)=   0.000000
     celldm(4)=   0.474526  celldm(5)=   0.000000  celldm(6)=   0.000000

     crystal axes: (cart. coord. in units of alat)
               a(1) = (   0.512579  -0.295937   0.806030 )  
               a(2) = (   0.000000   0.591875   0.806030 )  
               a(3) = (  -0.512579  -0.295937   0.806030 )  

     reciprocal axes: (cart. coord. in units 2 pi/alat)
               b(1) = (  0.975460 -0.563182  0.413550 )  
               b(2) = (  0.000000  1.126364  0.413550 )  
               b(3) = ( -0.975460 -0.563182  0.413550 )  


     PseudoPot. # 1 for H  read from file:
     /home/mehlhorn/pseudos/UiO-66_pbe-spn-kjpaw/H.pbe-kjpaw_psl.1.0.0.UPF
     MD5 check sum: d81a744832360e4a8af0b0b5b123bc2a
     Pseudo is Projector augmented-wave, Zval =  1.0
     Generated using &quot;atomic&quot; code by A. Dal Corso  v.6.3MaX
     Shape of augmentation charge: PSQ
     Using radial grid of  929 points,  2 beta functions with: 
                l(1) =   0
                l(2) =   0
     Q(r) pseudized with 0 coefficients 


     PseudoPot. # 2 for Zr read from file:
     /home/mehlhorn/pseudos/UiO-66_pbe-spn-kjpaw/Zr.pbe-spn-kjpaw_psl.1.0.0.UPF
     MD5 check sum: 02112c41713a0468aff2bb39ef194e36
     Pseudo is Projector augmented-wave + core cor, Zval = 12.0
     Generated using &quot;atomic&quot; code by A. Dal Corso  v.6.2.2
     Shape of augmentation charge: PSQ
     Using radial grid of 1225 points,  6 beta functions with: 
                l(1) =   0
                l(2) =   0
                l(3) =   1
                l(4) =   1
                l(5) =   2
                l(6) =   2
     Q(r) pseudized with 0 coefficients 


     PseudoPot. # 3 for C  read from file:
     /home/mehlhorn/pseudos/UiO-66_pbe-spn-kjpaw/C.pbe-n-kjpaw_psl.1.0.0.UPF
     MD5 check sum: 5f16ad9a65e90284d1d834d4ab3b0f7d
     Pseudo is Projector augmented-wave + core cor, Zval =  4.0
     Generated using &quot;atomic&quot; code by A. Dal Corso  v.6.3
     Shape of augmentation charge: PSQ
     Using radial grid of 1073 points,  4 beta functions with: 
                l(1) =   0
                l(2) =   0
                l(3) =   1
                l(4) =   1
     Q(r) pseudized with 0 coefficients 


     PseudoPot. # 4 for O  read from file:
     /home/mehlhorn/pseudos/UiO-66_pbe-spn-kjpaw/O.pbe-n-kjpaw_psl.1.0.0.UPF
     MD5 check sum: e99d9cef9b487d1ca56f5b95ecd0fd7a
     Pseudo is Projector augmented-wave + core cor, Zval =  6.0
     Generated using &quot;atomic&quot; code by A. Dal Corso  v.6.3
     Shape of augmentation charge: PSQ
     Using radial grid of 1095 points,  4 beta functions with: 
                l(1) =   0
                l(2) =   0
                l(3) =   1
                l(4) =   1
     Q(r) pseudized with 0 coefficients 


     atomic species   valence    mass     pseudopotential
     H                 1.00     1.00750     H ( 1.00)
     Zr               12.00    91.22400     Zr( 1.00)
     C                 4.00    12.01060     C ( 1.00)
     O                 6.00    15.99900     O ( 1.00)

      6 Sym. Ops., with inversion, found



   Cartesian axes

     site n.     atom                  positions (alat units)
         1        C      tau(   1) = (  -0.1599620  -0.2699888   1.2116942  )
         2        C      tau(   2) = (   0.1599620   0.2699888   1.2063954  )
         3        C      tau(   3) = (   0.3137981  -0.0035367   1.2116942  )
         4        C      tau(   4) = (  -0.3137981   0.0035367   1.2063954  )
         5        C      tau(   5) = (  -0.1538361   0.2735255   1.2116942  )
         6        C      tau(   6) = (   0.1538361  -0.2735255   1.2063954  )
         7        C      tau(   7) = (  -0.1455349   0.0909661   0.9611036  )
         8        C      tau(   8) = (   0.1455349  -0.0909661   1.4569860  )
         9        C      tau(   9) = (  -0.0060115  -0.1715200   0.9611036  )
        10        C      tau(  10) = (   0.0060115   0.1715200   1.4569860  )
        11        C      tau(  11) = (   0.1515464   0.0805539   0.9611036  )
        12        C      tau(  12) = (  -0.1515464  -0.0805539   1.4569860  )
        13        C      tau(  13) = (   0.2032979  -0.1204116   1.5366895  )
        14        C      tau(  14) = (  -0.2032979   0.1204116   0.8814001  )
        15        C      tau(  15) = (   0.0026306   0.2362670   1.5366895  )
        16        C      tau(  16) = (  -0.0026306  -0.2362670   0.8814001  )
        17        C      tau(  17) = (  -0.2059285  -0.1158554   1.5366895  )
        18        C      tau(  18) = (   0.2059285   0.1158554   0.8814001  )
        19        C      tau(  19) = (   0.2099727   0.3596534   1.2074980  )
        20        C      tau(  20) = (  -0.2099727  -0.3596534   1.2105916  )
        21        C      tau(  21) = (  -0.4164553   0.0020150   1.2074980  )
        22        C      tau(  22) = (   0.4164553  -0.0020150   1.2105916  )
        23        C      tau(  23) = (   0.2064826  -0.3616684   1.2074980  )
        24        C      tau(  24) = (  -0.2064826   0.3616684   1.2105916  )
        25        C      tau(  25) = (   0.2001158  -0.2116509   1.5674468  )
        26        C      tau(  26) = (  -0.2001158   0.2116509   0.8506428  )
        27        C      tau(  27) = (   0.0832371   0.2791309   1.5674468  )
        28        C      tau(  28) = (  -0.0832371  -0.2791309   0.8506428  )
        29        C      tau(  29) = (  -0.2833530  -0.0674799   1.5674468  )
        30        C      tau(  30) = (   0.2833530   0.0674799   0.8506428  )
        31        C      tau(  31) = (   0.0806420  -0.2534385   0.8361802  )
        32        C      tau(  32) = (  -0.0806420   0.2534385   1.5819094  )
        33        C      tau(  33) = (   0.1791632   0.1965572   0.8361802  )
        34        C      tau(  34) = (  -0.1791632  -0.1965572   1.5819094  )
        35        C      tau(  35) = (  -0.2598051   0.0568812   0.8361802  )
        36        C      tau(  36) = (   0.2598051  -0.0568812   1.5819094  )
        37        C      tau(  37) = (   0.1854299   0.4295487   1.1459246  )
        38        C      tau(  38) = (  -0.1854299  -0.4295487   1.2721650  )
        39        C      tau(  39) = (  -0.4647151  -0.0541873   1.1459246  )
        40        C      tau(  40) = (   0.4647151   0.0541873   1.2721650  )
        41        C      tau(  41) = (   0.2792852  -0.3753614   1.1459246  )
        42        C      tau(  42) = (  -0.2792852   0.3753614   1.2721650  )
        43        C      tau(  43) = (  -0.4649934   0.0561793   1.2706376  )
        44        C      tau(  44) = (   0.4649934  -0.0561793   1.1474520  )
        45        C      tau(  45) = (   0.1838440  -0.4307858   1.2706376  )
        46        C      tau(  46) = (  -0.1838440   0.4307858   1.1474520  )
        47        C      tau(  47) = (   0.2811494   0.3746065   1.2706376  )
        48        C      tau(  48) = (  -0.2811494  -0.3746065   1.1474520  )
        49        H      tau(  49) = (   0.2962336  -0.3211188   1.0973282  )
        50        H      tau(  50) = (  -0.2962336   0.3211188   1.3207613  )
        51        H      tau(  51) = (   0.1299802   0.4171052   1.0973282  )
        52        H      tau(  52) = (  -0.1299802  -0.4171052   1.3207613  )
        53        H      tau(  53) = (  -0.4262138  -0.0959864   1.0973282  )
        54        H      tau(  54) = (   0.4262138   0.0959864   1.3207613  )
        55        H      tau(  55) = (   0.1271995  -0.4192646   1.3180877  )
        56        H      tau(  56) = (  -0.1271995   0.4192646   1.1000018  )
        57        H      tau(  57) = (   0.2994941   0.3197903   1.3180877  )
        58        H      tau(  58) = (  -0.2994941  -0.3197903   1.1000018  )
        59        H      tau(  59) = (  -0.4266936   0.0994743   1.3180877  )
        60        H      tau(  60) = (   0.4266936  -0.0994743   1.1000018  )
        61        H      tau(  61) = (  -0.3033359  -0.0048936   1.5317292  )
        62        H      tau(  62) = (   0.3033359   0.0048936   0.8863604  )
        63        H      tau(  63) = (   0.1559059  -0.2602497   1.5317292  )
        64        H      tau(  64) = (  -0.1559059   0.2602497   0.8863604  )
        65        H      tau(  65) = (   0.1474299   0.2651434   1.5317292  )
        66        H      tau(  66) = (  -0.1474299  -0.2651434   0.8863604  )
        67        H      tau(  67) = (   0.1186117   0.2331738   0.8603740  )
        68        H      tau(  68) = (  -0.1186117  -0.2331738   1.5577156  )
        69        H      tau(  69) = (  -0.2612403  -0.0138661   0.8603740  )
        70        H      tau(  70) = (   0.2612403   0.0138661   1.5577156  )
        71        H      tau(  71) = (   0.1426286  -0.2193077   0.8603740  )
        72        H      tau(  72) = (  -0.1426286   0.2193077   1.5577156  )
        73        O      tau(  73) = (   0.0906044  -0.1500557   1.4233125  )
        74        O      tau(  74) = (  -0.0906044   0.1500557   0.9947771  )
        75        O      tau(  75) = (   0.0846498   0.1534936   1.4233125  )
        76        O      tau(  76) = (  -0.0846498  -0.1534936   0.9947771  )
        77        O      tau(  77) = (  -0.1752542  -0.0034379   1.4233125  )
        78        O      tau(  78) = (   0.1752542   0.0034379   0.9947771  )
        79        O      tau(  79) = (   0.0698706  -0.1368255   0.9886271  )
        80        O      tau(  80) = (  -0.0698706   0.1368255   1.4294625  )
        81        O      tau(  81) = (   0.0835590   0.1289225   0.9886271  )
        82        O      tau(  82) = (  -0.0835590  -0.1289225   1.4294625  )
        83        O      tau(  83) = (  -0.1534297   0.0079030   0.9886271  )
        84        O      tau(  84) = (   0.1534297  -0.0079030   1.4294625  )
        85        O      tau(  85) = (   0.0966139   0.2594365   1.1465662  )
        86        O      tau(  86) = (  -0.0966139  -0.2594365   1.2715234  )
        87        O      tau(  87) = (  -0.2729856  -0.0460482   1.1465662  )
        88        O      tau(  88) = (   0.2729856   0.0460482   1.2715234  )
        89        O      tau(  89) = (   0.1763717  -0.2133884   1.1465662  )
        90        O      tau(  90) = (  -0.1763717   0.2133884   1.2715234  )
        91        O      tau(  91) = (  -0.2727370   0.0534635   1.2649357  )
        92        O      tau(  92) = (   0.2727370  -0.0534635   1.1531539  )
        93        O      tau(  93) = (   0.0900678  -0.2629289   1.2649357  )
        94        O      tau(  94) = (  -0.0900678   0.2629289   1.1531539  )
        95        O      tau(  95) = (   0.1826692   0.2094654   1.2649357  )
        96        O      tau(  96) = (  -0.1826692  -0.2094654   1.1531539  )
        97        O      tau(  97) = (  -0.0015382  -0.1242573   1.1514241  )
        98        O      tau(  98) = (   0.0015382   0.1242573   1.2666655  )
        99        O      tau(  99) = (   0.1083791   0.0607965   1.1514241  )
       100        O      tau( 100) = (  -0.1083791  -0.0607965   1.2666655  )
       101        O      tau( 101) = (  -0.1068409   0.0634608   1.1514241  )
       102        O      tau( 102) = (   0.1068409  -0.0634608   1.2666655  )
       103        Zr     tau( 103) = (  -0.0016444  -0.1465334   1.3010749  )
       104        Zr     tau( 104) = (   0.0016444   0.1465334   1.1170147  )
       105        Zr     tau( 105) = (   0.1277238   0.0718427   1.3010749  )
       106        Zr     tau( 106) = (  -0.1277238  -0.0718427   1.1170147  )
       107        Zr     tau( 107) = (  -0.1260795   0.0746908   1.3010749  )
       108        Zr     tau( 108) = (   0.1260795  -0.0746908   1.1170147  )

     number of k points=     6
                       cart. coord. in units 2pi/alat
        k(    1) = (   0.0000000   0.0000000   0.0000000), wk =   0.0740741
        k(    2) = (  -0.3251533  -0.1877274   0.1378499), wk =   0.4444444
        k(    3) = (  -0.3251533   0.1877274   0.2756997), wk =   0.4444444
        k(    4) = (   0.3251533   0.5631821   0.0000000), wk =   0.4444444
        k(    5) = (   0.0000000   0.0000000   0.4135496), wk =   0.1481481
        k(    6) = (   0.6503067   0.3754547   0.1378499), wk =   0.4444444

     Dense  grid:  6975721 G-vectors     FFT dimensions: ( 270, 270, 270)

     Smooth grid:  3796139 G-vectors     FFT dimensions: ( 216, 216, 216)

     Estimated max dynamical RAM per process >     421.40 MB

     Estimated total dynamical RAM >     100.36 GB

     Initial potential from superposition of free atoms

     starting charge     467.9848, renormalised to     468.0000

     negative rho (up, down):  4.767E-06 0.000E+00
     Starting wfcs are  414 randomized atomic wfcs
     Checking if some PAW data can be deallocated... 

     total cpu time spent up to now is      124.6 secs

     Self-consistent Calculation

     iteration #  1     ecut=   150.00 Ry     beta= 0.70
     Davidson diagonalization with overlap
     ethr =  1.00E-02,  avg # of iterations =  2.0

     total cpu time spent up to now is      367.3 secs

     total energy              =   -4001.31860558 Ry
     estimated scf accuracy    <      17.03284740 Ry

     iteration #  2     ecut=   150.00 Ry     beta= 0.70
     Davidson diagonalization with overlap
     ethr =  3.64E-03,  avg # of iterations = 12.0

     total cpu time spent up to now is      753.7 secs

     total energy              =   -4004.02628969 Ry
     estimated scf accuracy    <      19.26629490 Ry

     iteration #  3     ecut=   150.00 Ry     beta= 0.70
     Davidson diagonalization with overlap
     ethr =  3.64E-03,  avg # of iterations =  7.5

     total cpu time spent up to now is     1033.5 secs

     total energy              =   -4008.26730040 Ry
     estimated scf accuracy    <       4.39552649 Ry

     iteration #  4     ecut=   150.00 Ry     beta= 0.70
     Davidson diagonalization with overlap
     ethr =  9.39E-04,  avg # of iterations =  4.5

     negative rho (up, down):  3.541E-06 0.000E+00

     total cpu time spent up to now is     1231.4 secs

     total energy              =   -4007.82855464 Ry
     estimated scf accuracy    <       1.30069736 Ry

     iteration #  5     ecut=   150.00 Ry     beta= 0.70
     Davidson diagonalization with overlap
     ethr =  2.78E-04,  avg # of iterations = 14.2

     negative rho (up, down):  6.332E-06 0.000E+00

     total cpu time spent up to now is     1711.7 secs

     total energy              =   -4009.24433667 Ry
     estimated scf accuracy    <       4.42742399 Ry

     iteration #  6     ecut=   150.00 Ry     beta= 0.70
     Davidson diagonalization with overlap
     ethr =  2.78E-04,  avg # of iterations =  8.0

     negative rho (up, down):  1.389E-05 0.000E+00

     total cpu time spent up to now is     1901.1 secs

     total energy              =   -4008.36798946 Ry
     estimated scf accuracy    <       2.55234976 Ry

     iteration #  7     ecut=   150.00 Ry     beta= 0.70
     Davidson diagonalization with overlap
     ethr =  2.78E-04,  avg # of iterations =  7.2

     negative rho (up, down):  1.492E-05 0.000E+00

     total cpu time spent up to now is     2201.1 secs

     total energy              =   -4009.12164145 Ry
     estimated scf accuracy    <       0.12195882 Ry

     iteration #  8     ecut=   150.00 Ry     beta= 0.70
     Davidson diagonalization with overlap
     ethr =  2.61E-05,  avg # of iterations =  8.7

     negative rho (up, down):  2.325E-05 0.000E+00

     total cpu time spent up to now is     2533.4 secs

     total energy              =   -4009.20416257 Ry
     estimated scf accuracy    <       0.04236220 Ry

     iteration #  9     ecut=   150.00 Ry     beta= 0.70
     Davidson diagonalization with overlap
     ethr =  9.05E-06,  avg # of iterations =  8.3

     negative rho (up, down):  3.330E-05 0.000E+00

     total cpu time spent up to now is     2827.8 secs

     total energy              =   -4009.17330553 Ry
     estimated scf accuracy    <       0.13872090 Ry

     iteration # 10     ecut=   150.00 Ry     beta= 0.70
     Davidson diagonalization with overlap
     ethr =  9.05E-06,  avg # of iterations =  6.8

     negative rho (up, down):  4.061E-05 0.000E+00

     total cpu time spent up to now is     3043.6 secs

     total energy              =   -4009.16121713 Ry
     estimated scf accuracy    <       0.03980246 Ry

     iteration # 11     ecut=   150.00 Ry     beta= 0.70
     Davidson diagonalization with overlap
     ethr =  8.50E-06,  avg # of iterations =  8.8

     negative rho (up, down):  4.160E-05 0.000E+00

     total cpu time spent up to now is     3355.2 secs

     total energy              =   -4009.18205748 Ry
     estimated scf accuracy    <       0.00659882 Ry

     iteration # 12     ecut=   150.00 Ry     beta= 0.70
     Davidson diagonalization with overlap
     ethr =  1.41E-06,  avg # of iterations =  7.2

     negative rho (up, down):  4.006E-05 0.000E+00

     total cpu time spent up to now is     3653.2 secs

     total energy              =   -4009.18094120 Ry
     estimated scf accuracy    <       0.00944026 Ry

     iteration # 13     ecut=   150.00 Ry     beta= 0.70
     Davidson diagonalization with overlap
     ethr =  1.41E-06,  avg # of iterations =  2.7

     negative rho (up, down):  3.853E-05 0.000E+00

     total cpu time spent up to now is     3841.3 secs

     total energy              =   -4009.17916993 Ry
     estimated scf accuracy    <       0.00376655 Ry

     iteration # 14     ecut=   150.00 Ry     beta= 0.70
     Davidson diagonalization with overlap
     ethr =  8.05E-07,  avg # of iterations = 12.3

     negative rho (up, down):  3.834E-05 0.000E+00

     total cpu time spent up to now is     4286.2 secs

     total energy              =   -4009.18175993 Ry
     estimated scf accuracy    <       0.00383024 Ry

     iteration # 15     ecut=   150.00 Ry     beta= 0.70
     Davidson diagonalization with overlap
     ethr =  8.05E-07,  avg # of iterations =  1.8

     negative rho (up, down):  3.831E-05 0.000E+00

     total cpu time spent up to now is     4462.9 secs

     total energy              =   -4009.18129032 Ry
     estimated scf accuracy    <       0.00163435 Ry

     iteration # 16     ecut=   150.00 Ry     beta= 0.70
     Davidson diagonalization with overlap
     ethr =  3.49E-07,  avg # of iterations =  5.5

     negative rho (up, down):  3.856E-05 0.000E+00

     total cpu time spent up to now is     4731.7 secs

     total energy              =   -4009.18185744 Ry
     estimated scf accuracy    <       0.00000911 Ry

     iteration # 17     ecut=   150.00 Ry     beta= 0.70
     Davidson diagonalization with overlap
     ethr =  1.95E-09,  avg # of iterations = 17.2

     negative rho (up, down):  3.863E-05 0.000E+00

     total cpu time spent up to now is     5736.8 secs

     total energy              =   -4009.18193213 Ry
     estimated scf accuracy    <       0.00022490 Ry

     iteration # 18     ecut=   150.00 Ry     beta= 0.70
     Davidson diagonalization with overlap
     ethr =  1.95E-09,  avg # of iterations =  9.3

     negative rho (up, down):  3.862E-05 0.000E+00

     total cpu time spent up to now is     6194.5 secs

     total energy              =   -4009.18190407 Ry
     estimated scf accuracy    <       0.00007547 Ry

     iteration # 19     ecut=   150.00 Ry     beta= 0.70
     Davidson diagonalization with overlap
     ethr =  1.95E-09,  avg # of iterations = 13.7

     negative rho (up, down):  3.864E-05 0.000E+00

     total cpu time spent up to now is     6932.7 secs

     total energy              =   -4009.18192747 Ry
     estimated scf accuracy    <       0.00000595 Ry

     iteration # 20     ecut=   150.00 Ry     beta= 0.70
     Davidson diagonalization with overlap
     ethr =  1.27E-09,  avg # of iterations =  2.0

     negative rho (up, down):  3.865E-05 0.000E+00

     total cpu time spent up to now is     7121.1 secs

     total energy              =   -4009.18192609 Ry
     estimated scf accuracy    <       0.00000328 Ry

     iteration # 21     ecut=   150.00 Ry     beta= 0.70
     Davidson diagonalization with overlap
     ethr =  7.01E-10,  avg # of iterations =  6.2

     negative rho (up, down):  3.865E-05 0.000E+00

     total cpu time spent up to now is     7419.9 secs

     total energy              =   -4009.18192742 Ry
     estimated scf accuracy    <       0.00000008 Ry

     iteration # 22     ecut=   150.00 Ry     beta= 0.70
     Davidson diagonalization with overlap
     ethr =  1.70E-11,  avg # of iterations = 17.8

     negative rho (up, down):  3.864E-05 0.000E+00

     total cpu time spent up to now is     8184.8 secs

     total energy              =   -4009.18192817 Ry
     estimated scf accuracy    <       0.00000089 Ry

     iteration # 23     ecut=   150.00 Ry     beta= 0.70
     Davidson diagonalization with overlap
     ethr =  1.70E-11,  avg # of iterations = 12.8

     negative rho (up, down):  3.864E-05 0.000E+00

     total cpu time spent up to now is     8892.5 secs

     total energy              =   -4009.18192670 Ry
     estimated scf accuracy    <       0.00000314 Ry

     iteration # 24     ecut=   150.00 Ry     beta= 0.70
     Davidson diagonalization with overlap
     c_bands:  2 eigenvalues not converged
     ethr =  1.70E-11,  avg # of iterations = 19.8

     negative rho (up, down):  3.864E-05 0.000E+00

     total cpu time spent up to now is     9953.8 secs

     total energy              =   -4009.18192760 Ry
     estimated scf accuracy    <       0.00000030 Ry

     iteration # 25     ecut=   150.00 Ry     beta= 0.70
     Davidson diagonalization with overlap
     ethr =  1.70E-11,  avg # of iterations =  2.0

     negative rho (up, down):  3.864E-05 0.000E+00

     total cpu time spent up to now is    10139.7 secs

     total energy              =   -4009.18192751 Ry
     estimated scf accuracy    <       0.00000024 Ry

     iteration # 26     ecut=   150.00 Ry     beta= 0.70
     Davidson diagonalization with overlap
     ethr =  1.70E-11,  avg # of iterations =  5.0

     negative rho (up, down):  3.864E-05 0.000E+00

     total cpu time spent up to now is    10465.5 secs

     total energy              =   -4009.18192755 Ry
     estimated scf accuracy    <       0.00000003 Ry

     iteration # 27     ecut=   150.00 Ry     beta= 0.70
     Davidson diagonalization with overlap
     ethr =  5.55E-12,  avg # of iterations =  4.2

     negative rho (up, down):  3.864E-05 0.000E+00

     total cpu time spent up to now is    10670.9 secs

     total energy              =   -4009.18192755 Ry
     estimated scf accuracy    <       0.00000002 Ry

     iteration # 28     ecut=   150.00 Ry     beta= 0.70
     Davidson diagonalization with overlap
     ethr =  4.30E-12,  avg # of iterations =  8.2

     negative rho (up, down):  3.864E-05 0.000E+00

     total cpu time spent up to now is    10922.0 secs

     End of self-consistent calculation

          k = 0.0000 0.0000 0.0000 (474567 PWs)   bands (ev):

   -49.6133 -49.5969 -49.5969 -49.5848 -49.5827 -49.5827 -28.1017 -27.9989
   -27.9989 -27.9060 -27.9060 -27.8976 -27.7707 -27.7257 -27.7257 -27.7187
   -27.7187 -27.6928 -27.6199 -27.6199 -27.5844 -27.5706 -27.5706 -27.5698
   -22.8543 -22.8089 -22.8089 -22.8030 -22.8030 -22.7780 -22.5843 -22.5792
   -22.5203 -22.5203 -22.5183 -22.5183 -20.5591 -20.5426 -20.5426 -20.5133
   -20.5133 -20.4782 -20.3473 -20.3473 -20.3241 -20.3241 -20.2402 -20.2362
   -17.9903 -17.7578 -17.7578 -17.5637 -17.5637 -17.5214 -17.3908 -17.3897
   -17.3897 -17.2154 -17.2154 -17.2131 -15.0485 -15.0485 -15.0391 -14.8633
   -14.8425 -14.8425 -14.4873 -14.4850 -14.4850 -14.3159 -14.3159 -14.3138
   -12.2881 -12.2523 -12.2523 -12.0961 -12.0375 -12.0375 -10.9620 -10.9620
   -10.9506 -10.7878 -10.7878 -10.7711 -10.2268 -10.2268 -10.1503 -10.0240
    -9.8546  -9.8546  -9.6131  -9.5544  -9.5544  -9.4475  -9.3781  -9.3781
    -8.7845  -8.6124  -8.5375  -8.5375  -8.3949  -8.3949  -8.3544  -8.1976
    -8.1976  -8.1497  -8.1497  -7.8702  -7.8679  -7.8679  -7.7658  -7.7658
    -7.6652  -7.6491  -7.6491  -7.6400  -7.5413  -7.3860  -7.3860  -7.2546
    -7.1598  -6.9240  -6.9240  -6.8590  -6.8374  -6.8374  -6.8322  -6.7354
    -6.7354  -6.6983  -6.6905  -6.6905  -6.6680  -6.6680  -6.6587  -6.5709
    -6.5356  -6.5356  -6.5207  -6.4533  -6.4257  -6.4257  -6.3488  -6.3488
    -6.2142  -6.1875  -6.1875  -6.0332  -6.0332  -6.0158  -5.7273  -5.6347
    -5.6347  -5.4582  -5.2493  -5.2493  -5.1278  -5.0006  -4.9564  -4.9564
    -4.8887  -4.8887  -4.8881  -4.8881  -4.8645  -4.7841  -4.7679  -4.7679
    -4.7294  -4.2481  -4.2481  -4.1954  -4.1494  -4.1494  -4.1491  -4.1412
    -4.1412  -3.9848  -3.9848  -3.9791  -3.9791  -3.9612  -3.8031  -3.6409
    -3.6409  -3.6077  -3.5153  -3.4000  -3.3691  -3.3691  -3.2957  -3.2411
    -3.2411  -3.2059  -3.1651  -3.1651  -3.0823  -3.0403  -3.0403  -2.9780
    -2.9780  -2.9210  -2.9210  -2.8128  -2.7470  -2.6792  -2.6792  -2.6790
    -2.6339  -2.6339  -2.5809  -2.5809  -2.5322  -2.5301  -2.5301  -2.4831
    -2.4253  -2.4253  -2.3915  -2.3789  -2.3782  -2.3699  -2.3699  -2.3441
    -2.3441  -2.2870  -2.2404  -2.2404  -2.1757  -2.1757  -2.1591  -1.6281
    -1.6281  -1.4927

          k =-0.3252-0.1877 0.1378 (474587 PWs)   bands (ev):

   -49.6133 -49.5969 -49.5969 -49.5848 -49.5827 -49.5827 -28.1017 -27.9989
   -27.9989 -27.9060 -27.9060 -27.8976 -27.7707 -27.7257 -27.7257 -27.7187
   -27.7187 -27.6928 -27.6199 -27.6199 -27.5844 -27.5706 -27.5706 -27.5698
   -22.8531 -22.8109 -22.8096 -22.8022 -22.8010 -22.7793 -22.5850 -22.5784
   -22.5218 -22.5203 -22.5183 -22.5168 -20.5587 -20.5432 -20.5428 -20.5131
   -20.5127 -20.4787 -20.3473 -20.3469 -20.3245 -20.3241 -20.2400 -20.2364
   -17.9877 -17.7587 -17.7579 -17.5626 -17.5608 -17.5220 -17.3937 -17.3928
   -17.3901 -17.2154 -17.2150 -17.2136 -15.0464 -15.0455 -15.0406 -14.8589
   -14.8467 -14.8425 -14.4869 -14.4855 -14.4851 -14.3160 -14.3155 -14.3143
   -12.2841 -12.2588 -12.2517 -12.0869 -12.0529 -12.0394 -10.9613 -10.9595
   -10.9525 -10.7887 -10.7851 -10.7749 -10.2103 -10.1893 -10.1035 -10.0587
    -9.9345  -9.8552  -9.6032  -9.5619  -9.5509  -9.4257  -9.3848  -9.3793
    -8.7455  -8.6063  -8.5705  -8.5391  -8.4506  -8.4310  -8.2919  -8.2130
    -8.1655  -8.1092  -8.0951  -7.9412  -7.8688  -7.8405  -7.8209  -7.7959
    -7.7651  -7.6543  -7.6011  -7.5536  -7.5325  -7.4121  -7.3691  -7.2744
    -7.1192  -6.9860  -6.9448  -6.8693  -6.8138  -6.8071  -6.7655  -6.7283
    -6.7260  -6.7210  -6.7085  -6.6873  -6.6678  -6.6293  -6.6162  -6.5815
    -6.5694  -6.5545  -6.5339  -6.4880  -6.4420  -6.4217  -6.3648  -6.3258
    -6.2088  -6.1935  -6.1876  -6.0339  -6.0294  -6.0198  -5.6456  -5.5990
    -5.5449  -5.4877  -5.3448  -5.3123  -5.1054  -5.0962  -5.0002  -4.9713
    -4.9610  -4.9207  -4.8894  -4.8627  -4.7958  -4.7678  -4.7584  -4.7053
    -4.6820  -4.2586  -4.2430  -4.2128  -4.1624  -4.1462  -4.1433  -4.1174
    -4.1152  -4.0339  -3.9793  -3.9714  -3.9672  -3.9608  -3.7925  -3.6420
    -3.6363  -3.5862  -3.5199  -3.4213  -3.3841  -3.3725  -3.2895  -3.2531
    -3.2495  -3.1992  -3.1578  -3.1460  -3.0900  -3.0207  -3.0143  -2.9581
    -2.9483  -2.9408  -2.9312  -2.8570  -2.7471  -2.7197  -2.6963  -2.6382
    -2.6102  -2.5971  -2.5913  -2.5562  -2.5534  -2.5366  -2.5305  -2.4687
    -2.4470  -2.4228  -2.4138  -2.3991  -2.3881  -2.3742  -2.3688  -2.3523
    -2.3356  -2.2743  -2.2373  -2.2273  -2.1889  -2.1772  -2.1671  -1.6390
    -1.6272  -1.4766

          k =-0.3252 0.1877 0.2757 (474590 PWs)   bands (ev):

   -49.6133 -49.5969 -49.5969 -49.5848 -49.5827 -49.5827 -28.1017 -27.9989
   -27.9989 -27.9060 -27.9060 -27.8976 -27.7707 -27.7257 -27.7257 -27.7187
   -27.7187 -27.6928 -27.6199 -27.6199 -27.5844 -27.5706 -27.5706 -27.5698
   -22.8531 -22.8109 -22.8096 -22.8022 -22.8010 -22.7793 -22.5857 -22.5778
   -22.5226 -22.5210 -22.5175 -22.5159 -20.5587 -20.5432 -20.5428 -20.5131
   -20.5127 -20.4787 -20.3471 -20.3467 -20.3248 -20.3243 -20.2398 -20.2366
   -17.9868 -17.7587 -17.7584 -17.5627 -17.5606 -17.5226 -17.3937 -17.3928
   -17.3900 -17.2156 -17.2144 -17.2142 -15.0464 -15.0456 -15.0407 -14.8568
   -14.8462 -14.8445 -14.4869 -14.4855 -14.4851 -14.3160 -14.3155 -14.3143
   -12.2838 -12.2608 -12.2511 -12.0926 -12.0520 -12.0329 -10.9611 -10.9596
   -10.9524 -10.7885 -10.7850 -10.7751 -10.2237 -10.1829 -10.0900 -10.0580
    -9.9242  -9.8828  -9.6017  -9.5646  -9.5506  -9.4266  -9.3890  -9.3697
    -8.7413  -8.6078  -8.5644  -8.5461  -8.4631  -8.4084  -8.2860  -8.2099
    -8.1840  -8.1015  -8.0617  -7.9330  -7.8778  -7.8513  -7.8246  -7.8017
    -7.7638  -7.6575  -7.6011  -7.5715  -7.5380  -7.4085  -7.3797  -7.2886
    -7.1101  -6.9832  -6.9459  -6.8932  -6.8033  -6.7853  -6.7693  -6.7292
    -6.7266  -6.7179  -6.7097  -6.6853  -6.6419  -6.6383  -6.6126  -6.5838
    -6.5664  -6.5534  -6.5507  -6.4747  -6.4525  -6.4036  -6.3526  -6.3501
    -6.2090  -6.1934  -6.1873  -6.0333  -6.0300  -6.0194  -5.6675  -5.5600
    -5.5379  -5.4534  -5.3386  -5.3001  -5.1641  -5.1369  -5.0759  -5.0252
    -4.9604  -4.8949  -4.8549  -4.8178  -4.8032  -4.7435  -4.7174  -4.7112
    -4.6695  -4.3046  -4.2306  -4.1976  -4.1920  -4.1513  -4.1473  -4.1266
    -4.0774  -4.0225  -3.9992  -3.9748  -3.9595  -3.9524  -3.7864  -3.6405
    -3.6367  -3.5867  -3.5190  -3.4195  -3.3830  -3.3799  -3.2874  -3.2616
    -3.2567  -3.1936  -3.1467  -3.1445  -3.0916  -3.0226  -3.0028  -2.9573
    -2.9437  -2.9403  -2.9334  -2.8554  -2.7483  -2.7146  -2.7055  -2.6371
    -2.6016  -2.5973  -2.5958  -2.5741  -2.5601  -2.5514  -2.5024  -2.4821
    -2.4385  -2.4185  -2.4116  -2.4017  -2.3964  -2.3796  -2.3688  -2.3518
    -2.3375  -2.2963  -2.2402  -2.2032  -2.1891  -2.1741  -2.1630  -1.6374
    -1.6351  -1.4660

          k = 0.3252 0.5632 0.0000 (474637 PWs)   bands (ev):

   -49.6133 -49.5969 -49.5969 -49.5848 -49.5827 -49.5827 -28.1017 -27.9989
   -27.9989 -27.9060 -27.9060 -27.8976 -27.7707 -27.7257 -27.7257 -27.7187
   -27.7187 -27.6928 -27.6199 -27.6199 -27.5844 -27.5706 -27.5706 -27.5698
   -22.8525 -22.8110 -22.8109 -22.8009 -22.8009 -22.7800 -22.5856 -22.5778
   -22.5225 -22.5211 -22.5174 -22.5161 -20.5585 -20.5432 -20.5432 -20.5127
   -20.5127 -20.4789 -20.3471 -20.3467 -20.3248 -20.3243 -20.2398 -20.2366
   -17.9859 -17.7590 -17.7584 -17.5607 -17.5606 -17.5226 -17.3935 -17.3935
   -17.3927 -17.2157 -17.2149 -17.2136 -15.0444 -15.0433 -15.0432 -14.8537
   -14.8500 -14.8438 -14.4862 -14.4862 -14.4851 -14.3160 -14.3149 -14.3149
   -12.2749 -12.2740 -12.2488 -12.0780 -12.0687 -12.0337 -10.9612 -10.9557
   -10.9557 -10.7890 -10.7803 -10.7800 -10.2157 -10.1321 -10.1299 -10.0170
    -9.9883  -9.8805  -9.5857  -9.5806  -9.5479  -9.4057  -9.4028  -9.3726
    -8.6864  -8.6752  -8.5535  -8.5172  -8.4970  -8.4334  -8.2453  -8.2274
    -8.2019  -8.0294  -8.0234  -8.0006  -7.8876  -7.8785  -7.8289  -7.8160
    -7.7853  -7.6485  -7.5582  -7.5560  -7.5310  -7.4106  -7.3888  -7.2957
    -7.0866  -6.9914  -6.9828  -6.8929  -6.7688  -6.7637  -6.7530  -6.7258
    -6.7220  -6.7195  -6.7148  -6.7013  -6.6834  -6.6221  -6.5931  -6.5733
    -6.5699  -6.5597  -6.5477  -6.5069  -6.4731  -6.3904  -6.3704  -6.3313
    -6.2014  -6.2011  -6.1875  -6.0339  -6.0249  -6.0243  -5.5939  -5.5624
    -5.5417  -5.4437  -5.3736  -5.3316  -5.1657  -5.1574  -5.0820  -5.0193
    -4.9545  -4.8882  -4.8826  -4.8223  -4.8183  -4.7316  -4.7116  -4.6796
    -4.6739  -4.2839  -4.2445  -4.2130  -4.1913  -4.1616  -4.1252  -4.1240
    -4.0827  -4.0143  -3.9926  -3.9729  -3.9619  -3.9587  -3.7835  -3.6405
    -3.6357  -3.5777  -3.5226  -3.4310  -3.3867  -3.3824  -3.2849  -3.2619
    -3.2581  -3.1901  -3.1444  -3.1408  -3.0941  -3.0060  -2.9973  -2.9527
    -2.9475  -2.9310  -2.9276  -2.8871  -2.7434  -2.7364  -2.7093  -2.6147
    -2.5987  -2.5915  -2.5823  -2.5791  -2.5663  -2.5386  -2.5071  -2.4857
    -2.4295  -2.4291  -2.4178  -2.4117  -2.3973  -2.3906  -2.3588  -2.3568
    -2.3378  -2.2779  -2.2496  -2.1974  -2.1920  -2.1759  -2.1732  -1.6406
    -1.6334  -1.4639

          k = 0.0000 0.0000 0.4135 (474434 PWs)   bands (ev):

   -49.6133 -49.5969 -49.5969 -49.5848 -49.5827 -49.5827 -28.1017 -27.9989
   -27.9989 -27.9060 -27.9060 -27.8976 -27.7707 -27.7257 -27.7257 -27.7187
   -27.7187 -27.6928 -27.6199 -27.6199 -27.5844 -27.5706 -27.5706 -27.5698
   -22.8541 -22.8089 -22.8089 -22.8029 -22.8029 -22.7780 -22.5864 -22.5772
   -22.5226 -22.5226 -22.5160 -22.5160 -20.5591 -20.5426 -20.5426 -20.5133
   -20.5133 -20.4782 -20.3467 -20.3467 -20.3247 -20.3247 -20.2396 -20.2368
   -17.9876 -17.7586 -17.7586 -17.5635 -17.5635 -17.5232 -17.3908 -17.3897
   -17.3897 -17.2158 -17.2142 -17.2142 -15.0485 -15.0485 -15.0391 -14.8580
   -14.8446 -14.8446 -14.4873 -14.4850 -14.4850 -14.3160 -14.3160 -14.3138
   -12.2850 -12.2505 -12.2505 -12.1130 -12.0322 -12.0322 -10.9619 -10.9619
   -10.9506 -10.7884 -10.7884 -10.7716 -10.2203 -10.2203 -10.1250 -10.0292
    -9.8874  -9.8874  -9.6068  -9.5520  -9.5520  -9.4593  -9.3689  -9.3689
    -8.7758  -8.6093  -8.5403  -8.5403  -8.3927  -8.3927  -8.3366  -8.1648
    -8.1648  -8.1396  -8.1396  -7.8857  -7.8857  -7.8112  -7.7785  -7.7785
    -7.7116  -7.6754  -7.6591  -7.6591  -7.6066  -7.3843  -7.3843  -7.2591
    -7.1269  -6.9259  -6.9259  -6.9107  -6.8205  -6.8147  -6.8147  -6.7344
    -6.7344  -6.6957  -6.6771  -6.6771  -6.6523  -6.6523  -6.6195  -6.5717
    -6.5614  -6.5570  -6.5570  -6.4178  -6.4178  -6.3886  -6.3795  -6.3795
    -6.2148  -6.1873  -6.1873  -6.0333  -6.0333  -6.0154  -5.6572  -5.6063
    -5.6063  -5.4017  -5.3317  -5.3317  -5.1425  -5.0842  -5.0024  -5.0024
    -4.9826  -4.9423  -4.9423  -4.7740  -4.7630  -4.7630  -4.7474  -4.6578
    -4.6578  -4.3087  -4.3087  -4.1726  -4.1726  -4.1484  -4.1483  -4.1483
    -4.0985  -4.0018  -4.0018  -3.9582  -3.9582  -3.9560  -3.7864  -3.6387
    -3.6387  -3.6085  -3.5126  -3.3954  -3.3799  -3.3799  -3.2901  -3.2643
    -3.2643  -3.1837  -3.1486  -3.1486  -3.0876  -3.0315  -3.0315  -2.9574
    -2.9574  -2.9346  -2.9346  -2.8160  -2.7262  -2.6997  -2.6997  -2.6757
    -2.6153  -2.6153  -2.5911  -2.5911  -2.5768  -2.5167  -2.5167  -2.4949
    -2.4183  -2.4183  -2.4040  -2.4040  -2.3958  -2.3867  -2.3569  -2.3399
    -2.3399  -2.3383  -2.2077  -2.2077  -2.1722  -2.1722  -2.1611  -1.6377
    -1.6377  -1.4598

          k = 0.6503 0.3755 0.1378 (474596 PWs)   bands (ev):

   -49.6133 -49.5969 -49.5969 -49.5848 -49.5827 -49.5827 -28.1017 -27.9989
   -27.9989 -27.9060 -27.9060 -27.8976 -27.7707 -27.7257 -27.7257 -27.7187
   -27.7187 -27.6928 -27.6199 -27.6199 -27.5844 -27.5706 -27.5706 -27.5698
   -22.8530 -22.8109 -22.8096 -22.8022 -22.8010 -22.7793 -22.5863 -22.5772
   -22.5226 -22.5224 -22.5162 -22.5159 -20.5587 -20.5432 -20.5428 -20.5131
   -20.5127 -20.4787 -20.3467 -20.3467 -20.3247 -20.3247 -20.2395 -20.2369
   -17.9859 -17.7590 -17.7587 -17.5626 -17.5606 -17.5232 -17.3937 -17.3928
   -17.3900 -17.2163 -17.2142 -17.2137 -15.0464 -15.0456 -15.0407 -14.8539
   -14.8487 -14.8445 -14.4869 -14.4855 -14.4851 -14.3160 -14.3156 -14.3142
   -12.2826 -12.2593 -12.2516 -12.1015 -12.0457 -12.0322 -10.9611 -10.9595
   -10.9525 -10.7887 -10.7852 -10.7753 -10.2170 -10.1859 -10.0723 -10.0600
    -9.9549  -9.8804  -9.5984  -9.5635  -9.5518  -9.4361  -9.3787  -9.3696
    -8.7356  -8.6148  -8.5736  -8.5440  -8.4444  -8.4080  -8.2727  -8.2149
    -8.1938  -8.0750  -8.0476  -7.9163  -7.8869  -7.8721  -7.8310  -7.8081
    -7.7701  -7.6757  -7.5945  -7.5703  -7.5621  -7.4111  -7.3786  -7.2868
    -7.0968  -6.9856  -6.9454  -6.9116  -6.7917  -6.7842  -6.7507  -6.7309
    -6.7270  -6.7212  -6.7080  -6.6882  -6.6425  -6.6246  -6.6034  -6.5805
    -6.5684  -6.5624  -6.5585  -6.4836  -6.4421  -6.3986  -6.3669  -6.3440
    -6.2093  -6.1932  -6.1873  -6.0336  -6.0298  -6.0192  -5.6301  -5.5703
    -5.5270  -5.4034  -5.3688  -5.3337  -5.1834  -5.1498  -5.0897  -5.0653
    -4.9541  -4.9114  -4.8984  -4.8187  -4.7547  -4.7377  -4.6788  -4.6668
    -4.6573  -4.3206  -4.2729  -4.1875  -4.1820  -4.1645  -4.1461  -4.1276
    -4.0744  -4.0291  -3.9942  -3.9650  -3.9594  -3.9510  -3.7797  -3.6385
    -3.6378  -3.5865  -3.5180  -3.4178  -3.3891  -3.3816  -3.2854  -3.2665
    -3.2660  -3.1774  -3.1449  -3.1403  -3.0937  -3.0161  -3.0009  -2.9515
    -2.9497  -2.9415  -2.9313  -2.8552  -2.7509  -2.7138  -2.7064  -2.6352
    -2.6030  -2.5956  -2.5896  -2.5866  -2.5789  -2.5249  -2.5014  -2.4933
    -2.4355  -2.4293  -2.4226  -2.4002  -2.3977  -2.3752  -2.3713  -2.3518
    -2.3371  -2.3218  -2.2098  -2.1968  -2.1845  -2.1811  -2.1649  -1.6417
    -1.6367  -1.4558

     highest occupied level (ev):    -1.4558

!    total energy              =   -4009.18192755 Ry
     total all-electron energy =    -51389.599034 Ry
     estimated scf accuracy    <          4.2E-09 Ry

     The total energy is the sum of the following terms:
     one-electron contribution =   -6099.73247261 Ry
     hartree contribution      =    3181.35841467 Ry
     xc contribution           =    -570.41016566 Ry
     ewald contribution        =    1323.31868183 Ry
     one-center paw contrib.   =   -1843.71638578 Ry

     convergence has been achieved in  28 iterations

     Writing all to output data dir ./pwscf.save/ :
     XML data file, charge density, pseudopotentials, collected wavefunctions

     init_run     :    118.12s CPU    123.15s WALL (       1 calls)
     electrons    :  10611.18s CPU  10798.00s WALL (       1 calls)

     Called by init_run:
     wfcinit      :    110.27s CPU    113.50s WALL (       1 calls)
     potinit      :      1.11s CPU      1.32s WALL (       1 calls)
     hinit0       :      0.63s CPU      0.86s WALL (       1 calls)

     Called by electrons:
     c_bands      :  10053.70s CPU  10196.42s WALL (      28 calls)
     sum_band     :    516.32s CPU    544.22s WALL (      28 calls)
     v_of_rho     :     11.72s CPU     12.95s WALL (      29 calls)
     newd         :     24.93s CPU     39.59s WALL (      29 calls)
     PAW_pot      :      2.08s CPU      2.18s WALL (      29 calls)
     mix_rho      :      1.10s CPU      1.33s WALL (      28 calls)

     Called by c_bands:
     init_us_2    :     10.32s CPU     10.93s WALL (     114 calls)
     cegterg      :   9749.93s CPU   9892.02s WALL (      56 calls)

     Called by *egterg:
     cdiaghg      :    113.67s CPU    119.97s WALL (     519 calls)
     h_psi        :   3472.20s CPU   3588.89s WALL (     521 calls)
     s_psi        :   1364.82s CPU   1365.23s WALL (     521 calls)
     g_psi        :      1.64s CPU      1.65s WALL (     463 calls)

     Called by h_psi:
     h_psi:calbec :   1651.06s CPU   1654.21s WALL (     521 calls)
     vloc_psi     :    484.10s CPU    589.80s WALL (     521 calls)
     add_vuspsi   :   1335.23s CPU   1335.67s WALL (     521 calls)

     General routines
     calbec       :   2055.96s CPU   2059.46s WALL (     577 calls)
     fft          :      7.91s CPU      9.34s WALL (     375 calls)
     ffts         :      1.12s CPU      1.26s WALL (      57 calls)
     fftw         :    445.97s CPU    561.97s WALL (  121658 calls)
     interpolate  :      1.78s CPU      1.94s WALL (      29 calls)

     Parallel routines

     PWSCF        :      2h58m CPU      3h 2m WALL


   This run was terminated on:   9:58: 6  20Jun2025            

=------------------------------------------------------------------------------=
   JOB DONE.
=------------------------------------------------------------------------------=
