
                                 *****************
                                 * O   R   C   A *
                                 *****************

                                            #,                                       
                                            ###                                      
                                            ####                                     
                                            #####                                    
                                            ######                                   
                                           ########,                                 
                                     ,,################,,,,,                         
                               ,,#################################,,                 
                          ,,##########################################,,             
                       ,#########################################, ''#####,          
                    ,#############################################,,   '####,        
                  ,##################################################,,,,####,       
                ,###########''''           ''''###############################       
              ,#####''   ,,,,##########,,,,          '''####'''          '####       
            ,##' ,,,,###########################,,,                        '##       
           ' ,,###''''                  '''############,,,                           
         ,,##''                                '''############,,,,        ,,,,,,###''
      ,#''                                            '''#######################'''  
     '                                                          ''''####''''         
             ,#######,   #######,   ,#######,      ##                                
            ,#'     '#,  ##    ##  ,#'     '#,    #''#        ,####,    ,#,          
            ##       ##  ##   ,#'  ##            #'  '#       #'       ,# #          
            ##       ##  #######   ##           ,######,      #####,      #          
            '#,     ,#'  ##    ##  '#,     ,#' ,#      #,     #,   #      #          
             '#######'   ##     ##  '#######'  #'      '#     '####' #    #          



                #########################################################
                #                        -***-                          #
                #          Department of theory and spectroscopy        #
                #                                                       #
                #                      Frank Neese                      #
                #                                                       #
                #     Directorship, Architecture, Infrastructure        #
                #                    SHARK, DRIVERS                     #
                #        Core code/Algorithms in most modules           #
                #                                                       #
                #        Max Planck Institute fuer Kohlenforschung      #
                #                Kaiser Wilhelm Platz 1                 #
                #                 D-45470 Muelheim/Ruhr                 #
                #                      Germany                          #
                #                                                       #
                #                  All rights reserved                  #
                #                        -***-                          #
                #########################################################


                         Program Version 6.1.0  -  RELEASE   -
                                (GIT: $679e74b$)
                          ($2025-06-10 18:02:51 +0200$)


 With contributions from (in alphabetic order):
[Max-Planck-Institut fuer Kohlenforschung]                               
  Daniel Aravena         : Magnetic Suceptibility                        
  Michael Atanasov       : Ab Initio Ligand Field Theory (pilot matlab implementation)
  Alexander A. Auer      : GIAO ZORA, VPT2 properties, NMR spectrum      
  Ute Becker             : All parallelization in ORCA, NUMFREQ, NUMCALC 
  Giovanni Bistoni       : ED, misc. LED, open-shell LED, HFLD           
  Dmytro Bykov           : pre 5.0 version of the SCF Hessian            
  Marcos Casanova-Páez   : Triplet and SCS-CIS(D). UHF-(DLPNO)-IP/EA/STEOM-CCSD. UHF-CVS-IP/STEOM-CCSD   
  Vijay G. Chilkuri      : MRCI spin determinant printing, contributions to CSF-ICE 
  Pauline Colinet        : FMM embedding                                 
  Dipayan Datta          : RHF DLPNO-CCSD density                        
  Achintya Kumar Dutta   : EOM-CC, STEOM-CC                              
  Nicolas Foglia         : Exact transition moments, OPA infrastructure, MCD improvements    
  Dmitry Ganyushin       : Spin-Orbit,Spin-Spin,Magnetic field MRCI      
  Miquel Garcia-Rates    : C-PCM and meta-GGA Hessian, CCSD/C-PCM, Gaussian charge scheme 
  Tiago L. C. Gouveia    : GS-ROHF, GS-ROCIS                             
  Yang Guo               : DLPNO-NEVPT2, F12-NEVPT2, CIM, IAO-localization        
  Andreas Hansen         : Spin unrestricted coupled pair/coupled cluster methods 
  Ingolf Harden          : AUTO-CI MPn and infrastructure                
  Benjamin Helmich-Paris : MC-RPA, TRAH-(SCF,CASSCF), AVAS, COSX integrals, SCF dyn. polar., MC-PDFT, srDFT 
  Lee Huntington         : MR-EOM, pCC                                   
  Robert Izsak           : Overlap fitted RIJCOSX, COSX-SCS-MP3, EOM     
  Riya Kayal             : Wick's Theorem for AUTO-CI, AUTO-CI UHF-CCSDT 
  Emily Kempfer          : AUTO-CI RHF CISDT and CCSDT, approximate NEVPT4
  Christian Kollmar      : KDIIS, OOCD, Brueckner-CCSD(T), CCSD density, CASPT2, CASPT2-K, improved NEVPT2 
  Axel Koslowski         : Symmetry handling                             
  Simone Kossmann        : meta-GGA functionals, TD-DFT gradient, OOMP2, (MP2 Hessian; deprecated post 5.0) 
  Lucas Lang             : DCDCAS, Hyperfine gauge corrections, ICE-SOC+SSC
  Marvin Lechner         : AUTO-CI (C++ implementation), FIC-MRCC        
  Spencer Leger          : CASSCF response                               
  Dagmar Lenk            : GEPOL surface, SMD, ORCA-2-JSON               
  Dimitrios Liakos       : Extrapolation schemes; Compound Job, Property file
  Dimitrios Manganas     : Further ROCIS development; embedding schemes. LFT, Crystal Embedding 
  Dimitrios Pantazis     : SARC Basis sets                               
  Anastasios Papadopoulos: AUTO-CI, single reference methods and gradients 
  Taras Petrenko         : pre 6.0 DFT Hessian and TD-DFT gradient,  ECA, NRVS 
  Petra Pikulova         : Analytic Raman intensities                    
  Peter Pinski           : DLPNO-MP2, DLPNO-MP2 Gradient                 
  Shashank Vittal Rao    : ES-AILFT, MagRelax                            
  Christoph Reimann      : Effective Core Potentials                     
  Marius Retegan         : Local ZFS, SOC                                
  Christoph Riplinger    : Optimizer, TS searches, QM/MM, DLPNO-CCSD(T), (RO)-DLPNO pert. Triples 
  Michael Roemelt        : Original ROCIS implementation, recursive CI coupling coefficients
  Masaaki Saitow         : Open-shell DLPNO-CCSD energy and density      
  Barbara Sandhoefer     : DKH picture change effects                    
  Yorick L. A. Schmerwitz: GMF and freeze-and-release deltaSCF, NEB S-IDPP initial path                    
  Kantharuban Sivalingam : CASSCF convergence/infrastructure, NEVPT2, NEVPT3, NEVPT4(SD), FIC-MRCI and CEPA variants
  Bernardo de Souza      : ESD, SOC TD-DFT                               
  Georgi L. Stoychev     : AutoAux, RI-MP2 NMR, DLPNO-MP2 response, X2C  
  Van Anh Tran           : RI-MP2 g-tensors                              
  Willem Van den Heuvel  : Paramagnetic NMR                              
  Zikuan Wang            : NOTCH, Electric field optimization            
  Frank Wennmohs         : Technical directorship and infrastructure     
  Hang Xu                : AUTO-CI-Response properties                   
                                                                         
[FACCTs GmbH]                                                            
  Markus Bursch, Nicolas Foglia, Miquel Garcia-Rates, Ingolf Harden, Hagen Neugebauer, Anastasios Papadopoulos, 
  Christoph Riplinger, Bernardo de Souza, Georgi L. Stoychev                                                    
                                                                 
  APM, various basis sets, CI-OPT, improved COSX, DLPNO-Multilevel,           
  DOCKER, DRACO, updates on ESD, Fragmentator, GOAT, IRC, LR-CPCM, L-BFGS, MBIS, meta-GGA TD-DFT gradient, ML-optimized integration grids, 
  MM, NACMEs, nearIR, NEB, NEB-TS, NL-DFT gradient (VV10), 2- and 3-layer-ONIOM, interface openCOSMO-RS, QMMM,   
  Crystal-QMMM, RESP, rigid body optimization, SF, symmetry and pop. for TD-DFT, various functionals, SOLVATOR                                   
                                                                         
[Other institutions]                                                     
  V. Asgeirsson          : NEB                                           
  Christoph Bannwarth    : sTDA-DFT, sTD-DFT, PBEh-3c, B97-3c, D3        
  Giovanni Bistoni       : ETS/NOCV, ADLD/ADEX, COVALED                  
  Martin Brehm           : Molecular dynamics                            
  Ronald Cardenas        : ETS/NOCV                                      
  Martina Colucci        : COVALED                                       
  Sebastian Ehlert       : rSCAN, r2SCAN, r2SCAN-3c, D4, dhf basis sets  
  Marvin Friede          : D4 for Fr, Ra, Ac-Lr                          
  Lars Goerigk           : TD-DFT with DH, B97 family of functionals     
  Stefan Grimme          : VdW corrections, initial TS optimization, DFT functionals, gCP, sTDA/sTD-DF 
  Waldemar Hujo          : DFT-NL                                        
  H. Jonsson             : NEB                                           
  Holger Kruse           : gCP                                           
  Marcel Mueller         : wB97X-3c, vDZP basis set                      
  Hagen Neugebauer       : wr2SCAN, Native XTB                           
  Gianluca Regni         : ADLD/ADEX                                     
  Tobias Risthaus        : pre 6.0 range-separated hybrid DFT and stability analysis
  Lukas Wittmann         : regularized MP2, r2SCAN double-hybrids, wr2SCAN        
                                                                         
We gratefully acknowledge several colleagues who have allowed us to      
interface, adapt or use parts of their codes:                            
  Ed Valeev, F. Pavosevic, A. Kumar             : LibInt (2-el integral package), F12 methods 
  Garnet Chan, S. Sharma, J. Yang, R. Olivares  : DMRG                   
  Ulf Ekstrom                                   : XCFun DFT Library      
  Mihaly Kallay                                 : mrcc  (arbitrary order and MRCC methods)
  Frank Weinhold                                : gennbo (NPA and NBO analysis)           
  Simon Mueller                                 : openCOSMO-RS                            
  Christopher J. Cramer and Donald G. Truhlar   : smd solvation model                     
  S Lehtola, MJT Oliveira, MAL Marques          : LibXC Library                           
  Liviu Ungur et al                             : ANISO software                          


 Your calculation uses the libint2 library for the computation of 2-el integrals
 For citations please refer to: http://libint.valeyev.net

 Your ORCA version has been built with support for libXC version: 7.0.0
 For citations please refer to: https://libxc.gitlab.io

 This ORCA versions uses:
   CBLAS   interface :  Fast vector & matrix operations
   LAPACKE interface :  Fast linear algebra routines
   SCALAPACK package :  Parallel linear algebra routines
   Shared memory     :  Shared parallel matrices
   BLAS/LAPACK       :  OpenBLAS 0.3.29  USE64BITINT DYNAMIC_ARCH NO_AFFINITY Bulldozer SINGLE_THREADED
        Core in use  :  Bulldozer
   Copyright (c) 2011-2014, The OpenBLAS Project


  ***********************************
  * Starting time: Sun Aug 17 22:49:17 2025
  * Host name:     chromium10
  * Process ID:    437332
  * Working dir.:  /local/scratch/mehlhorn/62108
  ***********************************



***************************************
The coordinates will be read from file: start.xyz
***************************************


Your calculation utilizes the geometrical counterpoise correction gCP
Please cite in your paper:
H.Kruse, S. Grimme J.Chem.Phys., 136, (2012), 154101 
   

Your calculation utilizes the atom-pairwise dispersion correction
with the Becke-Johnson damping scheme (D3BJ)


Your calculation employs the composite approach PBEh-3c.
Please cite in your paper:
Grimme, S.; Brandenburg, J. G.; Bannwarth, C.; Hansen A. J. Chem. Phys. 2015, 143, 054107 
   

================================================================================

----- Orbital basis set information -----
Your calculation utilizes the basis: def2-mSVP

----- AuxJ basis set information -----
Your calculation utilizes the auxiliary basis: def2-mSVP/J
================================================================================
                                        WARNINGS
                       Please study these warnings very carefully!
================================================================================


WARNING: Geometry Optimization
  ===> : Switching off AutoStart
         For restart on a previous wavefunction, please use MOREAD

================================================================================
                                       INPUT FILE
================================================================================
NAME = run.inp
|  1> # Geometry optimization for (AlH3)n cluster
|  2> 
|  3> %pal nprocs 24  end
|  4> 
|  5> %geom MaxIter 500 end
|  6> 
|  7> %elprop Polar 1 end # invoke raman
|  8> 
|  9> ! PBEh-3c
| 10> ! RKS	# closed shell for AlH3
| 11> ! Freq 	# Frequency analysis to check the stabiltity of the structures
| 12> 
| 13> 
| 14> ! NoPop # population analysis not necessary	
| 15> 
| 16> ! DEFGRID3
| 17> ! ExtremeSCF
| 18> ! VeryTightOpt
| 19> 
| 20> 
| 21> ! SmallPrint
| 22> 
| 23> 
| 24> * xyzFile 0 1 start.xyz # only maingroup elements H and Al so there should be no net spin
| 25> 
| 26>                          ****END OF INPUT****
================================================================================

                       *****************************
                       * Geometry Optimization Run *
                       *****************************

Geometry optimization settings:
Update method            Update   .... BFGS
Choice of coordinates    CoordSys .... (2022) Redundant Internals
Initial Hessian          InHess   .... Almloef's Model
Max. no of cycles        MaxIter  .... 500

Convergence Tolerances:
Energy Change            TolE     ....  2.0000e-07 Eh
Max. Gradient            TolMAXG  ....  3.0000e-05 Eh/bohr
RMS Gradient             TolRMSG  ....  8.0000e-06 Eh/bohr
Max. Displacement        TolMAXD  ....  2.0000e-04 bohr
RMS Displacement         TolRMSD  ....  1.0000e-04 bohr
Strict Convergence                .... False

------------------------------------------------------------------------------
                        ORCA OPTIMIZATION COORDINATE SETUP
------------------------------------------------------------------------------

The optimization will be done in redundant internal coordinates (2022)
Making redundant internal coordinates   ...  (2022 redundants) done
Evaluating the initial hessian          ...  (Almloef) done
Evaluating the coordinates              ...  done
Calculating the B-matrix                .... done
Calculating the G-matrix                .... done
The number of degrees of freedom        ....  329

    -----------------------------------------------------------------
                    Redundant Internal Coordinates


    -----------------------------------------------------------------
         Definition                    Initial Value    Approx d2E/dq
    -----------------------------------------------------------------
      1. B(Al  1,Al  0)                  3.0566         0.067290   
      2. B(H   2,Al  1)                  1.7125         0.256313   
      3. B(H   3,Al  1)                  1.5905         0.401308   
      4. B(H   4,Al  0)                  1.7187         0.250561   
      5. B(H   4,Al  1)                  1.7121         0.256725   
      6. B(H   5,Al  0)                  1.5914         0.399972   
      7. B(H   6,Al  0)                  1.6997         0.268730   
      8. B(H   7,Al  1)                  1.5864         0.407439   
      9. B(Al  8,H   2)                  1.7171         0.252061   
     10. B(Al  8,Al  1)                  3.0579         0.066966   
     11. B(H   9,Al  8)                  1.7019         0.266579   
     12. B(H  10,Al  8)                  1.5917         0.399502   
     13. B(H  11,Al  0)                  1.5899         0.402148   
     14. B(Al 12,H   6)                  1.7403         0.231504   
     15. B(Al 12,Al  0)                  3.0642         0.065443   
     16. B(Al 12,H   9)                  1.7414         0.230529   
     17. B(Al 12,Al  8)                  3.0611         0.066181   
     18. B(H  13,Al 12)                  1.8009         0.185293   
     19. B(H  14,Al 12)                  1.5968         0.392205   
     20. B(H  15,Al  8)                  1.5901         0.401936   
     21. B(Al 16,H  13)                  1.6786         0.290384   
     22. B(Al 16,Al 12)                  3.2626         0.031575   
     23. B(H  17,Al 16)                  1.5891         0.403449   
     24. B(H  18,Al 16)                  1.5888         0.403864   
     25. B(Al 19,Al 16)                  2.9757         0.090585   
     26. B(Al 19,Al 12)                  2.6269         0.326259   
     27. B(H  20,Al 19)                  1.5780         0.420201   
     28. B(H  21,Al 19)                  1.6683         0.301585   
     29. B(H  21,Al 12)                  1.8915         0.132836   
     30. B(H  22,Al 19)                  1.6642         0.306114   
     31. B(H  22,Al 12)                  1.9083         0.124881   
     32. B(H  23,Al 19)                  1.6839         0.284766   
     33. B(H  23,Al 16)                  1.7701         0.207448   
     34. A(H   5,Al  0,Al 12)          132.7866         0.328088   
     35. A(H   4,Al  0,H   6)           98.9092         0.331740   
     36. A(Al  1,Al  0,H   4)           26.9548         0.305433   
     37. A(H   6,Al  0,H  11)          109.1548         0.359176   
     38. A(H   4,Al  0,H   5)          107.9105         0.354603   
     39. A(Al  1,Al  0,H   5)           92.3746         0.329600   
     40. A(H   5,Al  0,H   6)          105.8553         0.358845   
     41. A(H   4,Al  0,H  11)          104.6576         0.354929   
     42. A(H   4,Al  0,Al 12)           84.5430         0.304073   
     43. A(H   5,Al  0,H  11)          126.8905         0.384623   
     44. A(Al  1,Al  0,Al 12)           78.8096         0.283827   
     45. A(Al  1,Al  0,H  11)          130.5075         0.329895   
     46. A(H   6,Al  0,Al 12)           27.3772         0.307508   
     47. A(Al  1,Al  0,H   6)           82.3037         0.308889   
     48. A(H  11,Al  0,Al 12)           90.6305         0.328382   
     49. A(Al  0,Al  1,H   2)          102.5608         0.306547   
     50. A(H   2,Al  1,H   3)          108.8763         0.356172   
     51. A(Al  0,Al  1,H   7)          125.4314         0.330609   
     52. A(H   3,Al  1,H   4)          108.9152         0.356269   
     53. A(H   2,Al  1,H   4)           92.2733         0.330479   
     54. A(H   7,Al  1,Al  8)          124.6599         0.330345   
     55. A(H   2,Al  1,H   7)          106.4653         0.357091   
     56. A(H   4,Al  1,H   7)          106.5169         0.357188   
     57. A(H   4,Al  1,Al  8)          103.2811         0.306389   
     58. A(H   2,Al  1,Al  8)           26.9623         0.306310   
     59. A(Al  0,Al  1,Al  8)          101.2308         0.284844   
     60. A(H   3,Al  1,Al  8)           81.9913         0.329519   
     61. A(H   3,Al  1,H   7)          127.9542         0.385723   
     62. A(Al  0,Al  1,H   4)           27.0674         0.306626   
     63. A(Al  0,Al  1,H   3)           81.8770         0.329782   
     64. A(Al  1,H   2,Al  8)          126.1526         0.329479   
     65. A(Al  0,H   4,Al  1)          125.9778         0.329242   
     66. A(Al  0,H   6,Al 12)          125.9356         0.327432   
     67. A(H   2,Al  8,H  15)          104.7790         0.355257   
     68. A(H   2,Al  8,H  10)          108.0070         0.354891   
     69. A(Al  1,Al  8,H   2)           26.8851         0.305489   
     70. A(H   9,Al  8,H  10)          105.7849         0.358283   
     71. A(H   9,Al  8,H  15)          109.0079         0.358653   
     72. A(Al 12,Al  8,H  15)           91.1685         0.328962   
     73. A(Al  1,Al  8,H  15)          130.8078         0.329604   
     74. A(H  10,Al  8,Al 12)          132.7100         0.328632   
     75. A(H   9,Al  8,Al 12)           27.5909         0.307665   
     76. A(H   2,Al  8,Al 12)           83.8545         0.304911   
     77. A(H   2,Al  8,H   9)           99.2157         0.331626   
     78. A(Al  1,Al  8,H  10)           91.8890         0.329273   
     79. A(Al  1,Al  8,Al 12)           78.8364         0.284109   
     80. A(H  10,Al  8,H  15)          126.7170         0.384509   
     81. A(Al  1,Al  8,H   9)           83.2798         0.308250   
     82. A(Al  8,H   9,Al 12)          125.4962         0.326772   
     83. A(H   9,Al 12,H  14)          102.7349         0.348486   
     84. A(Al  8,Al 12,H  14)           76.0275         0.327635   
     85. A(H   6,Al 12,H  14)          102.9052         0.348734   
     86. A(H   6,Al 12,H   9)           94.1474         0.319300   
     87. A(Al  0,Al 12,H  14)           76.5843         0.327029   
     88. A(H  14,Al 12,H  22)           95.5061         0.314869   
     89. A(H   9,Al 12,H  13)           77.3987         0.307981   
     90. A(Al  8,Al 12,H  13)          103.9120         0.290384   
     91. A(Al  8,Al 12,H  22)           90.2036         0.273179   
     92. A(H   6,Al 12,H  22)          159.2954         0.289464   
     93. A(H   6,Al 12,H  13)           79.8288         0.308190   
     94. A(Al  0,Al 12,H  13)          106.1034         0.289874   
     95. A(Al  8,Al 12,H   9)           26.9129         0.300591   
     96. A(Al 19,Al 12,H  21)           39.2536         0.356993   
     97. A(Al 16,Al 12,H  21)           64.1576         0.246967   
     98. A(H  14,Al 12,H  21)           96.0320         0.318048   
     99. A(Al  0,Al 12,H   9)          104.1838         0.300055   
    100. A(H  21,Al 12,H  22)           78.0801         0.265780   
    101. A(H   9,Al 12,H  21)          159.0984         0.292091   
    102. A(H   6,Al 12,H  21)           90.5111         0.292285   
    103. A(H   6,Al 12,Al  8)          103.2669         0.300793   
    104. A(Al  0,Al 12,H  21)           88.9488         0.275298   
    105. A(Al  0,Al 12,Al  8)          100.9852         0.283095   
    106. A(H  14,Al 12,Al 19)          101.4478         0.431410   
    107. A(H  13,Al 12,Al 19)           76.3998         0.377961   
    108. A(H   9,Al 12,Al 19)          126.0214         0.392606   
    109. A(Al  0,Al 12,H   6)           26.6873         0.300256   
    110. A(Al  0,Al 12,H  22)          164.1147         0.272712   
    111. A(Al  8,Al 12,Al 19)          129.3263         0.368209   
    112. A(H   6,Al 12,Al 19)          125.8743         0.392896   
    113. A(Al  0,Al 12,Al 19)          128.1441         0.367501   
    114. A(Al 19,Al 12,H  22)           39.1722         0.353273   
    115. A(Al 16,Al 12,Al 19)           59.5365         0.325149   
    116. A(Al 16,Al 12,H  22)           75.0793         0.244774   
    117. A(H  13,Al 12,H  22)           81.7199         0.279611   
    118. A(H  14,Al 12,Al 16)          159.2141         0.290832   
    119. A(H  13,Al 12,Al 16)           19.6024         0.259326   
    120. A(H   9,Al 12,Al 16)           96.0025         0.267959   
    121. A(Al  8,Al 12,Al 16)          121.6958         0.253579   
    122. A(H   6,Al 12,Al 16)           84.4227         0.268130   
    123. A(Al  0,Al 12,Al 16)          107.6156         0.253161   
    124. A(H   9,Al 12,H  22)           90.9113         0.289272   
    125. A(Al  8,Al 12,H  21)          165.2690         0.275771   
    126. A(H  13,Al 12,H  21)           83.4122         0.282294   
    127. A(Al 12,H  13,Al 16)          139.3015         0.319726   
    128. A(H  18,Al 16,H  23)          105.9288         0.344049   
    129. A(H  13,Al 16,H  23)           94.5467         0.325700   
    130. A(Al 12,Al 16,H  23)           78.4109         0.263737   
    131. A(H  17,Al 16,H  23)          102.4868         0.343990   
    132. A(Al 19,Al 16,H  23)           29.6805         0.310811   
    133. A(H  18,Al 16,Al 19)          102.3032         0.346910   
    134. A(H  17,Al 16,Al 19)          122.8382         0.346850   
    135. A(H  13,Al 16,Al 19)           67.9305         0.328355   
    136. A(Al 12,Al 16,Al 19)           49.5448         0.265697   
    137. A(H  17,Al 16,H  18)          127.9468         0.385489   
    138. A(H  13,Al 16,H  18)          110.3699         0.364222   
    139. A(Al 12,Al 16,H  18)          101.7141         0.292175   
    140. A(H  13,Al 16,H  17)          109.7554         0.364158   
    141. A(Al 12,Al 16,H  17)          126.3620         0.292127   
    142. A(Al 12,Al 16,H  13)           21.0961         0.277557   
    143. A(H  22,Al 19,H  23)          102.1705         0.346349   
    144. A(H  21,Al 19,H  23)          100.4038         0.345482   
    145. A(H  20,Al 19,H  23)          114.6104         0.365478   
    146. A(Al 16,Al 19,H  23)           31.3671         0.327299   
    147. A(Al 12,Al 19,H  23)          101.2204         0.407478   
    148. A(H  21,Al 19,H  22)           91.8104         0.349714   
    149. A(H  20,Al 19,H  22)          121.8018         0.370039   
    150. A(Al 16,Al 19,H  22)           86.8486         0.331230   
    151. A(Al 12,Al 19,H  22)           46.4096         0.412732   
    152. A(H  20,Al 19,H  21)          121.6025         0.369093   
    153. A(Al 16,Al 19,H  21)           73.6455         0.330414   
    154. A(Al 12,Al 19,H  21)           45.8411         0.411642   
    155. A(Al 16,Al 19,H  20)          144.0842         0.349235   
    156. A(Al 12,Al 19,H  20)          144.1496         0.436796   
    157. A(Al 12,Al 19,Al 16)           70.9187         0.388768   
    158. A(Al 12,H  21,Al 19)           94.9053         0.304825   
    159. A(Al 12,H  22,Al 19)           94.4182         0.302548   
    160. A(Al 16,H  23,Al 19)          118.9524         0.324655   
    161. D(H   2,Al  1,Al  0,H   6)    -57.9125         0.010000   
    162. D(H   2,Al  1,Al  0,H   4)     69.7138         0.010000   
    163. D(H   3,Al  1,Al  0,H   4)    177.3527         0.010000   
    164. D(H   2,Al  1,Al  0,Al 12)    -30.3743         0.010000   
    165. D(H   3,Al  1,Al  0,Al 12)     77.2646         0.010000   
    166. D(H   3,Al  1,Al  0,H   5)    -55.9573         0.010000   
    167. D(H   3,Al  1,Al  0,H   6)     49.7263         0.010000   
    168. D(H   3,Al  1,Al  0,H  11)    158.3910         0.010000   
    169. D(H   2,Al  1,Al  0,H  11)     50.7521         0.010000   
    170. D(H   2,Al  1,Al  0,H   5)   -163.5962         0.010000   
    171. D(Al  8,H   2,Al  1,H   7)   -136.6295         0.010000   
    172. D(Al  8,H   2,Al  1,Al  0)     90.1196         0.010000   
    173. D(Al  8,H   2,Al  1,H   4)    115.4064         0.010000   
    174. D(Al  8,H   2,Al  1,H   3)      4.5248         0.010000   
    175. D(Al  0,H   4,Al  1,H   3)     -2.7705         0.010000   
    176. D(Al  0,H   4,Al  1,Al  8)    -88.7313         0.010000   
    177. D(Al  1,H   4,Al  0,H   6)     52.6043         0.010000   
    178. D(Al  1,H   4,Al  0,Al 12)     75.9817         0.010000   
    179. D(Al  0,H   4,Al  1,H   7)    138.4660         0.010000   
    180. D(Al  1,H   4,Al  0,H  11)    165.2047         0.010000   
    181. D(Al  0,H   4,Al  1,H   2)   -113.6170         0.010000   
    182. D(Al  1,H   4,Al  0,H   5)    -57.3515         0.010000   
    183. D(Al 12,H   6,Al  0,H   5)    170.7994         0.010000   
    184. D(Al 12,H   6,Al  0,H  11)    -49.8019         0.010000   
    185. D(Al 12,H   6,Al  0,H   4)     59.1997         0.010000   
    186. D(Al 12,H   6,Al  0,Al  1)     80.5083         0.010000   
    187. D(H   2,Al  8,Al  1,Al  0)    -95.6631         0.010000   
    188. D(H   2,Al  8,Al  1,H   4)    -68.0300         0.010000   
    189. D(H   2,Al  8,Al  1,H   7)     53.1903         0.010000   
    190. D(H   2,Al  8,Al  1,H   3)   -175.6768         0.010000   
    191. D(H   9,Al  8,Al  1,Al  0)     30.4239         0.010000   
    192. D(H  10,Al  8,H   2,Al  1)     55.6337         0.010000   
    193. D(H  15,Al  8,H   2,Al  1)   -166.9813         0.010000   
    194. D(H  10,Al  8,Al  1,Al  0)    136.0984         0.010000   
    195. D(H   9,Al  8,H   2,Al  1)    -54.3966         0.010000   
    196. D(H   9,Al  8,Al  1,H   7)    179.2773         0.010000   
    197. D(Al 12,Al  8,H   2,Al  1)    -77.3935         0.010000   
    198. D(H   9,Al  8,Al  1,H   3)    -49.5897         0.010000   
    199. D(H   9,Al  8,Al  1,H   2)    126.0870         0.010000   
    200. D(H   9,Al  8,Al  1,H   4)     58.0571         0.010000   
    201. D(Al 12,H   9,Al  8,H  15)     52.2209         0.010000   
    202. D(Al 12,H   9,Al  8,Al  1)    -78.7294         0.010000   
    203. D(Al 12,H   9,Al  8,H  10)   -168.7972         0.010000   
    204. D(Al 12,H   9,Al  8,H   2)    -57.0006         0.010000   
    205. D(Al  8,Al 12,H   6,Al  0)    -88.1010         0.010000   
    206. D(H  13,Al 12,H   6,Al  0)    169.8548         0.010000   
    207. D(H   9,Al 12,H   6,Al  0)   -113.7510         0.010000   
    208. D(H   9,Al 12,Al  0,H  11)   -155.8603         0.010000   
    209. D(H   9,Al 12,Al  0,H   6)     70.3242         0.010000   
    210. D(H   9,Al 12,Al  0,H   5)     58.2265         0.010000   
    211. D(H  14,Al 12,H   6,Al  0)     -9.6661         0.010000   
    212. D(Al  8,Al 12,Al  0,H   5)     85.6232         0.010000   
    213. D(Al  8,Al 12,Al  0,H  11)   -128.4636         0.010000   
    214. D(Al  8,Al 12,Al  0,H   6)     97.7209         0.010000   
    215. D(H   9,Al 12,Al  0,H   4)    -51.1959         0.010000   
    216. D(Al  8,Al 12,Al  0,H   4)    -23.7992         0.010000   
    217. D(Al  8,Al 12,Al  0,Al  1)      2.8362         0.010000   
    218. D(Al 16,Al 12,H   6,Al  0)    150.6097         0.010000   
    219. D(H   6,Al 12,Al  0,H  11)    133.8155         0.010000   
    220. D(H   9,Al 12,Al  0,Al  1)    -24.5605         0.010000   
    221. D(H   6,Al 12,Al  0,H   5)    -12.0977         0.010000   
    222. D(H   6,Al 12,Al  0,H   4)   -121.5200         0.010000   
    223. D(H   6,Al 12,Al  0,Al  1)    -94.8847         0.010000   
    224. D(H  22,Al 12,H   9,Al  8)    -88.6543         0.010000   
    225. D(Al 19,Al 12,H   9,Al  8)   -107.3778         0.010000   
    226. D(Al 16,Al 12,H   9,Al  8)   -163.7466         0.010000   
    227. D(H  14,Al 12,H   9,Al  8)      7.1989         0.010000   
    228. D(H  13,Al 12,H   9,Al  8)   -169.9612         0.010000   
    229. D(H   6,Al 12,H   9,Al  8)    111.4375         0.010000   
    230. D(Al  0,Al 12,H   9,Al  8)     86.3496         0.010000   
    231. D(H   9,Al 12,Al  8,H  15)   -131.6311         0.010000   
    232. D(H   9,Al 12,Al  8,H   2)    123.6295         0.010000   
    233. D(H   9,Al 12,Al  8,Al  1)     96.8979         0.010000   
    234. D(H   6,Al 12,Al  8,H  15)    155.8462         0.010000   
    235. D(H   6,Al 12,Al  8,H  10)    -57.7828         0.010000   
    236. D(H   6,Al 12,Al  8,H   2)     51.1068         0.010000   
    237. D(H   6,Al 12,Al  8,Al  1)     24.3752         0.010000   
    238. D(H   9,Al 12,Al  8,H  10)     14.7399         0.010000   
    239. D(Al  0,Al 12,Al  8,H  15)    128.6363         0.010000   
    240. D(Al  0,Al 12,Al  8,H  10)    -84.9927         0.010000   
    241. D(Al  0,Al 12,Al  8,H   9)    -99.7326         0.010000   
    242. D(H   6,Al 12,Al  8,H   9)    -72.5227         0.010000   
    243. D(Al  0,Al 12,Al  8,H   2)     23.8969         0.010000   
    244. D(H  22,Al 12,H   6,Al  0)    142.5421         0.010000   
    245. D(H  21,Al 12,H   6,Al  0)     86.6409         0.010000   
    246. D(H  21,Al 12,H   9,Al  8)   -146.1504         0.010000   
    247. D(Al 19,Al 12,H   6,Al  0)    104.9785         0.010000   
    248. D(Al  0,Al 12,Al  8,Al  1)     -2.8347         0.010000   
    249. D(Al 16,H  13,Al 12,H  21)    -10.3805         0.010000   
    250. D(Al 16,H  13,Al 12,Al 19)     28.9008         0.010000   
    251. D(Al 16,H  13,Al 12,H   9)    161.2828         0.010000   
    252. D(Al 16,H  13,Al 12,Al  8)    156.6204         0.010000   
    253. D(Al 16,H  13,Al 12,H   6)   -102.0906         0.010000   
    254. D(Al 16,H  13,Al 12,H  22)     68.4741         0.010000   
    255. D(Al 16,H  13,Al 12,Al  0)    -97.3675         0.010000   
    256. D(H  23,Al 16,H  13,Al 12)    -40.0019         0.010000   
    257. D(Al 19,Al 16,H  13,Al 12)    -26.5812         0.010000   
    258. D(H  17,Al 16,H  13,Al 12)   -145.0138         0.010000   
    259. D(H  17,Al 16,Al 12,H  14)   -130.6492         0.010000   
    260. D(H  17,Al 16,Al 12,H  13)     42.0757         0.010000   
    261. D(H  17,Al 16,Al 12,Al  8)     15.1585         0.010000   
    262. D(H  17,Al 16,Al 12,H   6)    117.3218         0.010000   
    263. D(H  17,Al 16,Al 12,Al  0)    130.6926         0.010000   
    264. D(H  13,Al 16,Al 12,H  22)   -107.6973         0.010000   
    265. D(H  13,Al 16,Al 12,H  21)    168.5283         0.010000   
    266. D(H  17,Al 16,Al 12,H   9)     23.7213         0.010000   
    267. D(H  13,Al 16,Al 12,Al 19)   -146.9770         0.010000   
    268. D(H  13,Al 16,Al 12,H  14)   -172.7249         0.010000   
    269. D(H  13,Al 16,Al 12,H   9)    -18.3544         0.010000   
    270. D(H  18,Al 16,H  13,Al 12)     68.8547         0.010000   
    271. D(H  13,Al 16,Al 12,Al  8)    -26.9172         0.010000   
    272. D(H  13,Al 16,Al 12,H   6)     75.2461         0.010000   
    273. D(H  13,Al 16,Al 12,Al  0)     88.6169         0.010000   
    274. D(H  20,Al 19,Al 12,H  13)    179.2637         0.010000   
    275. D(H  20,Al 19,Al 12,H   9)    116.2278         0.010000   
    276. D(H  20,Al 19,Al 12,Al  8)     82.2803         0.010000   
    277. D(H  20,Al 19,Al 12,Al  0)    -80.7821         0.010000   
    278. D(Al 16,Al 19,Al 12,H  22)   -104.4176         0.010000   
    279. D(Al 16,Al 19,Al 12,H  21)     85.4455         0.010000   
    280. D(Al 16,Al 19,Al 12,H  14)    170.9503         0.010000   
    281. D(Al 16,Al 19,Al 12,H  13)    -10.8424         0.010000   
    282. D(H  20,Al 19,Al 12,H   6)   -114.2632         0.010000   
    283. D(Al 16,Al 19,Al 12,H   9)    -73.8783         0.010000   
    284. D(Al 16,Al 19,Al 12,Al  8)   -107.8258         0.010000   
    285. D(Al 16,Al 19,Al 12,H   6)     55.6307         0.010000   
    286. D(H  20,Al 19,Al 12,H  14)      1.0564         0.010000   
    287. D(Al 16,Al 19,Al 12,Al  0)     89.1118         0.010000   
    288. D(H  21,Al 19,Al 16,Al 12)     48.1850         0.010000   
    289. D(H  20,Al 19,Al 16,H  23)    -25.7265         0.010000   
    290. D(H  20,Al 19,Al 16,H  18)     74.9121         0.010000   
    291. D(H  20,Al 19,Al 16,H  17)    -77.9412         0.010000   
    292. D(H  20,Al 19,Al 16,H  13)   -177.8701         0.010000   
    293. D(H  20,Al 19,Al 16,Al 12)    169.9100         0.010000   
    294. D(Al 12,Al 19,Al 16,H  23)    164.3635         0.010000   
    295. D(Al 12,Al 19,Al 16,H  18)    -94.9979         0.010000   
    296. D(Al 12,Al 19,Al 16,H  17)    112.1488         0.010000   
    297. D(Al 12,Al 19,Al 16,H  13)     12.2199         0.010000   
    298. D(Al 12,H  21,Al 19,H  23)    -95.5937         0.010000   
    299. D(Al 12,H  21,Al 19,H  22)      7.1304         0.010000   
    300. D(Al 12,H  21,Al 19,H  20)    136.8100         0.010000   
    301. D(Al 12,H  21,Al 19,Al 16)    -79.0511         0.010000   
    302. D(Al 19,H  21,Al 12,H  22)     -6.3489         0.010000   
    303. D(Al 19,H  21,Al 12,Al 16)     72.6892         0.010000   
    304. D(Al 19,H  21,Al 12,H  14)   -100.7252         0.010000   
    305. D(Al 19,H  21,Al 12,H  13)     76.5405         0.010000   
    306. D(Al 19,H  21,Al 12,H   9)     53.1740         0.010000   
    307. D(Al 19,H  21,Al 12,Al  8)    -44.2947         0.010000   
    308. D(Al 19,H  21,Al 12,H   6)    156.2405         0.010000   
    309. D(Al 19,H  21,Al 12,Al  0)   -177.1168         0.010000   
    310. D(Al 12,H  22,Al 19,H  23)     93.9865         0.010000   
    311. D(Al 12,H  22,Al 19,H  21)     -7.0623         0.010000   
    312. D(Al 12,H  22,Al 19,Al 16)     66.4453         0.010000   
    313. D(Al 19,H  22,Al 12,H  21)      6.3600         0.010000   
    314. D(Al 19,H  22,Al 12,Al 16)    -59.7614         0.010000   
    315. D(Al 19,H  22,Al 12,H  14)    101.3826         0.010000   
    316. D(Al 19,H  22,Al 12,H  13)    -78.6047         0.010000   
    317. D(Al 19,H  22,Al 12,H   9)   -155.7308         0.010000   
    318. D(Al 12,H  22,Al 19,H  20)   -136.5932         0.010000   
    319. D(Al 19,H  22,Al 12,Al  8)    177.3642         0.010000   
    320. D(Al 19,H  22,Al 12,H   6)    -51.4501         0.010000   
    321. D(Al 19,H  22,Al 12,Al  0)     42.2367         0.010000   
    322. D(Al 16,H  23,Al 19,H  22)    -62.4953         0.010000   
    323. D(Al 16,H  23,Al 19,H  21)     31.6597         0.010000   
    324. D(Al 16,H  23,Al 19,H  20)    163.7357         0.010000   
    325. D(Al 16,H  23,Al 19,Al 12)    -15.0515         0.010000   
    326. D(Al 19,H  23,Al 16,H  18)    -86.9481         0.010000   
    327. D(Al 19,H  23,Al 16,H  17)    137.1475         0.010000   
    328. D(Al 19,H  23,Al 16,H  13)     25.7463         0.010000   
    329. D(Al 19,H  23,Al 16,Al 12)     12.0848         0.010000   
    -----------------------------------------------------------------

Number of atoms                         .... 24
Number of degrees of freedom            .... 329


         *************************************************************
         *                GEOMETRY OPTIMIZATION CYCLE   1            *
         *************************************************************
---------------------------------
CARTESIAN COORDINATES (ANGSTROEM)
---------------------------------
  Al    -0.108935    1.139316    3.119658
  Al     0.326872   -0.303862    0.460694
  H      1.498309   -1.485531    0.865923
  H     -1.118895   -0.877299    0.793315
  H      0.823242    0.724192    1.736642
  H     -1.466375    1.799006    2.614915
  H     -0.518784   -0.425865    3.640336
  H      0.820961    0.376229   -0.884651
  Al     1.179881   -3.078617    1.421904
  H      0.174899   -2.709792    2.744891
  H      0.242955   -3.794800    0.352853
  H      0.938371    1.769792    4.136296
  Al     0.602209   -1.681077    4.083416
  H     -0.942163   -2.424199    4.636420
  H      2.009602   -1.078910    3.629260
  H      2.578285   -3.605803    1.964950
  Al    -1.792153   -2.681810    6.060765
  H     -2.555670   -4.073436    5.986413
  H     -2.327448   -1.303597    6.642318
  Al     1.138806   -2.472419    6.530099
  H      2.264657   -2.543276    7.633490
  H      0.666340   -1.021802    5.855107
  H      1.335654   -3.166584    5.030435
  H     -0.354261   -3.084476    7.011379

----------------------------
CARTESIAN COORDINATES (A.U.)
----------------------------
  NO LB      ZA    FRAG     MASS         X           Y           Z
   0 Al   13.0000    0    26.982   -0.205857    2.152996    5.895299
   1 Al   13.0000    0    26.982    0.617699   -0.574216    0.870586
   2 H     1.0000    0     1.008    2.831394   -2.807247    1.636357
   3 H     1.0000    0     1.008   -2.114406   -1.657855    1.499149
   4 H     1.0000    0     1.008    1.555702    1.368524    3.281778
   5 H     1.0000    0     1.008   -2.771048    3.399629    4.941474
   6 H     1.0000    0     1.008   -0.980359   -0.804768    6.879239
   7 H     1.0000    0     1.008    1.551391    0.710970   -1.671747
   8 Al   13.0000    0    26.982    2.229652   -5.817742    2.687010
   9 H     1.0000    0     1.008    0.330510   -5.120766    5.187092
  10 H     1.0000    0     1.008    0.459119   -7.171133    0.666796
  11 H     1.0000    0     1.008    1.773265    3.344422    7.816467
  12 Al   13.0000    0    26.982    1.138010   -3.176774    7.716537
  13 H     1.0000    0     1.008   -1.780429   -4.581072    8.761563
  14 H     1.0000    0     1.008    3.797598   -2.038844    6.858307
  15 H     1.0000    0     1.008    4.872253   -6.813980    3.713217
  16 Al   13.0000    0    26.982   -3.386679   -5.067887   11.453186
  17 H     1.0000    0     1.008   -4.829517   -7.697678   11.312682
  18 H     1.0000    0     1.008   -4.398240   -2.463442   12.552163
  19 Al   13.0000    0    26.982    2.152031   -4.672195   12.340098
  20 H     1.0000    0     1.008    4.279582   -4.806094   14.425206
  21 H     1.0000    0     1.008    1.259200   -1.930927   11.064549
  22 H     1.0000    0     1.008    2.524021   -5.983976    9.506144
  23 H     1.0000    0     1.008   -0.669456   -5.828815   13.249586

--------------------------------
INTERNAL COORDINATES (ANGSTROEM)
--------------------------------
 Al     0   0   0     0.000000000000     0.00000000     0.00000000
 Al     1   0   0     3.056595965784     0.00000000     0.00000000
 H      2   1   0     1.712546897410   102.56083878     0.00000000
 H      2   1   3     1.590506564251    81.87696686   107.63887853
 H      2   1   3     1.712109636403    27.06739853   290.28622414
 H      1   2   3     1.591414427349    92.37457846   196.40382714
 H      1   2   3     1.699668961349    82.30366590   302.08746628
 H      2   1   3     1.586379722674   125.43144709   239.00855608
 Al     3   2   1     1.717100145258   126.15262196    90.11955643
 H      9   3   2     1.701856445221    99.21566260   305.60344898
 H      9   3   2     1.591734633871   108.00699874    55.63365545
 H      1   2   3     1.589937803152   130.50748164    50.75208237
 Al     7   1   2     1.740258773464   125.93559371    80.50832985
 H     13   7   1     1.800868738365    79.82879489   169.85477384
 H     13   7   1     1.596752502665   102.90518430   350.33391786
 H      9   3   2     1.590081094301   104.77902481   193.01868012
 Al    14  13   7     1.678573172127   139.30147146   257.90939529
 H     17  14  13     1.589058568518   109.75538058   214.98617128
 H     17  14  13     1.588778109890   110.36987029    68.85466971
 Al    13   7   1     2.626864714995   125.87433624   104.97854417
 H     20  13   7     1.577984223383   144.14962372   245.73676615
 H     20  13   7     1.668270653299    45.84105221   330.18519191
 H     20  13   7     1.664213377492    46.40962137   160.04823764
 H     20  13   7     1.683891820195   101.22038370    63.85393716

---------------------------
INTERNAL COORDINATES (A.U.)
---------------------------
 Al     0   0   0     0.000000000000     0.00000000     0.00000000
 Al     1   0   0     5.776129277380     0.00000000     0.00000000
 H      2   1   0     3.236244627601   102.56083878     0.00000000
 H      2   1   3     3.005621820638    81.87696686   107.63887853
 H      2   1   3     3.235418324049    27.06739853   290.28622414
 H      1   2   3     3.007337433260    92.37457846   196.40382714
 H      1   2   3     3.211908855277    82.30366590   302.08746628
 H      2   1   3     2.997823220261   125.43144709   239.00855608
 Al     3   2   1     3.244849019053   126.15262196    90.11955643
 H      9   3   2     3.216042600716    99.21566260   305.60344898
 H      9   3   2     3.007942535893   108.00699874    55.63365545
 H      1   2   3     3.004547017926   130.50748164    50.75208237
 Al     7   1   2     3.288612484001   125.93559371    80.50832985
 H     13   7   1     3.403148718650    79.82879489   169.85477384
 H     13   7   1     3.017424933690   102.90518430   350.33391786
 H      9   3   2     3.004817798954   104.77902481   193.01868012
 Al    14  13   7     3.172043591067   139.30147146   257.90939529
 H     17  14  13     3.002885505260   109.75538058   214.98617128
 H     17  14  13     3.002355515261   110.36987029    68.85466971
 Al    13   7   1     4.964054902202   125.87433624   104.97854417
 H     20  13   7     2.981958025843   144.14962372   245.73676615
 H     20  13   7     3.152574651993    45.84105221   330.18519191
 H     20  13   7     3.144907511868    46.40962137   160.04823764
 H     20  13   7     3.182094379318   101.22038370    63.85393716

---------------------
BASIS SET INFORMATION
---------------------
There are 2 groups of distinct atoms

 Group   1 Type Al  : 10s7p1d contracted to 4s3p1d pattern {5311/511/1}
 Group   2 Type H   : 4s contracted to 2s pattern {31}

Atom   0Al   basis set group =>   1
Atom   1Al   basis set group =>   1
Atom   2H    basis set group =>   2
Atom   3H    basis set group =>   2
Atom   4H    basis set group =>   2
Atom   5H    basis set group =>   2
Atom   6H    basis set group =>   2
Atom   7H    basis set group =>   2
Atom   8Al   basis set group =>   1
Atom   9H    basis set group =>   2
Atom  10H    basis set group =>   2
Atom  11H    basis set group =>   2
Atom  12Al   basis set group =>   1
Atom  13H    basis set group =>   2
Atom  14H    basis set group =>   2
Atom  15H    basis set group =>   2
Atom  16Al   basis set group =>   1
Atom  17H    basis set group =>   2
Atom  18H    basis set group =>   2
Atom  19Al   basis set group =>   1
Atom  20H    basis set group =>   2
Atom  21H    basis set group =>   2
Atom  22H    basis set group =>   2
Atom  23H    basis set group =>   2
---------------------------------
AUXILIARY/J BASIS SET INFORMATION
---------------------------------
There are 2 groups of distinct atoms

 Group   1 Type Al  : 14s5p5d2f1g contracted to 8s4p3d1f1g pattern {71111111/2111/311/2/1}
 Group   2 Type H   : 5s2p1d contracted to 3s1p1d pattern {311/2/1}

Atom   0Al   basis set group =>   1
Atom   1Al   basis set group =>   1
Atom   2H    basis set group =>   2
Atom   3H    basis set group =>   2
Atom   4H    basis set group =>   2
Atom   5H    basis set group =>   2
Atom   6H    basis set group =>   2
Atom   7H    basis set group =>   2
Atom   8Al   basis set group =>   1
Atom   9H    basis set group =>   2
Atom  10H    basis set group =>   2
Atom  11H    basis set group =>   2
Atom  12Al   basis set group =>   1
Atom  13H    basis set group =>   2
Atom  14H    basis set group =>   2
Atom  15H    basis set group =>   2
Atom  16Al   basis set group =>   1
Atom  17H    basis set group =>   2
Atom  18H    basis set group =>   2
Atom  19Al   basis set group =>   1
Atom  20H    basis set group =>   2
Atom  21H    basis set group =>   2
Atom  22H    basis set group =>   2
Atom  23H    basis set group =>   2


           ************************************************************
           *        Program running with 24 parallel MPI-processes    *
           *              working on a common directory               *
           ************************************************************
------------------------------------------------------------------------------
                             ORCA STARTUP CALCULATIONS
                           -- RI-GTO INTEGRALS CHOSEN --
------------------------------------------------------------------------------
------------------------------------------------------------------------------
                   ___                                                        
                  /   \      - P O W E R E D   B Y -                         
                 /     \                                                     
                 |  |  |   _    _      __       _____    __    __             
                 |  |  |  | |  | |    /  \     |  _  \  |  |  /  |          
                  \  \/   | |  | |   /    \    | | | |  |  | /  /          
                 / \  \   | |__| |  /  /\  \   | |_| |  |  |/  /          
                |  |  |   |  __  | /  /__\  \  |    /   |      \           
                |  |  |   | |  | | |   __   |  |    \   |  |\   \          
                \     /   | |  | | |  |  |  |  | |\  \  |  | \   \       
                 \___/    |_|  |_| |__|  |__|  |_| \__\ |__|  \__/        
                                                                              
                      - O R C A' S   B I G   F R I E N D -                    
                                      &                                       
                       - I N T E G R A L  F E E D E R -                       
                                                                              
 v1 FN, 2020, v2 2021, v3 2022-2024                                           
------------------------------------------------------------------------------


----------------------
SHARK INTEGRAL PACKAGE
----------------------

Number of atoms                             ...     24
Number of basis functions                   ...    144
Number of shells                            ...     84
Maximum angular momentum                    ...      2
Integral batch strategy                     ... SHARK/LIBINT Hybrid
RI-J (if used) integral strategy            ... SPLIT-RIJ (Revised 2003 algorithm where possible)
Printlevel                                  ...      1
Contraction scheme used                     ... SEGMENTED contraction
Prescreening option                         ... SCHWARTZ
   Thresh                                   ... 3.000e-16
   Tcut                                     ... 3.000e-16
   Tpresel                                  ... 3.000e-16 
Coulomb Range Separation                    ... NOT USED
Exchange Range Separation                   ... NOT USED
Multipole approximations                    ... NOT USED
Finite Nucleus Model                        ... NOT USED
CABS basis                                  ... NOT available
Auxiliary Coulomb fitting basis             ... AVAILABLE
   # of basis functions in Aux-J            ...    504
   # of shells in Aux-J                     ...    192
   Maximum angular momentum in Aux-J        ...      4
Auxiliary J/K fitting basis                 ... NOT available
Auxiliary Correlation fitting basis         ... NOT available
Auxiliary 'external' fitting basis          ... NOT available

Checking pre-screening integrals            ... done (  0.0 sec) Dimension = 84
   => SHARK Basis and OBASIS are compatible. Storing Pre-screening
Shell pair information
Shell pair cut-off parameter TPreSel        ...   3.0e-16
Total number of shell pairs                 ...      3570
Shell pairs after pre-screening             ...      3294
Total number of primitive shell pairs       ...     16482
Primitive shell pairs kept                  ...     10073
          la=0 lb=0:   1647 shell pairs
          la=1 lb=0:   1001 shell pairs
          la=1 lb=1:    164 shell pairs
          la=2 lb=0:    353 shell pairs
          la=2 lb=1:    108 shell pairs
          la=2 lb=2:     21 shell pairs

Checking whether 4 symmetric matrices of dimension 144 fit in memory
:Max Core in MB      =   4096.00
 MB in use           =      7.74
 MB left             =   4088.26
 MB needed           =      0.32
 Data fit in memory  = YES
Calculating RI/J V-Matrix + Cholesky decomp.... done (  0.1 sec)
Calculating Nuclear repulsion               ... done (  0.0 sec) ENN=    600.417578529909 Eh

Diagonalization of the overlap matrix:
Smallest eigenvalue                        ... 3.870e-03
Time for diagonalization                   ...    0.025 sec
Threshold for overlap eigenvalues          ... 1.000e-07
Number of eigenvalues below threshold      ... 0
Time for construction of square roots      ...    0.003 sec
Total time needed                          ...    0.031 sec

-------------------
DFT GRID GENERATION
-------------------

General Integration Accuracy     IntAcc      ... 4.959
Radial Grid Type                 RadialGrid  ... OptM3 with GC (2021)
Angular Grid (max. ang.)         AngularGrid ... 6 (Lebedev-590)
Angular grid pruning method      GridPruning ... 4 (adaptive)
Weight generation scheme         WeightScheme... mBecke (2022)
Basis function cutoff            BFCut       ... 3.0000e-16
Integration weight cutoff        WCut        ... 1.0000e-14
Partially contracted basis set               ... off
Rotationally invariant grid construction     ... off
Angular grids for H and He will be reduced by one unit

Total number of grid points                  ...   251627
Total number of batches                      ...     3942
Average number of points per batch           ...       63
Average number of grid points per atom       ...    10484

--------------------
COSX GRID GENERATION
--------------------

GRIDX 1
-------
General Integration Accuracy     IntAcc      ... 4.020
Radial Grid Type                 RadialGrid  ... OptM3 with GC (2021)
Angular Grid (max. ang.)         AngularGrid ... 2 (Lebedev-110)
Angular grid pruning method      GridPruning ... 4 (adaptive)
Weight generation scheme         WeightScheme... mBecke (2022)
Basis function cutoff            BFCut       ... 3.0000e-16
Integration weight cutoff        WCut        ... 1.0000e-14
Partially contracted basis set               ... on
Rotationally invariant grid construction     ... off
Angular grids for H and He will be reduced by one unit

Total number of grid points                  ...    25209
Total number of batches                      ...      211
Average number of points per batch           ...      119
Average number of grid points per atom       ...     1050
UseSFitting                                  ... on

GRIDX 2
-------
General Integration Accuracy     IntAcc      ... 4.338
Radial Grid Type                 RadialGrid  ... OptM3 with GC (2021)
Angular Grid (max. ang.)         AngularGrid ... 3 (Lebedev-194)
Angular grid pruning method      GridPruning ... 4 (adaptive)
Weight generation scheme         WeightScheme... mBecke (2022)
Basis function cutoff            BFCut       ... 3.0000e-16
Integration weight cutoff        WCut        ... 1.0000e-14
Partially contracted basis set               ... on
Rotationally invariant grid construction     ... off
Angular grids for H and He will be reduced by one unit

Total number of grid points                  ...    57595
Total number of batches                      ...      465
Average number of points per batch           ...      123
Average number of grid points per atom       ...     2400
UseSFitting                                  ... on

GRIDX 3
-------
General Integration Accuracy     IntAcc      ... 4.871
Radial Grid Type                 RadialGrid  ... OptM3 with GC (2021)
Angular Grid (max. ang.)         AngularGrid ... 4 (Lebedev-302)
Angular grid pruning method      GridPruning ... 4 (adaptive)
Weight generation scheme         WeightScheme... mBecke (2022)
Basis function cutoff            BFCut       ... 3.0000e-16
Integration weight cutoff        WCut        ... 1.0000e-14
Partially contracted basis set               ... on
Rotationally invariant grid construction     ... off
Angular grids for H and He will be reduced by one unit

Total number of grid points                  ...   114925
Total number of batches                      ...      909
Average number of points per batch           ...      126
Average number of grid points per atom       ...     4789
UseSFitting                                  ... on
Grids setup in   8.3 sec
Initializing property integral containers    ... done (  0.0 sec)

SHARK setup successfully completed in   8.7 seconds

Maximum memory used throughout the entire STARTUP-calculation: 47.3 MB


           ************************************************************
           *        Program running with 24 parallel MPI-processes    *
           *              working on a common directory               *
           ************************************************************
-------------------------------------------------------------------------------
                                 ORCA GUESS
                   Start orbitals & Density for SCF / CASSCF
-------------------------------------------------------------------------------

------------
SCF SETTINGS
------------
Hamiltonian:
 Density Functional     Method          .... DFT(GTOs)
 Exchange Functional    Exchange        .... PBE
   PBE kappa parameter   XKappa         ....  1.024500
   PBE mue parameter    XMuePBE         ....  0.123457
 Correlation Functional Correlation     .... PBE
   PBE beta parameter  CBetaPBE         ....  0.030000
 LDA part of GGA corr.  LDAOpt          .... PW91-LDA
 Gradients option       PostSCFGGA      .... off
 Hybrid DFT is turned on
   Fraction HF Exchange ScalHFX         ....  0.420000
   Scaling of DF-GGA-X  ScalDFX         ....  0.580000
   Scaling of DF-GGA-C  ScalDFC         ....  1.000000
   Scaling of DF-LDA-C  ScalLDAC        ....  1.000000
   Perturbative correction              ....  0.000000
 RI-approximation to the Coulomb term is turned on
   Number of AuxJ basis functions       .... 504
   RIJ-COSX (HFX calculated with COS-X)).... on


General Settings:
 Integral files         IntName         .... run
 Hartree-Fock type      HFTyp           .... RHF
 Total Charge           Charge          ....    0
 Multiplicity           Mult            ....    1
 Number of Electrons    NEL             ....   96
 Basis Dimension        Dim             ....  144
 Nuclear Repulsion      ENuc            ....    600.4175785299 Eh

Convergence Acceleration:
 AO-DIIS                CNVDIIS         .... on
   Start iteration      DIISMaxIt       ....    12
   Startup error        DIISStart       ....  0.200000
   # of expansion vecs  DIISMaxEq       ....     5
   Bias factor          DIISBfac        ....   1.050
   Max. coefficient     DIISMaxC        ....  10.000
 MO-DIIS                CNVKDIIS        .... off
 Trust-Rad. Augm. Hess. CNVTRAH         .... auto
   Auto Start mean grad. ratio tolernc. ....  1.125000
   Auto Start start iteration           ....    50
   Auto Start num. interpolation iter.  ....    10
   Max. Number of Micro iterations      ....    24
   Max. Number of Macro iterations      .... Maxiter - #DIIS iter
   Number of Davidson start vectors     ....     2
   Converg. threshold    (grad. norm)   ....   1.000e-09
   Grad. Scal. Fac. for Micro threshold ....   0.100
   Minimum threshold for Micro iter.    ....   1.000e-02
   NR start threshold (gradient norm)   ....   1.000e-04
   Initial trust radius                 ....   0.400
   Minimum AH scaling param. (alpha)    ....   1.000
   Maximum AH scaling param. (alpha)    .... 1000.000
   Quad. conv. algorithm                .... NR
   White noise on init. David. guess    .... on
   Maximum white noise                  ....   0.010
   Pseudo random numbers                .... off
   Inactive MOs                         .... canonical
   Orbital update algorithm             .... Taylor
   Preconditioner                       .... Diag
   Full preconditioner red. dimension   ....   250
 SOSCF                 CNVSOSCF           .... on
   Start iteration     SOSCFMaxIt         ....   150
   Startup grad/error  SOSCFStart         ....  0.003300
   Hessian update      SOSCFHessUp        .... L-BFGS
   Autom. constraints  SOSCFAutoConstrain .... off
 Level Shifting         CNVShift        .... on
   Level shift para.    LevelShift      ....    0.2500
   Turn off err/grad.   ShiftErr        ....    0.0010
 Zerner damping         CNVZerner       .... off
 Static damping         CNVDamp         .... on
   Fraction old density DampFac         ....    0.7000
   Max. Damping (<1)    DampMax         ....    0.9800
   Min. Damping (>=0)   DampMin         ....    0.0000
   Turn off err/grad.   DampErr         ....    0.1000

SCF Procedure:
 Maximum # iterations   MaxIter         ....   125
 SCF integral mode      SCFMode         .... Direct
   Integral package                     .... SHARK and LIBINT hybrid scheme
 Reset frequency        DirectResetFreq ....    20
 Integral Threshold     Thresh          ....  3.000e-16 Eh
 Primitive CutOff       TCut            ....  3.000e-16 Eh

Convergence Tolerance:
 Convergence Check Mode ConvCheckMode   .... All-Criteria
 Convergence forced     ConvForced      .... 0
 Energy Change          TolE            ....  1.000e-14 Eh
 Max Density Change     TolMaxP         ....  1.000e-14
 RMS Density Change     TolRMSP         ....  1.000e-14
 Orbital Gradient       TolG            ....  1.000e-09
 Orbital Rotation angle TolX            ....  1.000e-09
 DIIS Error             TolErr          ....  1.000e-14

--------------------------------
INITIAL GUESS: MINIMAL BASIS EHT
--------------------------------
The minimal basis has 72 functions
EHT matrix was diagonalized
Basis set overlap was calculated now projecting the orbitals
Using GuessMode=FMatrix for the initial guess
C*T matrix was formed
Effective Fockian was calculated
Effective Fockian was diagonalized
Initial density was built
                      ------------------
                      INITIAL GUESS DONE
                      ------------------
             **** ENERGY FILE WAS UPDATED (run.en.tmp) ****
Finished Guess after   0.7 sec
Maximum memory used throughout the entire GUESS-calculation: 10.1 MB


           ************************************************************
           *        Program running with 24 parallel MPI-processes    *
           *              working on a common directory               *
           ************************************************************

-------------------------------------------------------------------------------------------
                                      ORCA LEAN-SCF
                              memory conserving SCF solver
-------------------------------------------------------------------------------------------

----------------------------------------D-I-I-S--------------------------------------------
Iteration    Energy (Eh)           Delta-E    RMSDP     MaxDP     DIISErr   Damp  Time(sec)
-------------------------------------------------------------------------------------------
               ***  Starting incremental Fock matrix formation  ***
    1    -1461.2304256414199699     0.00e+00  3.45e-02  9.94e-02  3.51e-01  0.700   2.1
    2    -1461.9045168705811193    -6.74e-01  2.88e-02  7.82e-02  2.51e-01  0.700   1.2
                               ***Turning on AO-DIIS***
    3    -1462.3737360213599459    -4.69e-01  2.04e-02  5.11e-02  1.75e-01  0.700   1.2
    4    -1462.6926934449543296    -3.19e-01  1.46e-02  3.53e-02  1.22e-01  0.700   1.2
    5    -1462.9123595895375729    -2.20e-01  1.04e-02  2.47e-02  8.50e-02  0.700   1.2
    6    -1463.0647572562647838    -1.52e-01  2.45e-02  5.82e-02  5.94e-02  0.000   1.2
                              *** Initializing SOSCF ***
---------------------------------------S-O-S-C-F--------------------------------------
Iteration    Energy (Eh)           Delta-E    RMSDP     MaxDP     MaxGrad    Time(sec)
--------------------------------------------------------------------------------------
    7    -1463.4164280245586269    -3.52e-01  5.36e-04  2.11e-03  8.90e-04     1.2
               *** Restarting incremental Fock matrix formation ***
    8    -1463.4165167089799979    -8.87e-05  3.86e-04  2.09e-03  2.54e-04     2.0
    9    -1463.4165230262037767    -6.32e-06  9.67e-05  4.79e-04  4.40e-05     1.8
   10    -1463.4165233041080683    -2.78e-07  7.28e-06  6.96e-05  4.39e-06     1.8
   11    -1463.4165233058524791    -1.74e-09  2.04e-06  1.85e-05  2.53e-06     1.7
   12    -1463.4165233062076368    -3.55e-10  4.83e-07  1.41e-06  3.46e-07     1.6
   13    -1463.4165233061648905     4.27e-11  1.28e-07  4.33e-07  1.06e-07     1.5
   14    -1463.4165233061667095    -1.82e-12  1.88e-08  1.23e-07  1.04e-08     1.5
   15    -1463.4165233061712570    -4.55e-12  4.04e-09  2.47e-08  3.17e-09     1.4
   16    -1463.4165233061689833     2.27e-12  3.46e-10  1.45e-09  1.08e-09     1.2
                    ***Orbital Rotation convergence achieved***
   17    -1463.4165233061685285     4.55e-13  0.00e+00  0.00e+00  9.90e-10     1.0
                           ***RMSP convergence achieved***
                           ***MAXP convergence achieved***
                       ***Gradient convergence achieved***
   18    -1463.4165233061685285     0.00e+00  0.00e+00  0.00e+00  9.90e-10     0.4
                          ***Energy convergence achieved***

               *****************************************************
               *                     SUCCESS                       *
               *           SCF CONVERGED AFTER  18 CYCLES          *
               *****************************************************

Recomputing exchange energy using gridx3       ... done (    2.722 sec)
Old exchange energy                            :    -48.350354484 Eh
New exchange energy                            :    -48.350366029 Eh
Exchange energy change after final integration :     -0.000011545 Eh
Total energy after final integration           :  -1463.416534851 Eh
             **** ENERGY FILE WAS UPDATED (run.en.tmp) ****

----------------
TOTAL SCF ENERGY
----------------

Total Energy       :      -1463.41653485112829 Eh          -39821.58840 eV

Components:
Nuclear Repulsion  :        600.41757852990929 Eh           16338.19293 eV
Electronic Energy  :      -2063.83410183607793 Eh          -56159.78102 eV
One Electron Energy:      -3228.91737902798877 Eh          -87863.30877 eV
Two Electron Energy:       1165.08327719191084 Eh           31703.52775 eV

Virial components:
Potential Energy   :      -2923.41605916922845 Eh          -79550.19522 eV
Kinetic Energy     :       1459.99952431810016 Eh           39728.60682 eV
Virial Ratio       :          2.00234041893584

DFT components:
N(Alpha)           :       48.000023171725 electrons
N(Beta)            :       48.000023171725 electrons
N(Total)           :       96.000046343450 electrons
E(X)               :      -64.312107755245 Eh       
E(C)               :       -4.461021205306 Eh       
E(XC)              :      -68.773128960551 Eh       

---------------
SCF CONVERGENCE
---------------

  Last Energy change         ...    0.0000e+00  Tolerance :   1.0000e-14
  Last MAX-Density change    ...    0.0000e+00  Tolerance :   1.0000e-14
  Last RMS-Density change    ...    0.0000e+00  Tolerance :   1.0000e-14
  Last DIIS Error            ...    8.9035e-04  Tolerance :   1.0000e-14
  Last Orbital Gradient      ...    9.8956e-10  Tolerance :   1.0000e-09
  Last Orbital Rotation      ...    0.0000e+00  Tolerance :   1.0000e-09


----------------
ORBITAL ENERGIES
----------------

  NO   OCC          E(Eh)            E(eV) 
   0   2.0000     -56.663305     -1541.8869 
   1   2.0000     -56.649131     -1541.5012 
   2   2.0000     -56.627623     -1540.9160 
   3   2.0000     -56.619686     -1540.7000 
   4   2.0000     -56.615894     -1540.5968 
   5   2.0000     -56.615870     -1540.5961 
   6   2.0000      -4.394434      -119.5786 
   7   2.0000      -4.390498      -119.4715 
   8   2.0000      -4.368316      -118.8679 
   9   2.0000      -4.360696      -118.6606 
  10   2.0000      -4.356446      -118.5449 
  11   2.0000      -4.356410      -118.5439 
  12   2.0000      -2.884856       -78.5009 
  13   2.0000      -2.884801       -78.4994 
  14   2.0000      -2.880794       -78.3904 
  15   2.0000      -2.880409       -78.3799 
  16   2.0000      -2.880194       -78.3741 
  17   2.0000      -2.876115       -78.2631 
  18   2.0000      -2.859697       -77.8163 
  19   2.0000      -2.856966       -77.7420 
  20   2.0000      -2.853011       -77.6344 
  21   2.0000      -2.851599       -77.5959 
  22   2.0000      -2.849747       -77.5456 
  23   2.0000      -2.847267       -77.4781 
  24   2.0000      -2.847223       -77.4769 
  25   2.0000      -2.845589       -77.4324 
  26   2.0000      -2.845564       -77.4317 
  27   2.0000      -2.845528       -77.4308 
  28   2.0000      -2.841365       -77.3175 
  29   2.0000      -2.841351       -77.3171 
  30   2.0000      -0.635669       -17.2974 
  31   2.0000      -0.582475       -15.8500 
  32   2.0000      -0.529698       -14.4138 
  33   2.0000      -0.520204       -14.1555 
  34   2.0000      -0.503639       -13.7047 
  35   2.0000      -0.452299       -12.3077 
  36   2.0000      -0.438861       -11.9420 
  37   2.0000      -0.415724       -11.3124 
  38   2.0000      -0.405087       -11.0230 
  39   2.0000      -0.398999       -10.8573 
  40   2.0000      -0.396547       -10.7906 
  41   2.0000      -0.385657       -10.4943 
  42   2.0000      -0.371613       -10.1121 
  43   2.0000      -0.367028        -9.9873 
  44   2.0000      -0.364458        -9.9174 
  45   2.0000      -0.354992        -9.6598 
  46   2.0000      -0.346485        -9.4283 
  47   2.0000      -0.334299        -9.0967 
  48   0.0000      -0.041452        -1.1280 
  49   0.0000      -0.017793        -0.4842 
  50   0.0000      -0.011751        -0.3198 
  51   0.0000      -0.007396        -0.2012 
  52   0.0000       0.009139         0.2487 
  53   0.0000       0.017312         0.4711 
  54   0.0000       0.022647         0.6163 
  55   0.0000       0.038209         1.0397 
  56   0.0000       0.041145         1.1196 
  57   0.0000       0.045526         1.2388 
  58   0.0000       0.048800         1.3279 
*Only the first 10 virtual orbitals were printed.
-------
TIMINGS
-------

Total SCF time: 0 days 0 hours 0 min 29 sec 

Total time                  ....      29.307 sec
Sum of individual times     ....      28.696 sec  ( 97.9%)

SCF preparation             ....       0.771 sec  (  2.6%)
Fock matrix formation       ....      27.256 sec  ( 93.0%)
  Startup                   ....       0.013 sec  (  0.0% of F)
  Split-RI-J                ....       1.259 sec  (  4.6% of F)
  Chain of spheres X        ....      20.132 sec  ( 73.9% of F)
  XC integration            ....       5.772 sec  ( 21.2% of F)
    XC Preparation          ....       0.000 sec  (  0.0% of XC)
    Basis function eval.    ....       1.717 sec  ( 29.7% of XC)
    Density eval.           ....       1.108 sec  ( 19.2% of XC)
    XC-Functional eval.     ....       0.249 sec  (  4.3% of XC)
    XC-Potential eval.      ....       1.001 sec  ( 17.3% of XC)
Diagonalization             ....       0.000 sec  (  0.0%)
Density matrix formation    ....       0.092 sec  (  0.3%)
Total Energy calculation    ....       0.054 sec  (  0.2%)
Population analysis         ....       0.000 sec  (  0.0%)
Orbital Transformation      ....       0.045 sec  (  0.2%)
Orbital Orthonormalization  ....       0.000 sec  (  0.0%)
DIIS solution               ....       0.223 sec  (  0.8%)
SOSCF solution              ....       0.255 sec  (  0.9%)
Finished LeanSCF after  29.3 sec

Maximum memory used throughout the entire LEANSCF-calculation: 15.8 MB


           ************************************************************
           *        Program running with 24 parallel MPI-processes    *
           *              working on a common directory               *
           ************************************************************

------------------------------------------------------------------------------
                         ORCA PROPERTY INTEGRAL CALCULATIONS
------------------------------------------------------------------------------

GBWName                                   ... run.gbw
Number of atoms                           ...     24
Number of basis functions                 ...    144
Max core memory                           ...   4096 MB

Dipole integrals                          ... YES
Quadrupole integrals                      ...  NO
Linear momentum integrals                 ...  NO
Angular momentum integrals                ...  NO
Higher moments length integrals           ...  NO
Higher moments velocity integrals         ...  NO
Kinetic energy integrals                  ...  NO
GIAO right hand sides                     ...  NO
GIAO dipole derivative integrals          ...  NO
SOC integrals                             ...  NO
EPR diamagnetic integrals (GIAO)          ...  NO
EPR gauge integrals                       ...  NO
Field gradient integrals                  ...  NO (   0 nuclei)
Spin-dipole/Fermi contact integrals       ...  NO (   0 nuclei)
Contact density integrals                 ...  NO (   0 nuclei)
Nucleus-orbit integrals                   ...  NO (   0 nuclei)
Geometric perturbations                   ...  NO (  24 nuclei)

Choice of electric origin   ... Center of mass
Position of electric origin ... (  0.4245, -2.8560,  6.8204) 
Choice of magnetic origin   ... GIAO
Position of magnetic origin ... (  0.0000,  0.0000,  0.0000) 

Calculating integrals                     ... Electric Dipole (Length)     done (  0.0 sec)

Property integrals calculated in   0.0 sec

Maximum memory used throughout the entire PROPINT-calculation: 10.4 MB


-------------------------------------------------------------------------------
                          DFT DISPERSION CORRECTION                            
                                                                               
                              DFTD3 V3.1  Rev 1                                
                          USING Becke-Johnson damping                          
-------------------------------------------------------------------------------
The PBEh-3c composite method is recognized
Using three-body term ABC
Active option DFTDOPT                   ...         4   

molecular C6(AA) [au] = 11108.603570 


            DFT-D V3
 parameters
 s6 scaling factor         :     1.0000 
 a1 scaling factor         :     0.4860 
 s8 scaling factor         :     0.0000 
 a2 scaling factor         :     4.5000 
 Damping factor alpha9(ATM):    16.0000 
 ad hoc parameters k1-k3   :    16.0000     1.3333    -4.0000 

 Edisp/kcal,au: -7.697213538327  -0.012266289252 
 E6   /kcal   :  -7.750426399 
 E8   /kcal   :  -0.000000000 
 E6(ABC)      :   0.053212861 
 % E8         :   0.000000000 
 % E6(ABC)    :  -0.691326291 

-------------------------   ----------------
Dispersion correction           -0.012266289
-------------------------   ----------------

------------------   -----------------
gCP correction             0.045083559
------------------   -----------------

-------------------------   --------------------
FINAL SINGLE POINT ENERGY     -1463.383717581380
-------------------------   --------------------



           ************************************************************
           *        Program running with 24 parallel MPI-processes    *
           *              working on a common directory               *
           ************************************************************
------------------------------------------------------------------------------
                         ORCA SCF GRADIENT CALCULATION
------------------------------------------------------------------------------

Nuc. rep. gradient        (SHARK) ... done (  0.0 sec)
HCore & Overlap gradient  (SHARK) ... done (  0.1 sec)
Split-RIJ-J gradient      (SHARK) ... done (  0.4 sec)
done ( 12.6 sec)
XC gradient                       ... done (  3.5 sec)
Dispersion correction             ... done (  0.1 sec)

-------------------
DISPERSION GRADIENT
-------------------

   1   Al  :   -0.000042762    0.000285759   -0.000013501
   2   Al  :   -0.000015428    0.000082842   -0.000221522
   3   H   :    0.000055969   -0.000017980   -0.000090663
   4   H   :   -0.000081791    0.000015044   -0.000100781
   5   H   :    0.000021268    0.000096340   -0.000045903
   6   H   :   -0.000059002    0.000082931    0.000007268
   7   H   :   -0.000056983    0.000074816    0.000011126
   8   H   :    0.000011752    0.000036791   -0.000082653
   9   Al  :    0.000091723   -0.000192696   -0.000186917
  10   H   :   -0.000011552   -0.000093936   -0.000045003
  11   H   :   -0.000009829   -0.000083260   -0.000055810
  12   H   :    0.000021266    0.000112715    0.000028526
  13   Al  :    0.000065356   -0.000026875    0.000071848
  14   H   :   -0.000069949   -0.000044993    0.000029148
  15   H   :    0.000104021    0.000016116    0.000030850
  16   H   :    0.000074820   -0.000075770   -0.000043654
  17   Al  :   -0.000180370   -0.000082058    0.000151534
  18   H   :   -0.000073334   -0.000053538    0.000015237
  19   H   :   -0.000097398    0.000021115    0.000060433
  20   Al  :    0.000103217   -0.000067281    0.000210158
  21   H   :    0.000063460   -0.000010930    0.000069537
  22   H   :    0.000039499    0.000024681    0.000080158
  23   H   :    0.000061172   -0.000060342    0.000047434
  24   H   :   -0.000015123   -0.000039492    0.000073152

Difference to translation invariance:
           :   -0.0000000000   -0.0000000000    0.0000000000

Difference to rotation invariance:
           :    0.0000000000   -0.0000000000   -0.0000000000

Norm of the Dispersion gradient    ...    0.0007381728
RMS gradient                       ...    0.0000869945
MAX gradient                       ...    0.0002857588
gCP correction                   ... done

------------------
CARTESIAN GRADIENT
------------------

   1   Al  :    0.000220831   -0.001707650   -0.000540620
   2   Al  :   -0.001885987   -0.001102905    0.001466636
   3   H   :    0.004200077    0.000763658   -0.000507963
   4   H   :   -0.004063515   -0.001488781    0.000593776
   5   H   :    0.003840830    0.001977690   -0.000122185
   6   H   :   -0.003962195    0.001951679   -0.001189688
   7   H   :   -0.004125933   -0.000569710    0.000271917
   8   H   :    0.001565136    0.001882756   -0.003624424
   9   Al  :   -0.000670128    0.001523922    0.000594795
  10   H   :   -0.003824246   -0.002035315   -0.000085240
  11   H   :   -0.002691049   -0.002310084   -0.002894490
  12   H   :    0.003073668    0.001927304    0.002724822
  13   Al  :    0.002154508    0.000143395    0.001760261
  14   H   :   -0.000625142   -0.000811591   -0.003230901
  15   H   :    0.004197685    0.001862370   -0.001384383
  16   H   :    0.004078924   -0.001426214    0.001397155
  17   Al  :    0.002365559    0.001333065    0.001288410
  18   H   :   -0.002244933   -0.004048182   -0.000420060
  19   H   :   -0.001961201    0.003719382    0.001504400
  20   Al  :   -0.001470617    0.000043753   -0.001218054
  21   H   :    0.003443674   -0.000082212    0.003159556
  22   H   :   -0.001034925    0.004226776    0.000090488
  23   H   :    0.001440873   -0.002986686   -0.002878126
  24   H   :   -0.002021894   -0.002786419    0.003243919

Difference to translation invariance:
           :    0.0000000000    0.0000000000    0.0000000001

Difference to rotation invariance:
           :   -0.0001327014   -0.0000656611   -0.0000447820

[...]
 48:   1079.11   0.000114    0.57  0.000033  (-0.003439  0.004581 -0.000124)
 49:   1110.56   0.023244  117.46  0.006531  (-0.073844 -0.028278  0.016699)
 50:   1127.96   0.006979   35.27  0.001931  (-0.023381  0.034532  0.013845)
 51:   1137.92   0.061690  311.75  0.016918  ( 0.122733  0.040702  0.014064)
 52:   1159.23   0.026314  132.98  0.007084  ( 0.078000 -0.004497  0.031297)
 53:   1194.19   0.110714  559.50  0.028932  (-0.003880  0.064926 -0.157166)
 54:   1685.96   0.026036  131.58  0.004819  ( 0.014657 -0.065536 -0.017589)
 55:   1738.99   0.083880  423.89  0.015052  (-0.016128 -0.036163  0.116122)
 56:   1777.11   0.349307  1765.26  0.061339  ( 0.069032  0.080011 -0.223991)
 57:   1789.94   0.034833  176.03  0.006073  (-0.008674 -0.049513  0.059550)
 58:   1843.85   0.135414  684.33  0.022918  (-0.149175 -0.025310 -0.004931)
 59:   1880.56   0.396290  2002.69  0.065761  (-0.060119  0.233533  0.087230)
 60:   1919.46   0.109195  551.82  0.017753  (-0.024755  0.045630 -0.122710)
 61:   1955.23   0.077827  393.31  0.012422  ( 0.099535  0.032647 -0.038060)
 62:   2000.63   0.021130  106.78  0.003296  ( 0.054011 -0.001403  0.019410)
 63:   2006.20   0.000555    2.80  0.000086  (-0.001285  0.008449  0.003637)
 64:   2006.81   0.030829  155.80  0.004794  ( 0.014648 -0.026536  0.062252)
 65:   2009.82   0.004105   20.74  0.000637  (-0.005554 -0.002921 -0.024453)
 66:   2014.81   0.000081    0.41  0.000013  ( 0.003397  0.000975  0.000213)
 67:   2017.20   0.055219  279.06  0.008543  ( 0.085962  0.007089  0.033210)
 68:   2022.57   0.034245  173.06  0.005284  ( 0.065364  0.024904  0.019774)
 69:   2025.38   0.039222  198.21  0.006043  (-0.019268  0.070932  0.025312)
 70:   2026.32   0.018415   93.06  0.002836  ( 0.028031  0.031024 -0.032981)
 71:   2061.11   0.017427   88.07  0.002638  ( 0.029957 -0.006626  0.041196)

* The epsilon (eps) is given for a Dirac delta lineshape.
** The dipole moment derivative (T) already includes vibrational overlap.

--------------
RAMAN SPECTRUM  
--------------

 Mode    freq (cm**-1)   Activity   Depolarization
-------------------------------------------------------------------
   6:        21.11      1.193330      0.747440
   7:        41.39      0.397697      0.749777
   8:        50.81      1.333048      0.749428
   9:        82.93      0.261048      0.562623
  10:       105.37      2.228950      0.585369
  11:       133.52      0.649582      0.736344
  12:       139.31      1.561600      0.748533
  13:       159.67      0.048184      0.584664
  14:       179.44      4.975802      0.186201
  15:       207.59      1.951318      0.604320
  16:       231.35      3.419691      0.696084
  17:       247.01      2.597768      0.749252
  18:       273.54      5.535091      0.338170
  19:       301.10      3.645759      0.737140
  20:       331.93      8.971463      0.235597
  21:       370.71      2.997110      0.699977
  22:       373.69      0.653526      0.731413
  23:       395.74      3.157500      0.541633
  24:       407.08      8.318715      0.615266
  25:       409.19      6.854724      0.715718
  26:       426.09     12.220340      0.749945
  27:       463.80      2.222905      0.396790
  28:       487.52      1.601222      0.745417
  29:       521.24      5.005937      0.382817
  30:       538.48      4.395339      0.744344
  31:       574.67      7.829810      0.741484
  32:       595.34      5.004394      0.741574
  33:       616.85      2.108198      0.749997
  34:       689.56      2.828132      0.741837
  35:       700.82      0.390573      0.738931
  36:       717.62     13.512918      0.703502
  37:       724.45     12.941303      0.743136
  38:       729.57      6.308291      0.742834
  39:       745.63      7.969819      0.663503
  40:       770.31      8.267630      0.747623
  41:       774.14      3.561668      0.672106
  42:       788.82      0.913980      0.747531
  43:       828.91      5.094912      0.606607
  44:       875.14      1.617477      0.449981
  45:       889.41      2.213552      0.673150
  46:       972.11      8.058893      0.245994
  47:      1005.38     10.125958      0.688699
  48:      1079.11     11.962768      0.746961
  49:      1110.56     88.518537      0.007124
  50:      1127.96     13.183231      0.743090
  51:      1137.92     46.655389      0.068699
  52:      1159.23      6.628123      0.737978
  53:      1194.19     48.786760      0.016737
  54:      1685.96      4.790918      0.745567
  55:      1738.99     10.531694      0.401481
  56:      1777.11     52.709583      0.113997
  57:      1789.94     13.369628      0.465429
  58:      1843.85     56.489557      0.032646
  59:      1880.56      0.158062      0.689761
  60:      1919.46     22.502143      0.720767
  61:      1955.23     45.697633      0.181499
  62:      2000.63    450.968128      0.026631
  63:      2006.20     21.304330      0.749999
  64:      2006.81     12.604520      0.521323
  65:      2009.82     28.127828      0.747900
  66:      2014.81     69.279015      0.748812
  67:      2017.20     19.729172      0.235258
  68:      2022.57    224.594162      0.021134
  69:      2025.38     71.695590      0.379713
  70:      2026.32     65.666006      0.435331
  71:      2061.11    199.277273      0.177267

The first frequency considered to be a vibration is 6
The total number of vibrations considered is 66


--------------------------
THERMOCHEMISTRY AT 298.15K
--------------------------

Temperature         ...   298.15 K
Pressure            ...     1.00 atm
Total Mass          ...   180.04 AMU
Quasi RRHO          ...     True
Cut-Off Frequency   ...     1.00 cm^-1

Throughout the following assumptions are being made:
  (1) The electronic state is orbitally nondegenerate
  (2) There are no thermally accessible electronically excited states
  (3) Hindered rotations indicated by low frequency modes are not
      treated as such but are treated as vibrations and this may
      cause some error
  (4) All equations used are the standard statistical mechanics
      equations for an ideal gas
  (5) All vibrations are strictly harmonic

freq.      21.11  E(vib)   ...       0.56 
freq.      41.39  E(vib)   ...       0.54 
freq.      50.81  E(vib)   ...       0.52 
freq.      82.93  E(vib)   ...       0.48 
freq.     105.37  E(vib)   ...       0.45 
freq.     133.52  E(vib)   ...       0.42 
freq.     139.31  E(vib)   ...       0.42 
freq.     159.67  E(vib)   ...       0.39 
freq.     179.44  E(vib)   ...       0.37 
freq.     207.59  E(vib)   ...       0.34 
freq.     231.35  E(vib)   ...       0.32 
freq.     247.01  E(vib)   ...       0.31 
freq.     273.54  E(vib)   ...       0.29 
freq.     301.10  E(vib)   ...       0.26 
freq.     331.93  E(vib)   ...       0.24 
freq.     370.71  E(vib)   ...       0.21 
freq.     373.69  E(vib)   ...       0.21 
freq.     395.74  E(vib)   ...       0.20 
freq.     407.08  E(vib)   ...       0.19 
freq.     409.19  E(vib)   ...       0.19 
freq.     426.09  E(vib)   ...       0.18 
freq.     463.80  E(vib)   ...       0.16 
freq.     487.52  E(vib)   ...       0.15 
freq.     521.24  E(vib)   ...       0.13 
freq.     538.48  E(vib)   ...       0.12 
freq.     574.67  E(vib)   ...       0.11 
freq.     595.34  E(vib)   ...       0.10 
freq.     616.85  E(vib)   ...       0.09 
freq.     689.56  E(vib)   ...       0.07 
freq.     700.82  E(vib)   ...       0.07 
freq.     717.62  E(vib)   ...       0.07 
freq.     724.45  E(vib)   ...       0.06 
freq.     729.57  E(vib)   ...       0.06 
freq.     745.63  E(vib)   ...       0.06 
freq.     770.31  E(vib)   ...       0.05 
freq.     774.14  E(vib)   ...       0.05 
freq.     788.82  E(vib)   ...       0.05 
freq.     828.91  E(vib)   ...       0.04 
freq.     875.14  E(vib)   ...       0.04 
freq.     889.41  E(vib)   ...       0.04 
freq.     972.11  E(vib)   ...       0.03 
freq.    1005.38  E(vib)   ...       0.02 
freq.    1079.11  E(vib)   ...       0.02 
freq.    1110.56  E(vib)   ...       0.02 
freq.    1127.96  E(vib)   ...       0.01 
freq.    1137.92  E(vib)   ...       0.01 
freq.    1159.23  E(vib)   ...       0.01 
freq.    1194.19  E(vib)   ...       0.01 
freq.    1685.96  E(vib)   ...       0.00 
freq.    1738.99  E(vib)   ...       0.00 
freq.    1777.11  E(vib)   ...       0.00 
freq.    1789.94  E(vib)   ...       0.00 
freq.    1843.85  E(vib)   ...       0.00 
freq.    1880.56  E(vib)   ...       0.00 
freq.    1919.46  E(vib)   ...       0.00 
freq.    1955.23  E(vib)   ...       0.00 
freq.    2000.63  E(vib)   ...       0.00 
freq.    2006.20  E(vib)   ...       0.00 
freq.    2006.81  E(vib)   ...       0.00 
freq.    2009.82  E(vib)   ...       0.00 
freq.    2014.81  E(vib)   ...       0.00 
freq.    2017.20  E(vib)   ...       0.00 
freq.    2022.57  E(vib)   ...       0.00 
freq.    2025.38  E(vib)   ...       0.00 
freq.    2026.32  E(vib)   ...       0.00 
freq.    2061.11  E(vib)   ...       0.00 

------------
INNER ENERGY
------------

The inner energy is: U= E(el) + E(ZPE) + E(vib) + E(rot) + E(trans)
    E(el)   - is the total energy from the electronic structure calculation
              = E(kin-el) + E(nuc-el) + E(el-el) + E(nuc-nuc)
    E(ZPE)  - the the zero temperature vibrational energy from the frequency calculation
    E(vib)  - the the finite temperature correction to E(ZPE) due to population
              of excited vibrational states
    E(rot)  - is the rotational thermal energy
    E(trans)- is the translational thermal energy

Summary of contributions to the inner energy U:
Electronic energy                ...  -1463.38599834 Eh
Zero point energy                ...      0.14008293 Eh      87.90 kcal/mol
Thermal vibrational correction   ...      0.01399577 Eh       8.78 kcal/mol
Thermal rotational correction    ...      0.00141627 Eh       0.89 kcal/mol
Thermal translational correction ...      0.00141627 Eh       0.89 kcal/mol
-----------------------------------------------------------------------
Total thermal energy                  -1463.22908710 Eh


Summary of corrections to the electronic energy:
(perhaps to be used in another calculation)
Total thermal correction                  0.01682832 Eh      10.56 kcal/mol
Non-thermal (ZPE) correction              0.14008293 Eh      87.90 kcal/mol
-----------------------------------------------------------------------
Total correction                          0.15691124 Eh      98.46 kcal/mol


--------
ENTHALPY
--------

The enthalpy is H = U + kB*T
                kB is Boltzmann's constant
Total thermal energy              ...  -1463.22908710 Eh 
Thermal Enthalpy correction       ...      0.00094421 Eh       0.59 kcal/mol
-----------------------------------------------------------------------
Total Enthalpy                    ...  -1463.22814289 Eh


Note: Only C1 symmetry has been detected, increase convergence thresholds 
      if your molecule has a higher symmetry. Symmetry factor of 1.0 is   
      used for the rotational entropy correction. 
 

Note: Rotational entropy computed according to Herzberg 
Infrared and Raman Spectra, Chapter V,1, Van Nostrand Reinhold, 1945 
Point Group:  C1, Symmetry Number:   1  
Rotational constants in cm-1:     0.032385     0.014216     0.012284 

Vibrational entropy computed according to the QRRHO of S. Grimme
Chem.Eur.J. 2012 18 9955 using a reference frequency of 100.0 cm-1


-------
ENTROPY
-------

The entropy contributions are T*S = T*(S(el)+S(vib)+S(rot)+S(trans))
     S(el)   - electronic entropy
     S(vib)  - vibrational entropy
     S(rot)  - rotational entropy
     S(trans)- translational entropy
The entropies will be listed as multiplied by the temperature to get
units of energy

Electronic entropy                ...      0.00000000 Eh      0.00 kcal/mol
Vibrational entropy               ...      0.02464759 Eh     15.47 kcal/mol
Rotational entropy                ...      0.01521502 Eh      9.55 kcal/mol
Translational entropy             ...      0.01970399 Eh     12.36 kcal/mol
-----------------------------------------------------------------------
Final entropy term                ...      0.05956659 Eh     37.38 kcal/mol

In case the symmetry of your molecule has not been determined correctly
or in case you have a reason to use a different symmetry number we print 
out the resulting rotational entropy values for sn=1,12:

 non-linear molecules -----------------------------------
|  sn= 1 | S(rot)=       0.01521502 Eh      9.55 kcal/mol|
|  sn= 2 | S(rot)=       0.01456056 Eh      9.14 kcal/mol|
|  sn= 3 | S(rot)=       0.01417773 Eh      8.90 kcal/mol|
|  sn= 4 | S(rot)=       0.01390610 Eh      8.73 kcal/mol|
|  sn= 5 | S(rot)=       0.01369542 Eh      8.59 kcal/mol|
|  sn= 6 | S(rot)=       0.01352327 Eh      8.49 kcal/mol|
|  sn= 7 | S(rot)=       0.01337772 Eh      8.39 kcal/mol|
|  sn= 8 | S(rot)=       0.01325165 Eh      8.32 kcal/mol|
|  sn= 9 | S(rot)=       0.01314044 Eh      8.25 kcal/mol|
|  sn=10 | S(rot)=       0.01304096 Eh      8.18 kcal/mol|
|  sn=11 | S(rot)=       0.01295097 Eh      8.13 kcal/mol|
|  sn=12 | S(rot)=       0.01286881 Eh      8.08 kcal/mol|
 linear molecules ---------------------------------------
|  Dinfh | S(rot)=       0.00947967 Eh      5.95 kcal/mol|
|  Cinfv | S(rot)=       0.01013412 Eh      6.36 kcal/mol|
 --------------------------------------------------------


-------------------
GIBBS FREE ENERGY
-------------------

The Gibbs free energy is G = H - T*S

Total enthalpy                    ...  -1463.22814289 Eh 
Total entropy correction          ...     -0.05956659 Eh    -37.38 kcal/mol
-----------------------------------------------------------------------
Final Gibbs free energy         ...  -1463.28770949 Eh

For completeness - the Gibbs free energy minus the electronic energy
G-E(el)                           ...      0.09828886 Eh     61.68 kcal/mol


Maximum memory used throughout the entire PROP-calculation: 59.2 MB

--------------------------------
SUGGESTED CITATIONS FOR THIS RUN
--------------------------------

Below you find a list of papers that are relevant to this ORCA run
We neither can nor want to force you to cite these papers, but we appreciate if you do
You receive ORCA, which is the product of decades of hard work by many enthusiastic individuals, for free
The only thing we kindly ask in return is that you cite our papers,
We deeply appreciate it, if you show your appreciation for ORCA by not just citing the generic ORCA reference.

Please note that relegating all ORCA citations to the supporting information does *not* help us.
SI sections are not indexed - citations you put there will not count into any citation statistics
But we need these citations in order to attract the funding resources that allow us to do what we are doing

Therefore, if you are a happy ORCA user, please consider citing a few of the papers listed below in the main body of your paper

In addition to the list printed below, the program has created the file run.bibtex that contains the list in bibtex format
You can import this file easily into all common literature databanks and citation aid programs


List of essential papers. We consider these as the minimum necessary citations

  1. Neese, F.
     Software update: the ORCA program system, version 6.0
     WIRES Comput. Molec. Sci. 2025 15(1), e70019
     doi.org/10.1002/wcms.7019

List of papers to cite with high priority. The work reported in these papers was absolutely
necessary for this run to complete.
Our perspective: the developers of density functionals and basis sets usually get cited in chemistry papers
Good! But without the algorithms to do something with them, the functionals or basis sets would not do anything.
Hence, in our opinion, the algorithm design and method developments papers are equally worthy of getting cited

  1. Neese, F.
     An improvement of the resolution of the identity approximation for the formation of the Coulomb matrix
     J. Comp. Chem. 2003 24(14), 1740-1747
     doi.org/10.1002/jcc.10318
  2. Neese, F.; Wennmohs, F.; Hansen, A.; Becker, U.
     Efficient, approximate and parallel Hartree-Fock and hybrid DFT calculations. A 'chain-of-spheres' algorithm for the Hartree-Fock exchange
     Chem. Phys. 2009 356(1-3), 98-109
     doi.org/10.1016/j.chemphys.2008.10.036
  3. Grimme, S.; Antony, J.; Ehrlich, S.; Krieg, H.
     A consistent and accurate ab initio parametrization of density functional dispersion correction (DFT-D) for the 94 elements H-Pu
     J. Chem. Phys. 2010 132 , 154104
     doi.org/10.1063/1.3382344
  4. Grimme, S.; Ehrlich, S.; Goerigk, L.
     Effect of the damping function in dispersion corrected density functional theory
     J. Comput. Chem. 2011 32(7), 1456-1465
     doi.org/10.1002/jcc.21759
  5. Bykov, D.; Petrenko, T.; Izsak, R.; Kossmann, S.; Becker, U.; Valeev, E.; Neese, F.
     Efficient implementation of the analytic second derivatives of Hartree-Fock and hybrid DFT energies: a detailed analysis of different approximations
     Molec. Phys. 2015 113 , 1961-1977
     doi.org/10.1080/00268976.2015.1025114
  6. Helmich-Paris, B.; de Souza, B.; Neese, F.; Izsák, R.
     An improved chain of spheres for exchange algorithm
     J. Chem. Phys. 2021 155(10), 104109
     doi.org/10.1063/5.0058766
  7. Neese, F.
     The SHARK Integral Generation and Digestion System
     J. Comp. Chem. 2022 44(3), 381
     doi.org/10.1002/jcc.26942
  8. Petra, P.; Frank, N.
     Efficient calculation of analytic Raman intensities
     to be submitted 2025  , 

List of suggested additional citations. These are papers that are important in the 'surrounding' of 
of this run, or papers that preceded the highly important papers. If you like your results we are grateful for a citation.

  1. Izsak, R.; Neese, F.
     An overlap fitted chain of spheres exchange method
     J. Chem. Phys. 2011 135 , 144105
     doi.org/10.1063/1.3646921
  2. Izsak, R.; Hansen, A.; Neese, F.
     The resolution of identity and chain of spheres approximations for the LPNO-CCSD singles Fock term
     Molec. Phys. 2012 110 , 2413-2417
     doi.org/10.1080/00268976.2012.687466
  3. Neese, F.
     The ORCA program system
     WIRES Comput. Molec. Sci. 2012 2(1), 73-78
     doi.org/10.1002/wcms.81
  4. Izsak, R.; Neese, F.; Klopper, W.
     Robust fitting techniques in the chain of spheres approximation to the Fock exchange: The role of the complementary space
     J. Chem. Phys. 2013 139 , 
     doi.org/10.1063/1.4819264
  5. Neese, F.
     Software update: the ORCA program system, version 4.0
     WIRES Comput. Molec. Sci. 2018 8(1), 1-6
     doi.org/10.1002/wcms.1327
  6. Neese, F.; Wennmohs, F.; Becker, U.; Riplinger, C.
     The ORCA quantum chemistry program package
     J. Chem. Phys. 2020 152(22), 224108
     doi.org/10.1063/5.0004608
  7. Neese, F.
     Software update: The ORCA program system—Version 5.0
     WIRES Comput. Molec. Sci. 2022 12(1), e1606
     doi.org/10.1002/wcms.1606

List of optional additional citations

  1. Neese, F.
     Approximate second-order SCF convergence for spin unrestricted wavefunctions
     Chem. Phys. Lett. 2000 325(1-3), 93-98
     doi.org/10.1016/s0009-2614(00)00662-x

Timings for individual modules:

Sum of individual times          ...     3012.877 sec (=  50.215 min)
Startup calculation              ...      497.323 sec (=   8.289 min)  16.5 %
SCF iterations                   ...     1140.216 sec (=  19.004 min)  37.8 %
Property integrals               ...      114.529 sec (=   1.909 min)   3.8 %
SCF Response                     ...       45.933 sec (=   0.766 min)   1.5 %
Property calculations            ...      283.977 sec (=   4.733 min)   9.4 %
SCF Gradient evaluation          ...      928.077 sec (=  15.468 min)  30.8 %
Geometry relaxation              ...        2.821 sec (=   0.047 min)   0.1 %
                             ****ORCA TERMINATED NORMALLY****
TOTAL RUN TIME: 0 days 0 hours 51 minutes 3 seconds 203 msec
