
                                 *****************
                                 * O   R   C   A *
                                 *****************

                                            #,                                       
                                            ###                                      
                                            ####                                     
                                            #####                                    
                                            ######                                   
                                           ########,                                 
                                     ,,################,,,,,                         
                               ,,#################################,,                 
                          ,,##########################################,,             
                       ,#########################################, ''#####,          
                    ,#############################################,,   '####,        
                  ,##################################################,,,,####,       
                ,###########''''           ''''###############################       
              ,#####''   ,,,,##########,,,,          '''####'''          '####       
            ,##' ,,,,###########################,,,                        '##       
           ' ,,###''''                  '''############,,,                           
         ,,##''                                '''############,,,,        ,,,,,,###''
      ,#''                                            '''#######################'''  
     '                                                          ''''####''''         
             ,#######,   #######,   ,#######,      ##                                
            ,#'     '#,  ##    ##  ,#'     '#,    #''#        ,####,    ,#,          
            ##       ##  ##   ,#'  ##            #'  '#       #'       ,# #          
            ##       ##  #######   ##           ,######,      #####,      #          
            '#,     ,#'  ##    ##  '#,     ,#' ,#      #,     #,   #      #          
             '#######'   ##     ##  '#######'  #'      '#     '####' #    #          



                #########################################################
                #                        -***-                          #
                #          Department of theory and spectroscopy        #
                #                                                       #
                #                      Frank Neese                      #
                #                                                       #
                #     Directorship, Architecture, Infrastructure        #
                #                    SHARK, DRIVERS                     #
                #        Core code/Algorithms in most modules           #
                #                                                       #
                #        Max Planck Institute fuer Kohlenforschung      #
                #                Kaiser Wilhelm Platz 1                 #
                #                 D-45470 Muelheim/Ruhr                 #
                #                      Germany                          #
                #                                                       #
                #                  All rights reserved                  #
                #                        -***-                          #
                #########################################################


                         Program Version 6.1.0  -  RELEASE   -
                                (GIT: $679e74b$)
                          ($2025-06-10 18:02:51 +0200$)


 With contributions from (in alphabetic order):
[Max-Planck-Institut fuer Kohlenforschung]                               
  Daniel Aravena         : Magnetic Suceptibility                        
  Michael Atanasov       : Ab Initio Ligand Field Theory (pilot matlab implementation)
  Alexander A. Auer      : GIAO ZORA, VPT2 properties, NMR spectrum      
  Ute Becker             : All parallelization in ORCA, NUMFREQ, NUMCALC 
  Giovanni Bistoni       : ED, misc. LED, open-shell LED, HFLD           
  Dmytro Bykov           : pre 5.0 version of the SCF Hessian            
  Marcos Casanova-Páez   : Triplet and SCS-CIS(D). UHF-(DLPNO)-IP/EA/STEOM-CCSD. UHF-CVS-IP/STEOM-CCSD   
  Vijay G. Chilkuri      : MRCI spin determinant printing, contributions to CSF-ICE 
  Pauline Colinet        : FMM embedding                                 
  Dipayan Datta          : RHF DLPNO-CCSD density                        
  Achintya Kumar Dutta   : EOM-CC, STEOM-CC                              
  Nicolas Foglia         : Exact transition moments, OPA infrastructure, MCD improvements    
  Dmitry Ganyushin       : Spin-Orbit,Spin-Spin,Magnetic field MRCI      
  Miquel Garcia-Rates    : C-PCM and meta-GGA Hessian, CCSD/C-PCM, Gaussian charge scheme 
  Tiago L. C. Gouveia    : GS-ROHF, GS-ROCIS                             
  Yang Guo               : DLPNO-NEVPT2, F12-NEVPT2, CIM, IAO-localization        
  Andreas Hansen         : Spin unrestricted coupled pair/coupled cluster methods 
  Ingolf Harden          : AUTO-CI MPn and infrastructure                
  Benjamin Helmich-Paris : MC-RPA, TRAH-(SCF,CASSCF), AVAS, COSX integrals, SCF dyn. polar., MC-PDFT, srDFT 
  Lee Huntington         : MR-EOM, pCC                                   
  Robert Izsak           : Overlap fitted RIJCOSX, COSX-SCS-MP3, EOM     
  Riya Kayal             : Wick's Theorem for AUTO-CI, AUTO-CI UHF-CCSDT 
  Emily Kempfer          : AUTO-CI RHF CISDT and CCSDT, approximate NEVPT4
  Christian Kollmar      : KDIIS, OOCD, Brueckner-CCSD(T), CCSD density, CASPT2, CASPT2-K, improved NEVPT2 
  Axel Koslowski         : Symmetry handling                             
  Simone Kossmann        : meta-GGA functionals, TD-DFT gradient, OOMP2, (MP2 Hessian; deprecated post 5.0) 
  Lucas Lang             : DCDCAS, Hyperfine gauge corrections, ICE-SOC+SSC
  Marvin Lechner         : AUTO-CI (C++ implementation), FIC-MRCC        
  Spencer Leger          : CASSCF response                               
  Dagmar Lenk            : GEPOL surface, SMD, ORCA-2-JSON               
  Dimitrios Liakos       : Extrapolation schemes; Compound Job, Property file
  Dimitrios Manganas     : Further ROCIS development; embedding schemes. LFT, Crystal Embedding 
  Dimitrios Pantazis     : SARC Basis sets                               
  Anastasios Papadopoulos: AUTO-CI, single reference methods and gradients 
  Taras Petrenko         : pre 6.0 DFT Hessian and TD-DFT gradient,  ECA, NRVS 
  Petra Pikulova         : Analytic Raman intensities                    
  Peter Pinski           : DLPNO-MP2, DLPNO-MP2 Gradient                 
  Shashank Vittal Rao    : ES-AILFT, MagRelax                            
  Christoph Reimann      : Effective Core Potentials                     
  Marius Retegan         : Local ZFS, SOC                                
  Christoph Riplinger    : Optimizer, TS searches, QM/MM, DLPNO-CCSD(T), (RO)-DLPNO pert. Triples 
  Michael Roemelt        : Original ROCIS implementation, recursive CI coupling coefficients
  Masaaki Saitow         : Open-shell DLPNO-CCSD energy and density      
  Barbara Sandhoefer     : DKH picture change effects                    
  Yorick L. A. Schmerwitz: GMF and freeze-and-release deltaSCF, NEB S-IDPP initial path                    
  Kantharuban Sivalingam : CASSCF convergence/infrastructure, NEVPT2, NEVPT3, NEVPT4(SD), FIC-MRCI and CEPA variants
  Bernardo de Souza      : ESD, SOC TD-DFT                               
  Georgi L. Stoychev     : AutoAux, RI-MP2 NMR, DLPNO-MP2 response, X2C  
  Van Anh Tran           : RI-MP2 g-tensors                              
  Willem Van den Heuvel  : Paramagnetic NMR                              
  Zikuan Wang            : NOTCH, Electric field optimization            
  Frank Wennmohs         : Technical directorship and infrastructure     
  Hang Xu                : AUTO-CI-Response properties                   
                                                                         
[FACCTs GmbH]                                                            
  Markus Bursch, Nicolas Foglia, Miquel Garcia-Rates, Ingolf Harden, Hagen Neugebauer, Anastasios Papadopoulos, 
  Christoph Riplinger, Bernardo de Souza, Georgi L. Stoychev                                                    
                                                                 
  APM, various basis sets, CI-OPT, improved COSX, DLPNO-Multilevel,           
  DOCKER, DRACO, updates on ESD, Fragmentator, GOAT, IRC, LR-CPCM, L-BFGS, MBIS, meta-GGA TD-DFT gradient, ML-optimized integration grids, 
  MM, NACMEs, nearIR, NEB, NEB-TS, NL-DFT gradient (VV10), 2- and 3-layer-ONIOM, interface openCOSMO-RS, QMMM,   
  Crystal-QMMM, RESP, rigid body optimization, SF, symmetry and pop. for TD-DFT, various functionals, SOLVATOR                                   
                                                                         
[Other institutions]                                                     
  V. Asgeirsson          : NEB                                           
  Christoph Bannwarth    : sTDA-DFT, sTD-DFT, PBEh-3c, B97-3c, D3        
  Giovanni Bistoni       : ETS/NOCV, ADLD/ADEX, COVALED                  
  Martin Brehm           : Molecular dynamics                            
  Ronald Cardenas        : ETS/NOCV                                      
  Martina Colucci        : COVALED                                       
  Sebastian Ehlert       : rSCAN, r2SCAN, r2SCAN-3c, D4, dhf basis sets  
  Marvin Friede          : D4 for Fr, Ra, Ac-Lr                          
  Lars Goerigk           : TD-DFT with DH, B97 family of functionals     
  Stefan Grimme          : VdW corrections, initial TS optimization, DFT functionals, gCP, sTDA/sTD-DF 
  Waldemar Hujo          : DFT-NL                                        
  H. Jonsson             : NEB                                           
  Holger Kruse           : gCP                                           
  Marcel Mueller         : wB97X-3c, vDZP basis set                      
  Hagen Neugebauer       : wr2SCAN, Native XTB                           
  Gianluca Regni         : ADLD/ADEX                                     
  Tobias Risthaus        : pre 6.0 range-separated hybrid DFT and stability analysis
  Lukas Wittmann         : regularized MP2, r2SCAN double-hybrids, wr2SCAN        
                                                                         
We gratefully acknowledge several colleagues who have allowed us to      
interface, adapt or use parts of their codes:                            
  Ed Valeev, F. Pavosevic, A. Kumar             : LibInt (2-el integral package), F12 methods 
  Garnet Chan, S. Sharma, J. Yang, R. Olivares  : DMRG                   
  Ulf Ekstrom                                   : XCFun DFT Library      
  Mihaly Kallay                                 : mrcc  (arbitrary order and MRCC methods)
  Frank Weinhold                                : gennbo (NPA and NBO analysis)           
  Simon Mueller                                 : openCOSMO-RS                            
  Christopher J. Cramer and Donald G. Truhlar   : smd solvation model                     
  S Lehtola, MJT Oliveira, MAL Marques          : LibXC Library                           
  Liviu Ungur et al                             : ANISO software                          


 Your calculation uses the libint2 library for the computation of 2-el integrals
 For citations please refer to: http://libint.valeyev.net

 Your ORCA version has been built with support for libXC version: 7.0.0
 For citations please refer to: https://libxc.gitlab.io

 This ORCA versions uses:
   CBLAS   interface :  Fast vector & matrix operations
   LAPACKE interface :  Fast linear algebra routines
   SCALAPACK package :  Parallel linear algebra routines
   Shared memory     :  Shared parallel matrices
   BLAS/LAPACK       :  OpenBLAS 0.3.29  USE64BITINT DYNAMIC_ARCH NO_AFFINITY Cooperlake SINGLE_THREADED
        Core in use  :  Cooperlake
   Copyright (c) 2011-2014, The OpenBLAS Project


  ***********************************
  * Starting time: Fri Aug 15 08:21:44 2025
  * Host name:     mendelevium01
  * Process ID:    4080824
  * Working dir.:  /local/scratch/mehlhorn/61934
  ***********************************



***************************************
The coordinates will be read from file: start.xyz
***************************************


Your calculation utilizes the geometrical counterpoise correction gCP
Please cite in your paper:
H.Kruse, S. Grimme J.Chem.Phys., 136, (2012), 154101 
   

Your calculation utilizes the atom-pairwise dispersion correction
with the Becke-Johnson damping scheme (D3BJ)


Warning: RI is on but no J-basis has been assigned. Assigning Def2/J (nothing to worry about!)
================================================================================

cite the ECPs for Zr [Def2-ECP] as follows:
Ce-Yb(ecp-28): M. Dolg, H. Stoll, H.Preuss, J. Chem. Phys., 1989, 90, 1730-1734.
Y-Cd(ecp-28), Hf-Hg(ecp-46): D. Andrae,U. Haeussermann, M. Dolg, H. Stoll, H. Preuss, Theor. Chim. Acta, 1990, 77, 123-141.
In-Sb(ecp-28), Tl-Bi(ecp-46): B. Metz, H. Stoll, M. Dolg, J. Chem. Phys., 2000, 113, 2563-2569.
Te-Xe(ecp-28), Po-Rn(ecp-46): K. A. Peterson, D. Figgen, E. Goll, H. Stoll, M. Dolg, J. Chem. Phys., 2003, 119, 11113-11123.
Rb(ecp-28), Cs(ecp-46): T. Leininger, A. Nicklass, W. Kuechle, H. Stoll, M. Dolg, A. Bergner, Chem. Phys. Lett., 1996, 255, 274-280.
Sr(ecp-28), Ba(ecp-46): M. Kaupp, P. V. Schleyer, H. Stoll and H. Preuss, J. Chem. Phys., 1991, 94, 1360-1366.
La(ecp-46): M. Dolg, H. Stoll, A. Savin, H. Preuss, Theor. Chim. Acta, 1989, 75, 173-194.
Lu(ecp-28): X. Cao, M. Dolg, J. Chem. Phys., 2001, 115, 7348-7355.

ECP parameters for Zr [Def2-ECP] have been obtained from:
TURBOMOLE (7.0.2)

----- Orbital basis set information -----
Your calculation utilizes the basis: def2-SV(P)
   F. Weigend and R. Ahlrichs, Phys. Chem. Chem. Phys. 7, 3297 (2005).

----- AuxJ basis set information -----
Your calculation utilizes the auxiliary basis: def2/J
   H-Rn: F. Weigend, Phys. Chem. Chem. Phys. 8, 1057 (2006).
   Fr-Lr: K. Eichkorn, F. Weigend, O. Treutler, R. Ahlrichs; Theor. Chem. Acc. 97, 119 (1997).

================================================================================
                                        WARNINGS
                       Please study these warnings very carefully!
================================================================================


WARNING: Gradients are needed
  ===> : At least TightSCF should be used for SCF convergence

WARNING: Geometry Optimization
  ===> : Switching off AutoStart
         For restart on a previous wavefunction, please use MOREAD

================================================================================
                                       INPUT FILE
================================================================================
NAME = run.inp
|  1> # Geometry optimization for UiO-66-dehydrox SBU
|  2> 
|  3> %pal nprocs 256 end
|  4> 
|  5> ! PBE 	# functional used for the MOF calculations later (non-expensive)
|  6> ! RKS	# closed shell for SBU
|  7> ! D3  # better geometries at low cost
|  8> ! def2-SV(P) # Ahlrichs basis set triple zeta with core potentials and auxilarry basis set for coulomb integrals
|  9> ! gCP(DFT/SV(P)) # geometrical counter poise
| 10> ! Freq 	# Frequency analysis to check the stabiltity of the structures
| 11> 
| 12> ! NoPop # population analysis not necessary	
| 13> 
| 14> ! RI 		# speed up calculation 
| 15> ! DEFGRID2 # dense Grid
| 16> ! NormalSCF # tight SCF criteria as basis for Geom.-Opt.
| 17> ! SloppyOpt # tight convergence criteria for geometry optimizations
| 18> 
| 19> ! SmallPrint
| 20> 
| 21> 
| 22> * xyzFile 0 1 start.xyz # no spin
| 23> 
| 24>                          ****END OF INPUT****
================================================================================

                       *****************************
                       * Geometry Optimization Run *
                       *****************************

Geometry optimization settings:
Update method            Update   .... BFGS
Choice of coordinates    CoordSys .... (2022) Redundant Internals
Initial Hessian          InHess   .... Almloef's Model
Max. no of cycles        MaxIter  .... 180

Convergence Tolerances:
Energy Change            TolE     ....  8.0000e-05 Eh
Max. Gradient            TolMAXG  ....  5.0000e-03 Eh/bohr
RMS Gradient             TolRMSG  ....  1.0000e-03 Eh/bohr
Max. Displacement        TolMAXD  ....  3.0000e-02 bohr
RMS Displacement         TolRMSD  ....  2.0000e-02 bohr
Strict Convergence                .... False

------------------------------------------------------------------------------
                        ORCA OPTIMIZATION COORDINATE SETUP
------------------------------------------------------------------------------

The optimization will be done in redundant internal coordinates (2022)
Making redundant internal coordinates   ...  (2022 redundants) done
Evaluating the initial hessian          ...  (Almloef) done
Evaluating the coordinates              ...  done
Calculating the B-matrix                .... done
Calculating the G-matrix                .... done
The number of degrees of freedom        ....  894

    -----------------------------------------------------------------
                    Redundant Internal Coordinates


    -----------------------------------------------------------------
         Definition                    Initial Value    Approx d2E/dq
    -----------------------------------------------------------------
      1. B(Zr  2,Zr  1)                  3.4602         0.031845   
      2. B(Zr  3,Zr  0)                  3.4602         0.031845   
      3. B(Zr  4,Zr  3)                  3.4593         0.031960   
      4. B(Zr  4,Zr  1)                  3.4591         0.031983   
      5. B(Zr  5,Zr  0)                  3.4591         0.031983   
      6. B(Zr  5,Zr  2)                  3.4593         0.031960   
      7. B(O   6,Zr  0)                  2.2187         0.269720   
      8. B(O   6,Zr  3)                  2.0748         0.457574   
      9. B(O   6,Zr  5)                  2.0586         0.485620   
     10. B(O   7,Zr  4)                  2.0586         0.485620   
     11. B(O   7,Zr  1)                  2.2187         0.269720   
     12. B(O   7,Zr  2)                  2.0748         0.457574   
     13. B(O   8,Zr  5)                  2.0742         0.458526   
     14. B(O   8,Zr  2)                  2.2193         0.269115   
     15. B(O   8,Zr  1)                  2.0588         0.485237   
     16. B(O   9,Zr  4)                  2.0742         0.458526   
     17. B(O   9,Zr  3)                  2.2193         0.269115   
     18. B(O   9,Zr  0)                  2.0588         0.485237   
     19. B(O  10,Zr  3)                  2.0589         0.485059   
     20. B(O  10,Zr  4)                  2.2192         0.269206   
     21. B(O  10,Zr  1)                  2.0748         0.457585   
     22. B(O  11,Zr  5)                  2.2192         0.269206   
     23. B(O  11,Zr  2)                  2.0589         0.485059   
     24. B(O  11,Zr  0)                  2.0748         0.457585   
     25. B(O  12,Zr  0)                  2.2109         0.277508   
     26. B(O  13,Zr  0)                  2.2222         0.266228   
     27. B(O  14,Zr  0)                  2.2223         0.266185   
     28. B(O  15,Zr  0)                  2.2618         0.230220   
     29. B(O  16,Zr  1)                  2.2618         0.230220   
     30. B(O  17,Zr  1)                  2.2223         0.266184   
     31. B(O  18,Zr  1)                  2.2222         0.266228   
     32. B(O  19,Zr  1)                  2.2109         0.277508   
     33. B(O  20,Zr  2)                  2.2220         0.266457   
     34. B(O  21,Zr  2)                  2.2612         0.230737   
     35. B(O  22,Zr  2)                  2.2100         0.278457   
     36. B(O  23,Zr  2)                  2.2222         0.266291   
     37. B(O  24,Zr  3)                  2.2222         0.266291   
     38. B(O  25,Zr  3)                  2.2100         0.278457   
     39. B(O  26,Zr  3)                  2.2612         0.230737   
     40. B(O  27,Zr  3)                  2.2220         0.266457   
     41. B(O  28,Zr  4)                  2.2111         0.277312   
     42. B(O  29,Zr  4)                  2.2231         0.265389   
     43. B(O  30,Zr  4)                  2.2216         0.266862   
     44. B(O  31,Zr  4)                  2.2613         0.230607   
     45. B(O  32,Zr  5)                  2.2613         0.230607   
     46. B(O  33,Zr  5)                  2.2216         0.266862   
     47. B(O  34,Zr  5)                  2.2231         0.265389   
     48. B(O  35,Zr  5)                  2.2111         0.277312   
     49. B(C  36,O  33)                  1.2636         0.890215   
     50. B(C  36,O  12)                  1.2675         0.877644   
     51. B(C  37,O  25)                  1.2673         0.878154   
     52. B(C  37,O  13)                  1.2636         0.890348   
     53. B(C  38,O  21)                  1.2601         0.901781   
     54. B(C  38,O  14)                  1.2735         0.858523   
     55. B(C  39,O  29)                  1.2737         0.857967   
     56. B(C  39,O  15)                  1.2601         0.901926   
     57. B(C  40,O  34)                  1.2737         0.857967   
     58. B(C  40,O  16)                  1.2601         0.901926   
     59. B(C  41,O  26)                  1.2601         0.901781   
     60. B(C  41,O  17)                  1.2735         0.858523   
     61. B(C  42,O  22)                  1.2673         0.878154   
     62. B(C  42,O  18)                  1.2636         0.890348   
     63. B(C  43,O  19)                  1.2675         0.877644   
     64. B(C  43,O  30)                  1.2636         0.890215   
     65. B(C  44,O  35)                  1.2675         0.877761   
     66. B(C  44,O  20)                  1.2636         0.890155   
     67. B(C  45,O  31)                  1.2600         0.902082   
     68. B(C  45,O  23)                  1.2736         0.858193   
     69. B(C  46,O  32)                  1.2600         0.902082   
     70. B(C  46,O  24)                  1.2736         0.858193   
     71. B(C  47,O  28)                  1.2675         0.877761   
     72. B(C  47,O  27)                  1.2636         0.890155   
     73. B(H  48,C  41)                  1.1207         0.321655   
     74. B(H  49,C  42)                  1.1196         0.322987   
     75. B(H  50,C  38)                  1.1207         0.321655   
     76. B(H  51,C  37)                  1.1196         0.322987   
     77. B(H  52,C  43)                  1.1196         0.323011   
     78. B(H  53,C  47)                  1.1196         0.322987   
     79. B(H  54,C  39)                  1.1207         0.321652   
     80. B(H  55,C  45)                  1.1207         0.321662   
     81. B(H  56,C  40)                  1.1207         0.321652   
     82. B(H  57,C  46)                  1.1207         0.321662   
     83. B(H  58,C  36)                  1.1196         0.323011   
     84. B(H  59,C  44)                  1.1196         0.322987   
     85. A(O  13,Zr  0,O  14)          128.8971         0.399257   
     86. A(O  12,Zr  0,O  13)           75.9479         0.402197   
     87. A(O  12,Zr  0,O  15)          121.6404         0.392063   
     88. A(Zr  5,Zr  0,O  11)           37.7771         0.332053   
     89. A(Zr  3,Zr  0,Zr  5)           64.9621         0.237856   
     90. A(Zr  3,Zr  0,O  14)          153.3509         0.303795   
     91. A(Zr  5,Zr  0,O  15)          163.4551         0.297055   
     92. A(O  13,Zr  0,O  15)           78.9761         0.389230   
     93. A(O   6,Zr  0,O  13)           82.1793         0.400185   
     94. A(O   9,Zr  0,O  11)           99.0687         0.490775   
     95. A(Zr  3,Zr  0,O  11)           91.5056         0.331817   
     96. A(O   6,Zr  0,O  15)          141.1088         0.390117   
     97. A(O   9,Zr  0,O  14)          121.1154         0.444409   
     98. A(O  14,Zr  0,O  15)           70.5355         0.389219   
     99. A(Zr  5,Zr  0,O  13)          110.4811         0.304012   
    100. A(O  11,Zr  0,O  12)           84.4578         0.443043   
    101. A(Zr  5,Zr  0,O  14)          110.0640         0.304004   
    102. A(Zr  5,Zr  0,O  12)           74.5717         0.306041   
    103. A(O  11,Zr  0,O  15)          133.8182         0.428385   
    104. A(Zr  5,Zr  0,O   9)           91.4558         0.335303   
    105. A(O   6,Zr  0,O  11)           70.1276         0.440769   
    106. A(O   6,Zr  0,O  14)          144.3555         0.400174   
    107. A(Zr  3,Zr  0,O  13)           74.1075         0.303803   
    108. A(Zr  3,Zr  0,O  15)          106.6588         0.296853   
    109. A(O   9,Zr  0,O  15)           75.0692         0.432922   
    110. A(O  12,Zr  0,O  14)           86.2629         0.402185   
    111. A(Zr  3,Zr  0,O   6)           34.9118         0.304438   
    112. A(O   9,Zr  0,O  12)          152.4435         0.447776   
    113. A(O  11,Zr  0,O  13)          147.1806         0.439733   
    114. A(Zr  5,Zr  0,O   6)           34.4981         0.304647   
    115. A(Zr  3,Zr  0,O   9)           37.6114         0.335063   
    116. A(O  11,Zr  0,O  14)           74.5824         0.439720   
    117. A(O   6,Zr  0,O   9)           70.3499         0.445472   
    118. A(O   6,Zr  0,O  12)           85.5494         0.403122   
    119. A(O   9,Zr  0,O  13)           87.3898         0.444422   
    120. A(Zr  3,Zr  0,O  12)          115.4278         0.305830   
    121. A(Zr  4,Zr  1,O  19)           74.5717         0.306041   
    122. A(O   8,Zr  1,O  16)           75.0692         0.432922   
    123. A(O   7,Zr  1,O  18)           82.1793         0.400185   
    124. A(O  17,Zr  1,O  19)           86.2629         0.402185   
    125. A(O  16,Zr  1,O  17)           70.5355         0.389219   
    126. A(Zr  4,Zr  1,O  16)          163.4551         0.297055   
    127. A(Zr  4,Zr  1,O  10)           37.7771         0.332053   
    128. A(O   7,Zr  1,O  10)           70.1276         0.440769   
    129. A(O   8,Zr  1,O  10)           99.0687         0.490775   
    130. A(Zr  2,Zr  1,O   8)           37.6114         0.335063   
    131. A(Zr  4,Zr  1,O  18)          110.4811         0.304012   
    132. A(O  10,Zr  1,O  16)          133.8182         0.428385   
    133. A(O   7,Zr  1,O  17)          144.3555         0.400174   
    134. A(Zr  2,Zr  1,O  16)          106.6588         0.296853   
    135. A(O  10,Zr  1,O  17)           74.5824         0.439720   
    136. A(Zr  4,Zr  1,O  17)          110.0639         0.304004   
    137. A(O   8,Zr  1,O  18)           87.3898         0.444422   
    138. A(Zr  2,Zr  1,O  10)           91.5056         0.331817   
    139. A(O  17,Zr  1,O  18)          128.8971         0.399257   
    140. A(Zr  2,Zr  1,O  19)          115.4278         0.305830   
    141. A(O  10,Zr  1,O  18)          147.1806         0.439733   
    142. A(O  16,Zr  1,O  18)           78.9762         0.389230   
    143. A(O   7,Zr  1,O  19)           85.5494         0.403122   
    144. A(Zr  4,Zr  1,O   7)           34.4981         0.304647   
    145. A(O   8,Zr  1,O  17)          121.1154         0.444409   
    146. A(Zr  2,Zr  1,O  18)           74.1075         0.303803   
    147. A(Zr  4,Zr  1,O   8)           91.4558         0.335303   
    148. A(Zr  2,Zr  1,Zr  4)           64.9621         0.237856   
    149. A(O  18,Zr  1,O  19)           75.9479         0.402197   
    150. A(Zr  2,Zr  1,O   7)           34.9118         0.304438   
    151. A(O   7,Zr  1,O  16)          141.1088         0.390117   
    152. A(Zr  2,Zr  1,O  17)          153.3509         0.303795   
    153. A(O  10,Zr  1,O  19)           84.4578         0.443043   
    154. A(O   7,Zr  1,O   8)           70.3498         0.445472   
    155. A(O   8,Zr  1,O  19)          152.4435         0.447776   
    156. A(O  16,Zr  1,O  19)          121.6404         0.392063   
    157. A(O   8,Zr  2,O  20)           82.1302         0.400088   
    158. A(Zr  1,Zr  2,O  20)          110.4255         0.303845   
    159. A(Zr  5,Zr  2,O  11)           37.6333         0.335244   
    160. A(Zr  5,Zr  2,O   8)           34.9224         0.304504   
    161. A(O   7,Zr  2,O  23)           74.6157         0.439750   
    162. A(O  21,Zr  2,O  23)           70.5423         0.389398   
    163. A(O  22,Zr  2,O  23)           86.2549         0.402455   
    164. A(Zr  1,Zr  2,O   8)           34.4839         0.304328   
    165. A(O  11,Zr  2,O  23)          121.0717         0.444412   
    166. A(O   8,Zr  2,O  22)           85.5209         0.403205   
    167. A(O  11,Zr  2,O  22)          152.4893         0.448023   
    168. A(Zr  1,Zr  2,Zr  5)           64.9344         0.237832   
    169. A(Zr  1,Zr  2,O  21)          163.4027         0.296958   
    170. A(O   7,Zr  2,O   8)           70.0585         0.440588   
    171. A(O  20,Zr  2,O  23)          128.9722         0.399346   
    172. A(O   8,Zr  2,O  23)          144.3138         0.400044   
    173. A(Zr  5,Zr  2,O   7)           91.3830         0.332014   
    174. A(O   8,Zr  2,O  21)          141.1236         0.390116   
    175. A(Zr  5,Zr  2,O  23)          153.2857         0.303990   
    176. A(Zr  1,Zr  2,O  23)          110.0355         0.303815   
    177. A(O  21,Zr  2,O  22)          121.7144         0.392451   
    178. A(Zr  5,Zr  2,O  20)           74.1238         0.304020   
    179. A(Zr  5,Zr  2,O  22)          115.4492         0.306175   
    180. A(O   7,Zr  2,O  21)          133.7838         0.428555   
    181. A(Zr  1,Zr  2,O  22)           74.5427         0.305998   
    182. A(Zr  1,Zr  2,O  11)           91.4727         0.335043   
    183. A(O   7,Zr  2,O  11)           98.9868         0.490740   
    184. A(Zr  5,Zr  2,O  21)          106.6635         0.297128   
    185. A(O   8,Zr  2,O  11)           70.3999         0.445261   
    186. A(O  20,Zr  2,O  21)           79.0776         0.389441   
    187. A(O  11,Zr  2,O  20)           87.4137         0.444462   
    188. A(O   7,Zr  2,O  20)          147.1083         0.439799   
    189. A(Zr  1,Zr  2,O   7)           37.7344         0.331816   
    190. A(O  20,Zr  2,O  22)           75.9636         0.402500   
    191. A(O  11,Zr  2,O  21)           75.0170         0.433068   
    192. A(O   7,Zr  2,O  22)           84.4720         0.443314   
    193. A(O   6,Zr  3,O  10)           98.9868         0.490740   
    194. A(O   9,Zr  3,O  10)           70.3999         0.445261   
    195. A(Zr  4,Zr  3,O  10)           37.6333         0.335244   
    196. A(O  24,Zr  3,O  25)           86.2549         0.402455   
    197. A(O  26,Zr  3,O  27)           79.0776         0.389441   
    198. A(O   9,Zr  3,O  25)           85.5209         0.403205   
    199. A(Zr  0,Zr  3,O  27)          110.4255         0.303845   
    200. A(O  24,Zr  3,O  26)           70.5423         0.389398   
    201. A(O  25,Zr  3,O  27)           75.9636         0.402500   
    202. A(O  24,Zr  3,O  27)          128.9722         0.399346   
    203. A(O   9,Zr  3,O  27)           82.1302         0.400088   
    204. A(O   6,Zr  3,O  27)          147.1083         0.439799   
    205. A(Zr  4,Zr  3,O  27)           74.1238         0.304020   
    206. A(O  10,Zr  3,O  27)           87.4137         0.444462   
    207. A(O   9,Zr  3,O  26)          141.1236         0.390116   
    208. A(O  25,Zr  3,O  26)          121.7144         0.392451   
    209. A(O  10,Zr  3,O  26)           75.0170         0.433068   
    210. A(Zr  4,Zr  3,O   6)           91.3830         0.332014   
    211. A(O   6,Zr  3,O  26)          133.7838         0.428555   
    212. A(Zr  4,Zr  3,O  26)          106.6635         0.297128   
    213. A(Zr  0,Zr  3,O  26)          163.4027         0.296958   
    214. A(O   6,Zr  3,O   9)           70.0585         0.440588   
    215. A(O  10,Zr  3,O  25)          152.4893         0.448023   
    216. A(O   6,Zr  3,O  25)           84.4720         0.443314   
    217. A(Zr  4,Zr  3,O   9)           34.9224         0.304504   
    218. A(Zr  4,Zr  3,O  25)          115.4492         0.306175   
    219. A(Zr  0,Zr  3,O  25)           74.5427         0.305998   
    220. A(O  10,Zr  3,O  24)          121.0717         0.444412   
    221. A(O   9,Zr  3,O  24)          144.3138         0.400044   
    222. A(Zr  0,Zr  3,O   9)           34.4839         0.304328   
    223. A(O   6,Zr  3,O  24)           74.6157         0.439750   
    224. A(Zr  4,Zr  3,O  24)          153.2857         0.303990   
    225. A(Zr  0,Zr  3,O  24)          110.0355         0.303815   
    226. A(Zr  0,Zr  3,O  10)           91.4727         0.335043   
    227. A(Zr  0,Zr  3,O   6)           37.7344         0.331816   
    228. A(Zr  0,Zr  3,Zr  4)           64.9344         0.237832   
    229. A(Zr  1,Zr  4,Zr  3)           64.9334         0.237977   
    230. A(O   9,Zr  4,O  10)           70.1341         0.440781   
    231. A(O   7,Zr  4,O  10)           70.4002         0.445382   
    232. A(Zr  3,Zr  4,O  10)           34.5069         0.304520   
    233. A(O  10,Zr  4,O  28)           85.5303         0.402936   
    234. A(O   9,Zr  4,O  29)           74.6117         0.439646   
    235. A(O  28,Zr  4,O  30)           76.0762         0.402315   
    236. A(O  30,Zr  4,O  31)           79.0023         0.389506   
    237. A(O  29,Zr  4,O  31)           70.5151         0.389130   
    238. A(O   7,Zr  4,O  31)           75.0747         0.433115   
    239. A(O  28,Zr  4,O  31)          121.6803         0.392130   
    240. A(O  10,Zr  4,O  31)          141.1216         0.390101   
    241. A(O   9,Zr  4,O  31)          133.7717         0.428672   
    242. A(Zr  3,Zr  4,O  31)          163.4144         0.297102   
    243. A(Zr  1,Zr  4,O  31)          106.6583         0.297135   
    244. A(O  29,Zr  4,O  30)          128.9471         0.399214   
    245. A(O  10,Zr  4,O  30)           82.1064         0.400219   
    246. A(O   9,Zr  4,O  30)          147.1954         0.440085   
    247. A(O   7,Zr  4,O  30)           87.4385         0.444677   
    248. A(Zr  3,Zr  4,O  30)          110.4723         0.304094   
    249. A(Zr  1,Zr  4,O  30)           74.1147         0.304128   
    250. A(O  28,Zr  4,O  29)           86.2107         0.401923   
    251. A(O  10,Zr  4,O  29)          144.3805         0.399829   
    252. A(O   7,Zr  4,O  29)          121.0270         0.444232   
    253. A(Zr  3,Zr  4,O  29)          110.0728         0.303825   
    254. A(Zr  1,Zr  4,O  29)          153.2786         0.303859   
    255. A(O   9,Zr  4,O  28)           84.4515         0.443151   
    256. A(O   7,Zr  4,O  28)          152.5683         0.447783   
    257. A(Zr  3,Zr  4,O  28)           74.5642         0.305972   
    258. A(O   7,Zr  4,O   9)           98.9163         0.491034   
    259. A(Zr  1,Zr  4,O  28)          115.5170         0.306006   
    260. A(Zr  3,Zr  4,O   9)           37.7705         0.332128   
    261. A(Zr  1,Zr  4,O   9)           91.4131         0.332166   
    262. A(Zr  3,Zr  4,O   7)           91.4062         0.335308   
    263. A(Zr  1,Zr  4,O   7)           37.6198         0.335347   
    264. A(Zr  1,Zr  4,O  10)           34.9408         0.304554   
    265. A(O  11,Zr  5,O  35)           85.5303         0.402936   
    266. A(O  34,Zr  5,O  35)           86.2107         0.401923   
    267. A(O  33,Zr  5,O  35)           76.0762         0.402315   
    268. A(O  32,Zr  5,O  35)          121.6803         0.392130   
    269. A(O   8,Zr  5,O  35)           84.4516         0.443151   
    270. A(O   6,Zr  5,O  35)          152.5683         0.447783   
    271. A(Zr  2,Zr  5,O  35)           74.5642         0.305972   
    272. A(O  33,Zr  5,O  34)          128.9471         0.399214   
    273. A(O  32,Zr  5,O  34)           70.5151         0.389130   
    274. A(O  11,Zr  5,O  34)          144.3805         0.399829   
    275. A(Zr  0,Zr  5,O  35)          115.5170         0.306006   
    276. A(O  32,Zr  5,O  33)           79.0023         0.389506   
    277. A(O   6,Zr  5,O  34)          121.0270         0.444232   
    278. A(Zr  2,Zr  5,O  34)          110.0728         0.303825   
    279. A(Zr  0,Zr  5,O  34)          153.2786         0.303859   
    280. A(O  11,Zr  5,O  33)           82.1064         0.400219   
    281. A(O   8,Zr  5,O  33)          147.1954         0.440085   
    282. A(O   6,Zr  5,O  33)           87.4385         0.444677   
    283. A(Zr  0,Zr  5,O  33)           74.1147         0.304128   
    284. A(O  11,Zr  5,O  32)          141.1216         0.390101   
    285. A(O   8,Zr  5,O  32)          133.7717         0.428672   
    286. A(O   6,Zr  5,O  32)           75.0747         0.433115   
    287. A(Zr  2,Zr  5,O  32)          163.4143         0.297102   
    288. A(Zr  0,Zr  5,O  32)          106.6583         0.297135   
    289. A(Zr  2,Zr  5,O   6)           91.4062         0.335308   
    290. A(Zr  0,Zr  5,O   6)           37.6198         0.335347   
    291. A(Zr  0,Zr  5,Zr  2)           64.9334         0.237977   
    292. A(O   8,Zr  5,O  34)           74.6117         0.439646   
    293. A(O   8,Zr  5,O  11)           70.1341         0.440781   
    294. A(O   6,Zr  5,O  11)           70.4002         0.445382   
    295. A(Zr  2,Zr  5,O  11)           34.5069         0.304520   
    296. A(Zr  0,Zr  5,O  11)           34.9408         0.304554   
    297. A(O   6,Zr  5,O   8)           98.9163         0.491034   
    298. A(Zr  2,Zr  5,O  33)          110.4723         0.304094   
    299. A(Zr  2,Zr  5,O   8)           37.7705         0.332128   
    300. A(Zr  0,Zr  5,O   8)           91.4131         0.332167   
    301. A(Zr  3,O   6,Zr  5)          128.0474         0.490845   
    302. A(Zr  0,O   6,Zr  5)          107.8821         0.445536   
    303. A(Zr  0,O   6,Zr  3)          107.3538         0.440767   
    304. A(Zr  2,O   7,Zr  4)          128.0474         0.490845   
    305. A(Zr  1,O   7,Zr  4)          107.8821         0.445536   
    306. A(Zr  1,O   7,Zr  2)          107.3538         0.440767   
    307. A(Zr  1,O   8,Zr  2)          107.9047         0.445291   
    308. A(Zr  2,O   8,Zr  5)          107.3071         0.440754   
    309. A(Zr  1,O   8,Zr  5)          127.9843         0.490962   
    310. A(Zr  3,O   9,Zr  4)          107.3071         0.440754   
    311. A(Zr  0,O   9,Zr  4)          127.9843         0.490962   
    312. A(Zr  0,O   9,Zr  3)          107.9047         0.445291   
    313. A(Zr  3,O  10,Zr  4)          107.8598         0.445289   
    314. A(Zr  1,O  10,Zr  4)          107.2821         0.440617   
    315. A(Zr  1,O  10,Zr  3)          127.9041         0.490742   
    316. A(Zr  2,O  11,Zr  5)          107.8598         0.445289   
    317. A(Zr  0,O  11,Zr  5)          107.2821         0.440617   
    318. A(Zr  0,O  11,Zr  2)          127.9041         0.490742   
    319. A(Zr  0,O  12,C  36)          131.9959         0.443382   
    320. A(Zr  0,O  13,C  37)          132.2704         0.441213   
    321. A(Zr  0,O  14,C  38)          136.3453         0.438310   
    322. A(Zr  0,O  15,C  39)          128.2004         0.430815   
    323. A(Zr  1,O  16,C  40)          128.2004         0.430815   
    324. A(Zr  1,O  17,C  41)          136.3453         0.438310   
    325. A(Zr  1,O  18,C  42)          132.2704         0.441213   
    326. A(Zr  1,O  19,C  43)          131.9959         0.443382   
    327. A(Zr  2,O  20,C  44)          132.2842         0.441264   
    328. A(Zr  2,O  21,C  38)          128.2199         0.430976   
    329. A(Zr  2,O  22,C  42)          132.0757         0.443702   
    330. A(Zr  2,O  23,C  45)          136.4019         0.438311   
    331. A(Zr  3,O  24,C  46)          136.4019         0.438311   
    332. A(Zr  3,O  25,C  37)          132.0757         0.443702   
    333. A(Zr  3,O  26,C  41)          128.2199         0.430976   
    334. A(Zr  3,O  27,C  47)          132.2842         0.441264   
    335. A(Zr  4,O  28,C  47)          132.0109         0.443335   
    336. A(Zr  4,O  29,C  39)          136.3473         0.438022   
    337. A(Zr  4,O  30,C  43)          132.3050         0.441390   
    338. A(Zr  4,O  31,C  45)          128.2293         0.430958   
    339. A(Zr  5,O  32,C  46)          128.2293         0.430958   
    340. A(Zr  5,O  33,C  36)          132.3050         0.441390   
    341. A(Zr  5,O  34,C  40)          136.3473         0.438022   
    342. A(Zr  5,O  35,C  44)          132.0109         0.443335   
    343. A(O  12,C  36,O  33)          126.8862         0.487514   
    344. A(O  33,C  36,H  58)          116.6479         0.366166   
    345. A(O  12,C  36,H  58)          116.4659         0.365275   
    346. A(O  13,C  37,O  25)          126.8852         0.487580   
    347. A(O  25,C  37,H  51)          116.4512         0.365307   
    348. A(O  13,C  37,H  51)          116.6635         0.366170   
    349. A(O  14,C  38,O  21)          127.3850         0.486693   
    350. A(O  21,C  38,H  50)          116.6200         0.366712   
    351. A(O  14,C  38,H  50)          115.9880         0.363639   
    352. A(O  15,C  39,O  29)          127.3778         0.486649   
    353. A(O  29,C  39,H  54)          116.0047         0.363599   
    354. A(O  15,C  39,H  54)          116.6104         0.366722   
    355. A(O  16,C  40,O  34)          127.3778         0.486649   
    356. A(O  34,C  40,H  56)          116.0047         0.363599   
    357. A(O  16,C  40,H  56)          116.6104         0.366722   
    358. A(O  17,C  41,O  26)          127.3850         0.486693   
    359. A(O  26,C  41,H  48)          116.6200         0.366712   
    360. A(O  17,C  41,H  48)          115.9880         0.363639   
    361. A(O  18,C  42,O  22)          126.8852         0.487580   
    362. A(O  22,C  42,H  49)          116.4512         0.365307   
    363. A(O  18,C  42,H  49)          116.6635         0.366170   
    364. A(O  30,C  43,H  52)          116.6479         0.366166   
    365. A(O  19,C  43,H  52)          116.4659         0.365275   
    366. A(O  19,C  43,O  30)          126.8862         0.487514   
    367. A(O  35,C  44,H  59)          116.4622         0.365279   
    368. A(O  20,C  44,H  59)          116.6456         0.366157   
    369. A(O  20,C  44,O  35)          126.8922         0.487520   
    370. A(O  31,C  45,H  55)          116.6127         0.366735   
    371. A(O  23,C  45,H  55)          115.9890         0.363617   
    372. A(O  23,C  45,O  31)          127.3909         0.486688   
    373. A(O  32,C  46,H  57)          116.6127         0.366735   
    374. A(O  24,C  46,H  57)          115.9890         0.363617   
    375. A(O  24,C  46,O  32)          127.3909         0.486688   
    376. A(O  28,C  47,H  53)          116.4622         0.365279   
    377. A(O  27,C  47,H  53)          116.6456         0.366157   
    378. A(O  27,C  47,O  28)          126.8922         0.487520   
    379. D(O   7,Zr  2,Zr  1,O  10)    -50.8158         0.010000   
    380. D(Zr  5,Zr  2,Zr  1,O  19)    164.1481         0.010000   
    381. D(O   8,Zr  2,Zr  1,Zr  4)    130.7117         0.010000   
    382. D(O   7,Zr  2,Zr  1,O  19)     33.7628         0.010000   
    383. D(O   7,Zr  2,Zr  1,Zr  4)    -23.0621         0.010000   
    384. D(O   7,Zr  2,Zr  1,O  16)    172.2290         0.010000   
    385. D(Zr  5,Zr  2,Zr  1,O   8)    -23.3885         0.010000   
    386. D(Zr  5,Zr  2,Zr  1,Zr  4)    107.3232         0.010000   
    387. D(O   7,Zr  2,Zr  1,O  17)   -108.0944         0.010000   
    388. D(Zr  5,Zr  2,Zr  1,O  17)     22.2909         0.010000   
    389. D(O   7,Zr  2,Zr  1,O   8)   -153.7738         0.010000   
    390. D(Zr  5,Zr  2,Zr  1,O   7)    130.3852         0.010000   
    391. D(Zr  5,Zr  2,Zr  1,O  10)     79.5694         0.010000   
    392. D(O   7,Zr  2,Zr  1,O  18)     99.2501         0.010000   
    393. D(Zr  5,Zr  2,Zr  1,O  16)    -57.3857         0.010000   
    394. D(Zr  5,Zr  2,Zr  1,O  18)   -130.3647         0.010000   
    395. D(O   6,Zr  3,Zr  0,O  11)     50.8158         0.010000   
    396. D(O   6,Zr  3,Zr  0,O  13)    -99.2501         0.010000   
    397. D(O   6,Zr  3,Zr  0,Zr  5)     23.0621         0.010000   
    398. D(O   6,Zr  3,Zr  0,O  12)    -33.7628         0.010000   
    399. D(O   6,Zr  3,Zr  0,O   9)    153.7738         0.010000   
    400. D(O   9,Zr  3,Zr  0,Zr  5)   -130.7117         0.010000   
    401. D(Zr  4,Zr  3,Zr  0,O   6)   -130.3852         0.010000   
    402. D(Zr  4,Zr  3,Zr  0,O  11)    -79.5694         0.010000   
    403. D(Zr  4,Zr  3,Zr  0,Zr  5)   -107.3232         0.010000   
    404. D(Zr  4,Zr  3,Zr  0,O   9)     23.3885         0.010000   
    405. D(Zr  4,Zr  3,Zr  0,O  15)     57.3857         0.010000   
    406. D(Zr  4,Zr  3,Zr  0,O  13)    130.3647         0.010000   
    407. D(O   6,Zr  3,Zr  0,O  15)   -172.2290         0.010000   
    408. D(O   6,Zr  3,Zr  0,O  14)    108.0944         0.010000   
    409. D(Zr  4,Zr  3,Zr  0,O  12)   -164.1481         0.010000   
    410. D(Zr  4,Zr  3,Zr  0,O  14)    -22.2909         0.010000   
    411. D(O   7,Zr  4,Zr  3,O   6)     51.8829         0.010000   
    412. D(Zr  1,Zr  4,Zr  3,Zr  0)    107.2801         0.010000   
    413. D(O   7,Zr  4,Zr  3,O   9)    102.7938         0.010000   
    414. D(O   7,Zr  4,Zr  1,O  17)    174.9123         0.010000   
    415. D(Zr  3,Zr  4,Zr  1,O  18)   -167.5134         0.010000   
    416. D(Zr  1,Zr  4,Zr  3,O  27)   -130.4729         0.010000   
    417. D(Zr  1,Zr  4,Zr  3,O  10)    -23.4929         0.010000   
    418. D(O   7,Zr  4,Zr  3,O  24)     -5.2742         0.010000   
    419. D(Zr  1,Zr  4,Zr  3,O  25)    164.0213         0.010000   
    420. D(O   7,Zr  4,Zr  3,O  26)    -84.9790         0.010000   
    421. D(Zr  1,Zr  4,Zr  3,O  24)     22.3285         0.010000   
    422. D(O   9,Zr  4,Zr  1,Zr  2)    -79.5074         0.010000   
    423. D(O   7,Zr  4,Zr  3,O  10)    -51.0956         0.010000   
    424. D(Zr  3,Zr  4,Zr  1,O  16)    -44.7937         0.010000   
    425. D(O   7,Zr  4,Zr  1,O  16)     85.8459         0.010000   
    426. D(O   7,Zr  4,Zr  1,O  19)   -105.0373         0.010000   
    427. D(Zr  1,Zr  4,Zr  3,O  26)    -57.3763         0.010000   
    428. D(Zr  3,Zr  4,Zr  1,O  10)     23.2225         0.010000   
    429. D(O   7,Zr  4,Zr  1,O  10)    153.8622         0.010000   
    430. D(Zr  1,Zr  4,Zr  3,O   6)     79.4856         0.010000   
    431. D(O   7,Zr  4,Zr  3,O  25)    136.4185         0.010000   
    432. D(O   7,Zr  4,Zr  3,Zr  0)     79.6774         0.010000   
    433. D(O   7,Zr  4,Zr  1,O  18)    -36.8737         0.010000   
    434. D(Zr  3,Zr  4,Zr  1,Zr  2)   -107.3217         0.010000   
    435. D(Zr  3,Zr  4,Zr  1,O  17)     44.2726         0.010000   
    436. D(Zr  3,Zr  4,Zr  1,O  19)    124.3230         0.010000   
    437. D(O   7,Zr  4,Zr  1,O   8)     50.8833         0.010000   
    438. D(O   7,Zr  4,Zr  1,Zr  2)     23.3180         0.010000   
    439. D(Zr  3,Zr  4,Zr  1,O   8)    -79.7564         0.010000   
    440. D(Zr  1,Zr  4,Zr  3,O   9)    130.3965         0.010000   
    441. D(O   7,Zr  4,Zr  3,O  27)   -158.0756         0.010000   
    442. D(Zr  3,Zr  4,Zr  1,O   7)   -130.6397         0.010000   
    443. D(O   6,Zr  5,Zr  2,O  23)      5.2742         0.010000   
    444. D(O   6,Zr  5,Zr  2,O  22)   -136.4186         0.010000   
    445. D(O   6,Zr  5,Zr  2,O  20)    158.0756         0.010000   
    446. D(Zr  0,Zr  5,Zr  2,O  23)    -22.3285         0.010000   
    447. D(Zr  0,Zr  5,Zr  2,O  20)    130.4729         0.010000   
    448. D(Zr  0,Zr  5,Zr  2,O  22)   -164.0213         0.010000   
    449. D(O   6,Zr  5,Zr  2,Zr  1)    -79.6774         0.010000   
    450. D(O   6,Zr  5,Zr  2,O   7)    -51.8829         0.010000   
    451. D(O   6,Zr  5,Zr  2,O   8)   -102.7938         0.010000   
    452. D(Zr  0,Zr  5,Zr  2,O   7)    -79.4856         0.010000   
    453. D(O   8,Zr  5,Zr  0,Zr  3)     79.5074         0.010000   
    454. D(O   6,Zr  5,Zr  2,O  11)     51.0956         0.010000   
    455. D(O   6,Zr  5,Zr  0,O  12)    105.0373         0.010000   
    456. D(O   6,Zr  5,Zr  0,O  14)   -174.9123         0.010000   
    457. D(Zr  2,Zr  5,Zr  0,O   9)     79.7564         0.010000   
    458. D(Zr  2,Zr  5,Zr  0,O  15)     44.7938         0.010000   
    459. D(Zr  0,Zr  5,Zr  2,O   8)   -130.3965         0.010000   
    460. D(Zr  2,Zr  5,Zr  0,O  14)    -44.2726         0.010000   
    461. D(Zr  0,Zr  5,Zr  2,O  11)     23.4929         0.010000   
    462. D(Zr  0,Zr  5,Zr  2,O  21)     57.3763         0.010000   
    463. D(O   6,Zr  5,Zr  0,O   9)    -50.8833         0.010000   
    464. D(O   6,Zr  5,Zr  2,O  21)     84.9790         0.010000   
    465. D(O   6,Zr  5,Zr  0,Zr  3)    -23.3180         0.010000   
    466. D(Zr  2,Zr  5,Zr  0,O  12)   -124.3230         0.010000   
    467. D(Zr  0,Zr  5,Zr  2,Zr  1)   -107.2801         0.010000   
    468. D(Zr  2,Zr  5,Zr  0,Zr  3)    107.3217         0.010000   
    469. D(O   6,Zr  5,Zr  0,O  11)   -153.8622         0.010000   
    470. D(Zr  2,Zr  5,Zr  0,O  11)    -23.2225         0.010000   
    471. D(Zr  2,Zr  5,Zr  0,O   6)    130.6397         0.010000   
    472. D(O   6,Zr  5,Zr  0,O  13)     36.8737         0.010000   
    473. D(Zr  2,Zr  5,Zr  0,O  13)    167.5134         0.010000   
    474. D(O   6,Zr  5,Zr  0,O  15)    -85.8459         0.010000   
    475. D(Zr  3,O   6,Zr  5,O   8)     49.9414         0.010000   
    476. D(Zr  3,O   6,Zr  5,Zr  2)     87.1415         0.010000   
    477. D(Zr  3,O   6,Zr  5,Zr  0)    130.5787         0.010000   
    478. D(Zr  0,O   6,Zr  5,O  32)    146.2937         0.010000   
    479. D(Zr  0,O   6,Zr  3,O   9)     15.4359         0.010000   
    480. D(Zr  5,O   6,Zr  3,O   9)   -115.3379         0.010000   
    481. D(Zr  0,O   6,Zr  5,Zr  2)    -43.4372         0.010000   
    482. D(Zr  0,O   6,Zr  5,O   8)    -80.6372         0.010000   
    483. D(Zr  5,O   6,Zr  3,Zr  0)   -130.7739         0.010000   
    484. D(Zr  0,O   6,Zr  3,O  26)    158.5061         0.010000   
    485. D(Zr  0,O   6,Zr  5,O  35)     14.5158         0.010000   
    486. D(Zr  0,O   6,Zr  3,O  25)    -71.7927         0.010000   
    487. D(Zr  0,O   6,Zr  3,O  24)   -159.4181         0.010000   
    488. D(Zr  0,O   6,Zr  3,O  27)    -18.5450         0.010000   
    489. D(Zr  0,O   6,Zr  5,O  34)   -157.9819         0.010000   
    490. D(Zr  5,O   6,Zr  0,Zr  3)    141.1972         0.010000   
    491. D(Zr  5,O   6,Zr  3,Zr  4)    -87.1302         0.010000   
    492. D(Zr  0,O   6,Zr  5,O  11)    -15.5348         0.010000   
    493. D(Zr  3,O   6,Zr  0,O  14)   -132.9792         0.010000   
    494. D(Zr  3,O   6,Zr  0,O  15)     11.9069         0.010000   
    495. D(Zr  3,O   6,Zr  0,O  13)     73.3719         0.010000   
    496. D(Zr  3,O   6,Zr  0,O  12)    149.7724         0.010000   
    497. D(Zr  5,O   6,Zr  0,O  11)     16.6757         0.010000   
    498. D(Zr  3,O   6,Zr  0,O  11)   -124.5215         0.010000   
    499. D(Zr  5,O   6,Zr  0,O   9)    124.5558         0.010000   
    500. D(Zr  3,O   6,Zr  0,Zr  5)   -141.1972         0.010000   
    501. D(Zr  0,O   6,Zr  5,O  33)     66.9958         0.010000   
    502. D(Zr  3,O   6,Zr  0,O   9)    -16.6414         0.010000   
    503. D(Zr  0,O   6,Zr  3,O  10)     80.6858         0.010000   
    504. D(Zr  0,O   6,Zr  3,Zr  4)     43.6437         0.010000   
    505. D(Zr  2,O   7,Zr  1,Zr  4)    141.1972         0.010000   
    506. D(Zr  2,O   7,Zr  4,O   9)    -49.9414         0.010000   
    507. D(Zr  2,O   7,Zr  4,Zr  1)   -130.5787         0.010000   
    508. D(Zr  1,O   7,Zr  4,O  31)   -146.2937         0.010000   
    509. D(Zr  1,O   7,Zr  4,O  30)    -66.9958         0.010000   
    510. D(Zr  1,O   7,Zr  4,O  28)    -14.5158         0.010000   
    511. D(Zr  1,O   7,Zr  4,O  10)     15.5348         0.010000   
    512. D(Zr  1,O   7,Zr  4,O   9)     80.6372         0.010000   
    513. D(Zr  1,O   7,Zr  4,Zr  3)     43.4372         0.010000   
    514. D(Zr  4,O   7,Zr  2,O   8)    115.3379         0.010000   
    515. D(Zr  4,O   7,Zr  2,Zr  5)     87.1302         0.010000   
    516. D(Zr  4,O   7,Zr  2,Zr  1)    130.7739         0.010000   
    517. D(Zr  1,O   7,Zr  2,O  23)    159.4181         0.010000   
    518. D(Zr  1,O   7,Zr  2,O  22)     71.7927         0.010000   
    519. D(Zr  1,O   7,Zr  2,O  21)   -158.5061         0.010000   
    520. D(Zr  1,O   7,Zr  2,O  20)     18.5450         0.010000   
    521. D(Zr  1,O   7,Zr  2,O  11)    -80.6858         0.010000   
    522. D(Zr  1,O   7,Zr  2,O   8)    -15.4359         0.010000   
    523. D(Zr  4,O   7,Zr  1,O  10)    -16.6757         0.010000   
    524. D(Zr  4,O   7,Zr  1,Zr  2)   -141.1972         0.010000   
    525. D(Zr  2,O   7,Zr  1,O  19)   -149.7724         0.010000   
    526. D(Zr  2,O   7,Zr  1,O  18)    -73.3719         0.010000   
    527. D(Zr  4,O   7,Zr  1,O   8)   -124.5558         0.010000   
    528. D(Zr  1,O   7,Zr  4,O  29)    157.9819         0.010000   
    529. D(Zr  2,O   7,Zr  1,O  17)    132.9792         0.010000   
    530. D(Zr  2,O   7,Zr  1,O  16)    -11.9069         0.010000   
    531. D(Zr  2,O   7,Zr  1,O  10)    124.5215         0.010000   
    532. D(Zr  2,O   7,Zr  4,Zr  3)    -87.1415         0.010000   
    533. D(Zr  2,O   7,Zr  1,O   8)     16.6414         0.010000   
    534. D(Zr  1,O   7,Zr  2,Zr  5)    -43.6437         0.010000   
    535. D(Zr  2,O   8,Zr  5,O   6)     80.6818         0.010000   
    536. D(Zr  2,O   8,Zr  5,Zr  0)     43.6348         0.010000   
    537. D(Zr  1,O   8,Zr  5,O  35)    157.4503         0.010000   
    538. D(Zr  1,O   8,Zr  5,O  33)   -149.2016         0.010000   
    539. D(Zr  1,O   8,Zr  5,O  32)     27.8335         0.010000   
    540. D(Zr  1,O   8,Zr  5,O  11)   -115.3097         0.010000   
    541. D(Zr  1,O   8,Zr  5,O   6)    -50.0007         0.010000   
    542. D(Zr  1,O   8,Zr  5,Zr  2)   -130.6825         0.010000   
    543. D(Zr  1,O   8,Zr  5,Zr  0)    -87.0477         0.010000   
    544. D(Zr  5,O   8,Zr  2,O  11)    -16.5743         0.010000   
    545. D(Zr  5,O   8,Zr  2,Zr  1)   -141.0882         0.010000   
    546. D(Zr  1,O   8,Zr  2,O  23)      8.1952         0.010000   
    547. D(Zr  1,O   8,Zr  2,O  22)    -69.0144         0.010000   
    548. D(Zr  1,O   8,Zr  2,O  21)    153.0016         0.010000   
    549. D(Zr  1,O   8,Zr  2,O  20)   -145.4366         0.010000   
    550. D(Zr  1,O   8,Zr  2,O  11)    124.5139         0.010000   
    551. D(Zr  1,O   8,Zr  2,O   7)     16.7206         0.010000   
    552. D(Zr  5,O   8,Zr  2,O   7)   -124.3676         0.010000   
    553. D(Zr  1,O   8,Zr  2,Zr  5)    141.0882         0.010000   
    554. D(Zr  5,O   8,Zr  1,O   7)    114.8827         0.010000   
    555. D(Zr  5,O   8,Zr  1,Zr  4)     87.0685         0.010000   
    556. D(Zr  5,O   8,Zr  1,Zr  2)    130.4610         0.010000   
    557. D(Zr  2,O   8,Zr  1,O  19)     14.8357         0.010000   
    558. D(Zr  2,O   8,Zr  1,O  18)     67.0469         0.010000   
    559. D(Zr  2,O   8,Zr  1,O  17)   -157.9868         0.010000   
    560. D(Zr  1,O   8,Zr  5,O  34)     69.8650         0.010000   
    561. D(Zr  2,O   8,Zr  1,O  16)    146.3305         0.010000   
    562. D(Zr  2,O   8,Zr  1,O  10)    -80.5852         0.010000   
    563. D(Zr  2,O   8,Zr  1,O   7)    -15.5783         0.010000   
    564. D(Zr  2,O   8,Zr  1,Zr  4)    -43.3925         0.010000   
    565. D(Zr  3,O   9,Zr  4,O   7)    -80.6818         0.010000   
    566. D(Zr  0,O   9,Zr  4,O  31)    -27.8335         0.010000   
    567. D(Zr  0,O   9,Zr  4,O  30)    149.2016         0.010000   
    568. D(Zr  0,O   9,Zr  4,O  29)    -69.8650         0.010000   
    569. D(Zr  0,O   9,Zr  4,O  28)   -157.4503         0.010000   
    570. D(Zr  0,O   9,Zr  4,O  10)    115.3097         0.010000   
    571. D(Zr  0,O   9,Zr  4,O   7)     50.0007         0.010000   
    572. D(Zr  0,O   9,Zr  4,Zr  3)    130.6825         0.010000   
    573. D(Zr  4,O   9,Zr  3,O  10)     16.5743         0.010000   
    574. D(Zr  4,O   9,Zr  3,O   6)    124.3676         0.010000   
    575. D(Zr  4,O   9,Zr  3,Zr  0)    141.0882         0.010000   
    576. D(Zr  0,O   9,Zr  3,O  27)    145.4366         0.010000   
    577. D(Zr  0,O   9,Zr  3,O  26)   -153.0016         0.010000   
    578. D(Zr  0,O   9,Zr  3,O  25)     69.0144         0.010000   
    579. D(Zr  0,O   9,Zr  3,O  24)     -8.1953         0.010000   
    580. D(Zr  0,O   9,Zr  3,O  10)   -124.5139         0.010000   
    581. D(Zr  0,O   9,Zr  3,O   6)    -16.7206         0.010000   
    582. D(Zr  0,O   9,Zr  3,Zr  4)   -141.0882         0.010000   
    583. D(Zr  4,O   9,Zr  0,O   6)   -114.8827         0.010000   
    584. D(Zr  0,O   9,Zr  4,Zr  1)     87.0477         0.010000   
    585. D(Zr  4,O   9,Zr  0,Zr  5)    -87.0685         0.010000   
    586. D(Zr  4,O   9,Zr  0,Zr  3)   -130.4610         0.010000   
    587. D(Zr  3,O   9,Zr  0,O  15)   -146.3305         0.010000   
    588. D(Zr  3,O   9,Zr  0,O  14)    157.9868         0.010000   
    589. D(Zr  3,O   9,Zr  0,O  13)    -67.0469         0.010000   
    590. D(Zr  3,O   9,Zr  0,O  12)    -14.8357         0.010000   
    591. D(Zr  3,O   9,Zr  0,O  11)     80.5852         0.010000   
    592. D(Zr  3,O   9,Zr  4,Zr  1)    -43.6348         0.010000   
    593. D(Zr  3,O   9,Zr  0,O   6)     15.5783         0.010000   
    594. D(Zr  3,O   9,Zr  0,Zr  5)     43.3925         0.010000   
    595. D(Zr  3,O  10,Zr  4,O   9)     16.6558         0.010000   
    596. D(Zr  3,O  10,Zr  4,O   7)    124.3294         0.010000   
    597. D(Zr  3,O  10,Zr  4,Zr  1)    140.9151         0.010000   
    598. D(Zr  1,O  10,Zr  4,O  31)     12.1059         0.010000   
    599. D(Zr  1,O  10,Zr  4,O  30)     73.4988         0.010000   
    600. D(Zr  1,O  10,Zr  4,O  29)   -132.8464         0.010000   
    601. D(Zr  1,O  10,Zr  4,O  28)    150.0347         0.010000   
    602. D(Zr  1,O  10,Zr  4,O   7)    -16.5856         0.010000   
    603. D(Zr  1,O  10,Zr  4,Zr  3)   -140.9151         0.010000   
    604. D(Zr  4,O  10,Zr  3,O   6)    -80.4973         0.010000   
    605. D(Zr  1,O  10,Zr  3,O  27)   -162.6736         0.010000   
    606. D(Zr  1,O  10,Zr  3,O  26)    -83.2916         0.010000   
    607. D(Zr  1,O  10,Zr  3,O  25)    145.0851         0.010000   
    608. D(Zr  1,O  10,Zr  3,O  24)    -27.6150         0.010000   
    609. D(Zr  1,O  10,Zr  3,O   9)    114.7618         0.010000   
    610. D(Zr  1,O  10,Zr  3,O   6)     49.7766         0.010000   
    611. D(Zr  1,O  10,Zr  3,Zr  4)    130.2739         0.010000   
    612. D(Zr  4,O  10,Zr  3,Zr  0)    -43.3308         0.010000   
    613. D(Zr  1,O  10,Zr  3,Zr  0)     86.9431         0.010000   
    614. D(Zr  4,O  10,Zr  1,O   7)     15.3852         0.010000   
    615. D(Zr  4,O  10,Zr  1,Zr  2)     43.5299         0.010000   
    616. D(Zr  1,O  10,Zr  4,O   9)   -124.2593         0.010000   
    617. D(Zr  3,O  10,Zr  1,O  19)    157.6375         0.010000   
    618. D(Zr  3,O  10,Zr  1,O  18)   -149.2712         0.010000   
    619. D(Zr  3,O  10,Zr  1,O  17)     69.9971         0.010000   
    620. D(Zr  3,O  10,Zr  1,O  16)     28.0438         0.010000   
    621. D(Zr  3,O  10,Zr  1,O   8)    -49.9250         0.010000   
    622. D(Zr  3,O  10,Zr  1,O   7)   -115.1038         0.010000   
    623. D(Zr  3,O  10,Zr  1,Zr  4)   -130.4890         0.010000   
    624. D(Zr  3,O  10,Zr  1,Zr  2)    -86.9591         0.010000   
    625. D(Zr  2,O  11,Zr  0,O  15)    -28.0438         0.010000   
    626. D(Zr  2,O  11,Zr  0,O  14)    -69.9971         0.010000   
    627. D(Zr  2,O  11,Zr  0,O  13)    149.2712         0.010000   
    628. D(Zr  2,O  11,Zr  0,O  12)   -157.6375         0.010000   
    629. D(Zr  2,O  11,Zr  0,O   9)     49.9250         0.010000   
    630. D(Zr  2,O  11,Zr  0,O   6)    115.1038         0.010000   
    631. D(Zr  2,O  11,Zr  0,Zr  5)    130.4890         0.010000   
    632. D(Zr  5,O  11,Zr  0,Zr  3)    -43.5299         0.010000   
    633. D(Zr  2,O  11,Zr  0,Zr  3)     86.9591         0.010000   
    634. D(Zr  2,O  11,Zr  5,O   8)    -16.6558         0.010000   
    635. D(Zr  2,O  11,Zr  5,O   6)   -124.3294         0.010000   
    636. D(Zr  2,O  11,Zr  5,Zr  0)   -140.9151         0.010000   
    637. D(Zr  0,O  11,Zr  5,O  35)   -150.0347         0.010000   
    638. D(Zr  0,O  11,Zr  5,O  34)    132.8464         0.010000   
    639. D(Zr  0,O  11,Zr  5,O  32)    -12.1059         0.010000   
    640. D(Zr  0,O  11,Zr  5,O   8)    124.2593         0.010000   
    641. D(Zr  0,O  11,Zr  5,O   6)     16.5856         0.010000   
    642. D(Zr  0,O  11,Zr  5,Zr  2)    140.9151         0.010000   
    643. D(Zr  5,O  11,Zr  2,O   7)     80.4973         0.010000   
    644. D(Zr  5,O  11,Zr  2,Zr  1)     43.3308         0.010000   
    645. D(Zr  0,O  11,Zr  2,O  23)     27.6150         0.010000   
    646. D(Zr  0,O  11,Zr  2,O  22)   -145.0851         0.010000   
    647. D(Zr  0,O  11,Zr  2,O  21)     83.2916         0.010000   
    648. D(Zr  0,O  11,Zr  5,O  33)    -73.4988         0.010000   
    649. D(Zr  0,O  11,Zr  2,O  20)    162.6736         0.010000   
    650. D(Zr  0,O  11,Zr  2,O   8)   -114.7618         0.010000   
    651. D(Zr  0,O  11,Zr  2,O   7)    -49.7766         0.010000   
    652. D(Zr  0,O  11,Zr  2,Zr  5)   -130.2739         0.010000   
    653. D(Zr  0,O  11,Zr  2,Zr  1)    -86.9431         0.010000   
    654. D(Zr  5,O  11,Zr  0,O   6)    -15.3852         0.010000   
    655. D(C  36,O  12,Zr  0,O  15)   -172.6705         0.010000   
    656. D(C  36,O  12,Zr  0,O  14)   -108.2957         0.010000   
    657. D(C  36,O  12,Zr  0,O  13)    120.0203         0.010000   
    658. D(C  36,O  12,Zr  0,O  11)    -33.4449         0.010000   
    659. D(C  36,O  12,Zr  0,O   9)     65.5506         0.010000   
    660. D(C  36,O  12,Zr  0,O   6)     36.9824         0.010000   
    661. D(C  36,O  12,Zr  0,Zr  5)      3.7087         0.010000   
    662. D(C  36,O  12,Zr  0,Zr  3)     55.5866         0.010000   
    663. D(C  37,O  13,Zr  0,O  15)    109.0691         0.010000   
    664. D(C  37,O  13,Zr  0,O  14)    162.6717         0.010000   
    665. D(C  37,O  13,Zr  0,O  12)   -124.0829         0.010000   
    666. D(C  37,O  13,Zr  0,O  11)    -68.9575         0.010000   
    667. D(C  37,O  13,Zr  0,O   9)     33.7767         0.010000   
    668. D(C  37,O  13,Zr  0,O   6)    -36.7404         0.010000   
    669. D(C  37,O  13,Zr  0,Zr  5)    -56.8031         0.010000   
    670. D(C  37,O  13,Zr  0,Zr  3)     -1.9780         0.010000   
    671. D(C  38,O  14,Zr  0,O  15)   -151.8754         0.010000   
    672. D(C  38,O  14,Zr  0,O  13)    151.1994         0.010000   
    673. D(C  38,O  14,Zr  0,O  12)     82.6280         0.010000   
    674. D(C  38,O  14,Zr  0,O  11)     -2.6463         0.010000   
    675. D(C  38,O  14,Zr  0,O   9)    -94.0513         0.010000   
    676. D(C  38,O  14,Zr  0,O   6)      5.6032         0.010000   
    677. D(C  38,O  14,Zr  0,Zr  5)     10.5476         0.010000   
    678. D(C  38,O  14,Zr  0,Zr  3)    -63.3866         0.010000   
    679. D(C  39,O  15,Zr  0,O  14)     97.0154         0.010000   
    680. D(C  39,O  15,Zr  0,O  13)   -124.6227         0.010000   
    681. D(C  39,O  15,Zr  0,O  12)    169.6197         0.010000   
    682. D(C  39,O  15,Zr  0,O  11)     53.8951         0.010000   
    683. D(C  39,O  15,Zr  0,O   9)    -34.3975         0.010000   
    684. D(C  39,O  15,Zr  0,O   6)    -62.1592         0.010000   
    685. D(C  39,O  15,Zr  0,Zr  5)      1.9636         0.010000   
    686. D(C  39,O  15,Zr  0,Zr  3)    -55.0793         0.010000   
    687. D(C  40,O  16,Zr  1,O  19)   -169.6197         0.010000   
    688. D(C  40,O  16,Zr  1,O  18)    124.6226         0.010000   
    689. D(C  40,O  16,Zr  1,O  17)    -97.0154         0.010000   
    690. D(C  40,O  16,Zr  1,O  10)    -53.8952         0.010000   
    691. D(C  40,O  16,Zr  1,O   8)     34.3975         0.010000   
    692. D(C  40,O  16,Zr  1,O   7)     62.1592         0.010000   
    693. D(C  40,O  16,Zr  1,Zr  4)     -1.9637         0.010000   
    694. D(C  40,O  16,Zr  1,Zr  2)     55.0792         0.010000   
    695. D(C  41,O  17,Zr  1,O  19)    -82.6281         0.010000   
    696. D(C  41,O  17,Zr  1,O  18)   -151.1994         0.010000   
    697. D(C  41,O  17,Zr  1,O  16)    151.8753         0.010000   
    698. D(C  41,O  17,Zr  1,O  10)      2.6463         0.010000   
    699. D(C  41,O  17,Zr  1,O   8)     94.0512         0.010000   
    700. D(C  41,O  17,Zr  1,O   7)     -5.6033         0.010000   
    701. D(C  41,O  17,Zr  1,Zr  4)    -10.5476         0.010000   
    702. D(C  41,O  17,Zr  1,Zr  2)     63.3865         0.010000   
    703. D(C  42,O  18,Zr  1,O  19)    124.0829         0.010000   
    704. D(C  42,O  18,Zr  1,O  17)   -162.6717         0.010000   
    705. D(C  42,O  18,Zr  1,O  16)   -109.0691         0.010000   
    706. D(C  42,O  18,Zr  1,O  10)     68.9575         0.010000   
    707. D(C  42,O  18,Zr  1,O   8)    -33.7767         0.010000   
    708. D(C  42,O  18,Zr  1,O   7)     36.7405         0.010000   
    709. D(C  42,O  18,Zr  1,Zr  4)     56.8032         0.010000   
    710. D(C  42,O  18,Zr  1,Zr  2)      1.9780         0.010000   
    711. D(C  43,O  19,Zr  1,O  18)   -120.0203         0.010000   
    712. D(C  43,O  19,Zr  1,O  17)    108.2957         0.010000   
    713. D(C  43,O  19,Zr  1,O  16)    172.6705         0.010000   
    714. D(C  43,O  19,Zr  1,O  10)     33.4449         0.010000   
    715. D(C  43,O  19,Zr  1,O   8)    -65.5506         0.010000   
    716. D(C  43,O  19,Zr  1,O   7)    -36.9824         0.010000   
    717. D(C  43,O  19,Zr  1,Zr  4)     -3.7087         0.010000   
    718. D(C  43,O  19,Zr  1,Zr  2)    -55.5866         0.010000   
    719. D(C  44,O  20,Zr  2,O  23)    162.7000         0.010000   
    720. D(C  44,O  20,Zr  2,O  22)   -124.0890         0.010000   
    721. D(C  44,O  20,Zr  2,O  21)    109.0336         0.010000   
    722. D(C  44,O  20,Zr  2,O  11)     33.7985         0.010000   
    723. D(C  44,O  20,Zr  2,O   8)    -36.7661         0.010000   
    724. D(C  44,O  20,Zr  2,O   7)    -68.7987         0.010000   
    725. D(C  44,O  20,Zr  2,Zr  5)     -1.9750         0.010000   
    726. D(C  44,O  20,Zr  2,Zr  1)    -56.8107         0.010000   
    727. D(C  38,O  21,Zr  2,O  23)     96.9849         0.010000   
    728. D(C  38,O  21,Zr  2,O  22)    169.5422         0.010000   
    729. D(C  38,O  21,Zr  2,O  20)   -124.6389         0.010000   
    730. D(C  38,O  21,Zr  2,O  11)    -34.4056         0.010000   
    731. D(C  38,O  21,Zr  2,O   8)    -62.1254         0.010000   
    732. D(C  38,O  21,Zr  2,O   7)     53.7307         0.010000   
    733. D(C  38,O  21,Zr  2,Zr  5)    -55.0395         0.010000   
    734. D(C  38,O  21,Zr  2,Zr  1)      2.0072         0.010000   
    735. D(C  42,O  22,Zr  2,O  23)   -108.3871         0.010000   
    736. D(C  42,O  22,Zr  2,O  21)   -172.7372         0.010000   
    737. D(C  42,O  22,Zr  2,O  20)    119.8498         0.010000   
    738. D(C  42,O  22,Zr  2,O  11)     65.3515         0.010000   
    739. D(C  42,O  22,Zr  2,O   8)     36.8565         0.010000   
    740. D(C  42,O  22,Zr  2,O   7)    -33.5026         0.010000   
    741. D(C  42,O  22,Zr  2,Zr  5)     55.3970         0.010000   
    742. D(C  42,O  22,Zr  2,Zr  1)      3.5952         0.010000   
    743. D(C  45,O  23,Zr  2,O  22)     82.5422         0.010000   
    744. D(C  45,O  23,Zr  2,O  21)   -151.8774         0.010000   
    745. D(C  45,O  23,Zr  2,O  20)    151.0985         0.010000   
    746. D(C  45,O  23,Zr  2,O  11)    -94.0859         0.010000   
    747. D(C  45,O  23,Zr  2,O   8)      5.5629         0.010000   
    748. D(C  45,O  23,Zr  2,O   7)     -2.7476         0.010000   
    749. D(C  45,O  23,Zr  2,Zr  5)    -63.3379         0.010000   
    750. D(C  45,O  23,Zr  2,Zr  1)     10.4909         0.010000   
    751. D(C  46,O  24,Zr  3,O  27)   -151.0984         0.010000   
    752. D(C  46,O  24,Zr  3,O  26)    151.8774         0.010000   
    753. D(C  46,O  24,Zr  3,O  25)    -82.5421         0.010000   
    754. D(C  46,O  24,Zr  3,O  10)     94.0859         0.010000   
    755. D(C  46,O  24,Zr  3,O   9)     -5.5628         0.010000   
    756. D(C  46,O  24,Zr  3,O   6)      2.7477         0.010000   
    757. D(C  46,O  24,Zr  3,Zr  4)     63.3380         0.010000   
    758. D(C  46,O  24,Zr  3,Zr  0)    -10.4909         0.010000   
    759. D(C  37,O  25,Zr  3,O  27)   -119.8498         0.010000   
    760. D(C  37,O  25,Zr  3,O  26)    172.7372         0.010000   
    761. D(C  37,O  25,Zr  3,O  24)    108.3871         0.010000   
    762. D(C  37,O  25,Zr  3,O  10)    -65.3515         0.010000   
    763. D(C  37,O  25,Zr  3,O   9)    -36.8565         0.010000   
    764. D(C  37,O  25,Zr  3,O   6)     33.5026         0.010000   
    765. D(C  37,O  25,Zr  3,Zr  4)    -55.3970         0.010000   
    766. D(C  37,O  25,Zr  3,Zr  0)     -3.5952         0.010000   
    767. D(C  41,O  26,Zr  3,O  27)    124.6389         0.010000   
    768. D(C  41,O  26,Zr  3,O  25)   -169.5422         0.010000   
    769. D(C  41,O  26,Zr  3,O  24)    -96.9849         0.010000   
    770. D(C  41,O  26,Zr  3,O  10)     34.4056         0.010000   
    771. D(C  41,O  26,Zr  3,O   9)     62.1254         0.010000   
    772. D(C  41,O  26,Zr  3,O   6)    -53.7306         0.010000   
    773. D(C  41,O  26,Zr  3,Zr  4)     55.0395         0.010000   
    774. D(C  41,O  26,Zr  3,Zr  0)     -2.0072         0.010000   
    775. D(C  47,O  27,Zr  3,O  26)   -109.0335         0.010000   
    776. D(C  47,O  27,Zr  3,O  25)    124.0890         0.010000   
    777. D(C  47,O  27,Zr  3,O  24)   -162.7000         0.010000   
    778. D(C  47,O  27,Zr  3,O  10)    -33.7985         0.010000   
    779. D(C  47,O  27,Zr  3,O   9)     36.7661         0.010000   
    780. D(C  47,O  27,Zr  3,O   6)     68.7987         0.010000   
    781. D(C  47,O  27,Zr  3,Zr  4)      1.9750         0.010000   
    782. D(C  47,O  27,Zr  3,Zr  0)     56.8107         0.010000   
    783. D(C  47,O  28,Zr  4,O  31)   -172.6317         0.010000   
    784. D(C  47,O  28,Zr  4,O  30)    119.9473         0.010000   
    785. D(C  47,O  28,Zr  4,O  29)   -108.3342         0.010000   
    786. D(C  47,O  28,Zr  4,O  10)     36.9862         0.010000   
    787. D(C  47,O  28,Zr  4,O   9)    -33.4493         0.010000   
    788. D(C  47,O  28,Zr  4,O   7)     65.2277         0.010000   
    789. D(C  47,O  28,Zr  4,Zr  3)      3.6978         0.010000   
    790. D(C  47,O  28,Zr  4,Zr  1)     55.4668         0.010000   
    791. D(C  39,O  29,Zr  4,O  31)   -151.9350         0.010000   
    792. D(C  39,O  29,Zr  4,O  30)    151.1698         0.010000   
    793. D(C  39,O  29,Zr  4,O  28)     82.4921         0.010000   
    794. D(C  39,O  29,Zr  4,O  10)      5.5862         0.010000   
    795. D(C  39,O  29,Zr  4,O   9)     -2.7886         0.010000   
    796. D(C  39,O  29,Zr  4,O   7)    -94.0519         0.010000   
    797. D(C  39,O  29,Zr  4,Zr  3)     10.4425         0.010000   
    798. D(C  39,O  29,Zr  4,Zr  1)    -63.4588         0.010000   
    799. D(C  43,O  30,Zr  4,O  31)    108.9664         0.010000   
    800. D(C  43,O  30,Zr  4,O  29)    162.5258         0.010000   
    801. D(C  43,O  30,Zr  4,O  28)   -124.2081         0.010000   
    802. D(C  43,O  30,Zr  4,O  10)    -36.8840         0.010000   
    803. D(C  43,O  30,Zr  4,O   9)    -68.8530         0.010000   
    804. D(C  43,O  30,Zr  4,O   7)     33.6776         0.010000   
    805. D(C  43,O  30,Zr  4,Zr  3)    -56.8678         0.010000   
    806. D(C  43,O  30,Zr  4,Zr  1)     -2.0678         0.010000   
    807. D(C  45,O  31,Zr  4,O  30)   -124.6924         0.010000   
    808. D(C  45,O  31,Zr  4,O  29)     96.8879         0.010000   
    809. D(C  45,O  31,Zr  4,O  28)    169.3861         0.010000   
    810. D(C  45,O  31,Zr  4,O  10)    -62.3331         0.010000   
    811. D(C  45,O  31,Zr  4,O   9)     53.6717         0.010000   
    812. D(C  45,O  31,Zr  4,O   7)    -34.4241         0.010000   
    813. D(C  45,O  31,Zr  4,Zr  3)      1.8711         0.010000   
    814. D(C  45,O  31,Zr  4,Zr  1)    -55.1307         0.010000   
    815. D(C  46,O  32,Zr  5,O  35)   -169.3861         0.010000   
    816. D(C  46,O  32,Zr  5,O  34)    -96.8879         0.010000   
    817. D(C  46,O  32,Zr  5,O  33)    124.6924         0.010000   
    818. D(C  46,O  32,Zr  5,O  11)     62.3331         0.010000   
    819. D(C  46,O  32,Zr  5,O   8)    -53.6717         0.010000   
    820. D(C  46,O  32,Zr  5,O   6)     34.4241         0.010000   
    821. D(C  46,O  32,Zr  5,Zr  2)     -1.8711         0.010000   
    822. D(C  46,O  32,Zr  5,Zr  0)     55.1307         0.010000   
    823. D(C  36,O  33,Zr  5,O  35)    124.2081         0.010000   
    824. D(C  36,O  33,Zr  5,O  34)   -162.5258         0.010000   
    825. D(C  36,O  33,Zr  5,O  32)   -108.9664         0.010000   
    826. D(C  36,O  33,Zr  5,O  11)     36.8840         0.010000   
    827. D(C  36,O  33,Zr  5,O   8)     68.8530         0.010000   
    828. D(C  36,O  33,Zr  5,O   6)    -33.6777         0.010000   
    829. D(C  36,O  33,Zr  5,Zr  2)     56.8678         0.010000   
    830. D(C  36,O  33,Zr  5,Zr  0)      2.0678         0.010000   
    831. D(C  40,O  34,Zr  5,O  35)    -82.4922         0.010000   
    832. D(C  40,O  34,Zr  5,O  33)   -151.1698         0.010000   
    833. D(C  40,O  34,Zr  5,O  32)    151.9349         0.010000   
    834. D(C  40,O  34,Zr  5,O  11)     -5.5863         0.010000   
    835. D(C  40,O  34,Zr  5,O   8)      2.7886         0.010000   
    836. D(C  40,O  34,Zr  5,O   6)     94.0518         0.010000   
    837. D(C  40,O  34,Zr  5,Zr  2)    -10.4426         0.010000   
    838. D(C  40,O  34,Zr  5,Zr  0)     63.4587         0.010000   
    839. D(C  44,O  35,Zr  5,O  34)    108.3342         0.010000   
    840. D(C  44,O  35,Zr  5,O  33)   -119.9473         0.010000   
    841. D(C  44,O  35,Zr  5,O  32)    172.6317         0.010000   
    842. D(C  44,O  35,Zr  5,O  11)    -36.9862         0.010000   
    843. D(C  44,O  35,Zr  5,O   8)     33.4493         0.010000   
    844. D(C  44,O  35,Zr  5,O   6)    -65.2277         0.010000   
    845. D(C  44,O  35,Zr  5,Zr  2)     -3.6978         0.010000   
    846. D(C  44,O  35,Zr  5,Zr  0)    -55.4668         0.010000   
    847. D(H  58,C  36,O  33,Zr  5)    179.7420         0.062767   
    848. D(O  12,C  36,O  33,Zr  5)     -0.2218         0.062767   
    849. D(H  58,C  36,O  12,Zr  0)    176.2768         0.060773   
    850. D(O  33,C  36,O  12,Zr  0)     -3.7593         0.060773   
    851. D(H  51,C  37,O  25,Zr  3)   -176.3405         0.060854   
    852. D(O  13,C  37,O  25,Zr  3)      3.6613         0.060854   
    853. D(H  51,C  37,O  13,Zr  0)   -179.8160         0.062789   
    854. D(O  25,C  37,O  13,Zr  0)      0.1822         0.062789   
    855. D(H  50,C  38,O  21,Zr  2)    172.5865         0.064637   
    856. D(O  14,C  38,O  21,Zr  2)     -8.4230         0.064637   
    857. D(H  50,C  38,O  14,Zr  0)   -144.8305         0.057817   
    858. D(O  21,C  38,O  14,Zr  0)     36.1734         0.057817   
    859. D(H  54,C  39,O  29,Zr  4)   -144.7517         0.057732   
    860. D(O  15,C  39,O  29,Zr  4)     36.2587         0.057732   
    861. D(H  54,C  39,O  15,Zr  0)    172.6056         0.064661   
    862. D(O  29,C  39,O  15,Zr  0)     -8.4101         0.064661   
    863. D(H  56,C  40,O  34,Zr  5)    144.7518         0.057732   
    864. D(O  16,C  40,O  34,Zr  5)    -36.2586         0.057732   
    865. D(H  56,C  40,O  16,Zr  1)   -172.6055         0.064661   
    866. D(O  34,C  40,O  16,Zr  1)      8.4101         0.064661   
    867. D(H  48,C  41,O  26,Zr  3)   -172.5865         0.064637   
    868. D(O  17,C  41,O  26,Zr  3)      8.4230         0.064637   
    869. D(H  48,C  41,O  17,Zr  1)    144.8305         0.057817   
    870. D(O  26,C  41,O  17,Zr  1)    -36.1734         0.057817   
    871. D(H  49,C  42,O  22,Zr  2)    176.3405         0.060854   
    872. D(O  18,C  42,O  22,Zr  2)     -3.6613         0.060854   
    873. D(H  49,C  42,O  18,Zr  1)    179.8160         0.062789   
    874. D(O  22,C  42,O  18,Zr  1)     -0.1822         0.062789   
    875. D(H  52,C  43,O  30,Zr  4)   -179.7420         0.062767   
    876. D(O  19,C  43,O  30,Zr  4)      0.2218         0.062767   
    877. D(H  52,C  43,O  19,Zr  1)   -176.2768         0.060773   
    878. D(O  30,C  43,O  19,Zr  1)      3.7593         0.060773   
    879. D(H  59,C  44,O  35,Zr  5)   -176.2267         0.060792   
    880. D(O  20,C  44,O  35,Zr  5)      3.8110         0.060792   
    881. D(H  59,C  44,O  20,Zr  2)   -179.8636         0.062758   
    882. D(O  35,C  44,O  20,Zr  2)      0.0986         0.062758   
    883. D(H  55,C  45,O  31,Zr  4)    172.7793         0.064686   
    884. D(O  23,C  45,O  31,Zr  4)     -8.2545         0.064686   
    885. D(H  55,C  45,O  23,Zr  2)   -144.9415         0.057766   
    886. D(O  31,C  45,O  23,Zr  2)     36.0867         0.057766   
    887. D(O  24,C  46,O  32,Zr  5)      8.2545         0.064686   
    888. D(H  57,C  46,O  24,Zr  3)    144.9415         0.057766   
    889. D(O  32,C  46,O  24,Zr  3)    -36.0867         0.057766   
    890. D(H  57,C  46,O  32,Zr  5)   -172.7793         0.064686   
    891. D(H  53,C  47,O  28,Zr  4)    176.2267         0.060792   
    892. D(O  27,C  47,O  28,Zr  4)     -3.8111         0.060792   
    893. D(H  53,C  47,O  27,Zr  3)    179.8636         0.062758   
    894. D(O  28,C  47,O  27,Zr  3)     -0.0986         0.062758   
    -----------------------------------------------------------------

Number of atoms                         .... 60
Number of degrees of freedom            .... 894


         *************************************************************
         *                GEOMETRY OPTIMIZATION CYCLE   1            *
         *************************************************************
---------------------------------
CARTESIAN COORDINATES (ANGSTROEM)
---------------------------------
  Zr    -0.174878    2.060513    1.470508
  Zr     0.174878   -2.060513   -1.470508
  Zr     1.726552   -1.129632    1.478909
  Zr    -1.726551    1.129632   -1.478909
  Zr     1.730565    1.028062   -1.546260
  Zr    -1.730564   -1.028062    1.546261
  O     -1.747013    0.782363    0.566510
  O      1.747013   -0.782363   -0.566510
  O     -0.135161   -1.913140    0.559483
  O      0.135161    1.913140   -0.559483
  O     -0.140530   -0.077862   -1.994284
  O      0.140531    0.077862    1.994284
  O     -1.477437    2.101670    3.256513
  O     -1.649039    3.662964    1.026388
  O      1.531608    2.089721    2.893705
  O      1.199318    3.784138    0.964233
  O     -1.199318   -3.784138   -0.964234
[...]
156:   1541.00   0.000000    0.00  0.000000  ( 0.000000 -0.000000  0.000000)
157:   1550.85   0.001054    5.32  0.000212  ( 0.012171  0.006480  0.004675)
158:   1561.12   0.002884   14.57  0.000576  ( 0.007052  0.004339 -0.022537)
159:   1561.16   0.003001   15.16  0.000600  (-0.012099  0.021272  0.000962)
160:   1567.50   0.000000    0.00  0.000000  (-0.000000  0.000000 -0.000000)
161:   1573.49   0.000000    0.00  0.000000  ( 0.000000 -0.000000  0.000000)
162:   1573.86   0.000000    0.00  0.000000  ( 0.000000  0.000000  0.000000)
163:   1627.68   0.331432  1674.92  0.063543  (-0.148122  0.127058  0.159561)
164:   1627.90   0.331916  1677.37  0.063627  (-0.029112  0.182074 -0.172130)
165:   1633.31   0.271727  1373.20  0.051917  (-0.182143 -0.107622 -0.084607)
166:   1633.77   0.000000    0.00  0.000000  (-0.000007 -0.000005 -0.000004)
167:   1634.11   0.000000    0.00  0.000000  (-0.000007 -0.000002 -0.000004)
168:   2879.73   0.000001    0.00  0.000000  ( 0.000060 -0.000247  0.000070)
169:   2879.76   0.022526  113.84  0.002441  ( 0.012565 -0.045955  0.013088)
170:   2879.96   0.000000    0.00  0.000000  (-0.000006 -0.000000 -0.000005)
171:   2879.98   0.022847  115.46  0.002476  (-0.030757  0.001219  0.039091)
172:   2881.02   0.078881  398.63  0.008544  ( 0.073151  0.041859  0.037960)
173:   2881.83   0.000000    0.00  0.000000  (-0.000005 -0.000004  0.000000)
174:   2896.16   0.000557    2.82  0.000060  (-0.007362 -0.000012  0.002414)
175:   2896.37   0.000000    0.00  0.000000  (-0.000009  0.000027 -0.000010)
176:   2896.48   0.000000    0.00  0.000000  ( 0.000004  0.000003 -0.000005)
177:   2897.04   0.065870  332.88  0.007095  (-0.028799  0.072014 -0.032864)
178:   2897.13   0.065665  331.84  0.007073  (-0.040230  0.016548  0.071978)
179:   2898.52   0.000000    0.00  0.000000  (-0.000007  0.000006  0.000007)

* The epsilon (eps) is given for a Dirac delta lineshape.
** The dipole moment derivative (T) already includes vibrational overlap.

The first frequency considered to be a vibration is 6
The total number of vibrations considered is 174


--------------------------
THERMOCHEMISTRY AT 298.15K
--------------------------

Temperature         ...   298.15 K
Pressure            ...     1.00 atm
Total Mass          ...  1183.52 AMU
Quasi RRHO          ...     True
Cut-Off Frequency   ...     1.00 cm^-1

Throughout the following assumptions are being made:
  (1) The electronic state is orbitally nondegenerate
  (2) There are no thermally accessible electronically excited states
  (3) Hindered rotations indicated by low frequency modes are not
      treated as such but are treated as vibrations and this may
      cause some error
  (4) All equations used are the standard statistical mechanics
      equations for an ideal gas
  (5) All vibrations are strictly harmonic

freq.      43.21  E(vib)   ...       0.53 
freq.      45.85  E(vib)   ...       0.53 
freq.      59.96  E(vib)   ...       0.51 
freq.      62.46  E(vib)   ...       0.51 
freq.      66.40  E(vib)   ...       0.50 
freq.      72.51  E(vib)   ...       0.49 
freq.      80.74  E(vib)   ...       0.48 
freq.      81.45  E(vib)   ...       0.48 
freq.      97.70  E(vib)   ...       0.46 
freq.      98.57  E(vib)   ...       0.46 
freq.      99.33  E(vib)   ...       0.46 
freq.      99.44  E(vib)   ...       0.46 
freq.     105.60  E(vib)   ...       0.45 
freq.     106.10  E(vib)   ...       0.45 
freq.     109.36  E(vib)   ...       0.45 
freq.     109.58  E(vib)   ...       0.45 
freq.     118.28  E(vib)   ...       0.44 
freq.     126.06  E(vib)   ...       0.43 
freq.     130.72  E(vib)   ...       0.43 
freq.     136.95  E(vib)   ...       0.42 
freq.     152.32  E(vib)   ...       0.40 
freq.     152.35  E(vib)   ...       0.40 
freq.     153.24  E(vib)   ...       0.40 
freq.     153.48  E(vib)   ...       0.40 
freq.     158.18  E(vib)   ...       0.39 
freq.     158.74  E(vib)   ...       0.39 
freq.     161.94  E(vib)   ...       0.39 
freq.     162.45  E(vib)   ...       0.39 
freq.     164.90  E(vib)   ...       0.39 
freq.     167.25  E(vib)   ...       0.39 
freq.     171.90  E(vib)   ...       0.38 
freq.     174.71  E(vib)   ...       0.38 
freq.     175.64  E(vib)   ...       0.38 
freq.     188.47  E(vib)   ...       0.36 
freq.     188.96  E(vib)   ...       0.36 
freq.     190.36  E(vib)   ...       0.36 
freq.     193.43  E(vib)   ...       0.36 
freq.     194.65  E(vib)   ...       0.36 
freq.     195.32  E(vib)   ...       0.36 
freq.     207.42  E(vib)   ...       0.34 
freq.     210.58  E(vib)   ...       0.34 
freq.     214.16  E(vib)   ...       0.34 
freq.     214.58  E(vib)   ...       0.34 
freq.     227.78  E(vib)   ...       0.33 
freq.     228.55  E(vib)   ...       0.32 
freq.     234.46  E(vib)   ...       0.32 
freq.     234.89  E(vib)   ...       0.32 
freq.     246.84  E(vib)   ...       0.31 
freq.     263.46  E(vib)   ...       0.29 
freq.     265.51  E(vib)   ...       0.29 
freq.     266.06  E(vib)   ...       0.29 
freq.     267.65  E(vib)   ...       0.29 
freq.     268.12  E(vib)   ...       0.29 
freq.     270.94  E(vib)   ...       0.29 
freq.     273.80  E(vib)   ...       0.28 
freq.     276.56  E(vib)   ...       0.28 
freq.     277.33  E(vib)   ...       0.28 
freq.     277.85  E(vib)   ...       0.28 
freq.     278.73  E(vib)   ...       0.28 
freq.     278.91  E(vib)   ...       0.28 
freq.     287.63  E(vib)   ...       0.27 
freq.     288.08  E(vib)   ...       0.27 
freq.     293.08  E(vib)   ...       0.27 
freq.     293.21  E(vib)   ...       0.27 
freq.     297.56  E(vib)   ...       0.27 
freq.     300.58  E(vib)   ...       0.26 
freq.     308.59  E(vib)   ...       0.26 
freq.     308.98  E(vib)   ...       0.26 
freq.     313.32  E(vib)   ...       0.25 
freq.     314.28  E(vib)   ...       0.25 
freq.     314.52  E(vib)   ...       0.25 
freq.     318.71  E(vib)   ...       0.25 
freq.     320.09  E(vib)   ...       0.25 
freq.     320.28  E(vib)   ...       0.25 
freq.     327.01  E(vib)   ...       0.24 
freq.     327.47  E(vib)   ...       0.24 
freq.     327.99  E(vib)   ...       0.24 
freq.     343.49  E(vib)   ...       0.23 
freq.     343.98  E(vib)   ...       0.23 
freq.     354.97  E(vib)   ...       0.22 
freq.     355.17  E(vib)   ...       0.22 
freq.     369.80  E(vib)   ...       0.21 
freq.     372.56  E(vib)   ...       0.21 
freq.     391.24  E(vib)   ...       0.20 
freq.     396.49  E(vib)   ...       0.20 
freq.     405.40  E(vib)   ...       0.19 
freq.     407.17  E(vib)   ...       0.19 
freq.     407.59  E(vib)   ...       0.19 
freq.     422.40  E(vib)   ...       0.18 
freq.     422.83  E(vib)   ...       0.18 
freq.     425.83  E(vib)   ...       0.18 
freq.     426.52  E(vib)   ...       0.18 
freq.     478.65  E(vib)   ...       0.15 
freq.     482.05  E(vib)   ...       0.15 
freq.     482.45  E(vib)   ...       0.15 
freq.     534.67  E(vib)   ...       0.13 
freq.     543.29  E(vib)   ...       0.12 
freq.     626.74  E(vib)   ...       0.09 
freq.     679.04  E(vib)   ...       0.08 
freq.     679.62  E(vib)   ...       0.08 
freq.     687.51  E(vib)   ...       0.07 
freq.     688.49  E(vib)   ...       0.07 
freq.     736.28  E(vib)   ...       0.06 
freq.     736.42  E(vib)   ...       0.06 
freq.     736.67  E(vib)   ...       0.06 
freq.     736.75  E(vib)   ...       0.06 
freq.     737.10  E(vib)   ...       0.06 
freq.     738.92  E(vib)   ...       0.06 
freq.     739.39  E(vib)   ...       0.06 
freq.     739.64  E(vib)   ...       0.06 
freq.     740.19  E(vib)   ...       0.06 
freq.     740.31  E(vib)   ...       0.06 
freq.     741.53  E(vib)   ...       0.06 
freq.     741.79  E(vib)   ...       0.06 
freq.    1002.65  E(vib)   ...       0.02 
freq.    1002.68  E(vib)   ...       0.02 
freq.    1003.03  E(vib)   ...       0.02 
freq.    1003.05  E(vib)   ...       0.02 
freq.    1004.54  E(vib)   ...       0.02 
freq.    1004.62  E(vib)   ...       0.02 
freq.    1006.93  E(vib)   ...       0.02 
freq.    1007.10  E(vib)   ...       0.02 
freq.    1007.33  E(vib)   ...       0.02 
freq.    1007.79  E(vib)   ...       0.02 
freq.    1007.95  E(vib)   ...       0.02 
freq.    1008.23  E(vib)   ...       0.02 
freq.    1346.78  E(vib)   ...       0.01 
freq.    1346.80  E(vib)   ...       0.01 
freq.    1347.12  E(vib)   ...       0.01 
freq.    1347.14  E(vib)   ...       0.01 
freq.    1347.58  E(vib)   ...       0.01 
freq.    1347.83  E(vib)   ...       0.01 
freq.    1353.92  E(vib)   ...       0.01 
freq.    1354.44  E(vib)   ...       0.01 
freq.    1354.65  E(vib)   ...       0.01 
freq.    1355.63  E(vib)   ...       0.01 
freq.    1355.82  E(vib)   ...       0.01 
freq.    1356.44  E(vib)   ...       0.01 
freq.    1361.83  E(vib)   ...       0.01 
freq.    1361.93  E(vib)   ...       0.01 
freq.    1361.98  E(vib)   ...       0.01 
freq.    1362.08  E(vib)   ...       0.01 
freq.    1363.88  E(vib)   ...       0.01 
freq.    1364.29  E(vib)   ...       0.01 
freq.    1365.24  E(vib)   ...       0.01 
freq.    1366.88  E(vib)   ...       0.01 
freq.    1367.05  E(vib)   ...       0.01 
freq.    1370.93  E(vib)   ...       0.01 
freq.    1371.21  E(vib)   ...       0.01 
freq.    1379.17  E(vib)   ...       0.01 
freq.    1541.00  E(vib)   ...       0.00 
freq.    1550.85  E(vib)   ...       0.00 
freq.    1561.12  E(vib)   ...       0.00 
freq.    1561.16  E(vib)   ...       0.00 
freq.    1567.50  E(vib)   ...       0.00 
freq.    1573.49  E(vib)   ...       0.00 
freq.    1573.86  E(vib)   ...       0.00 
freq.    1627.68  E(vib)   ...       0.00 
freq.    1627.90  E(vib)   ...       0.00 
freq.    1633.31  E(vib)   ...       0.00 
freq.    1633.77  E(vib)   ...       0.00 
freq.    1634.11  E(vib)   ...       0.00 
freq.    2879.73  E(vib)   ...       0.00 
freq.    2879.76  E(vib)   ...       0.00 
freq.    2879.96  E(vib)   ...       0.00 
freq.    2879.98  E(vib)   ...       0.00 
freq.    2881.02  E(vib)   ...       0.00 
freq.    2881.83  E(vib)   ...       0.00 
freq.    2896.16  E(vib)   ...       0.00 
freq.    2896.37  E(vib)   ...       0.00 
freq.    2896.48  E(vib)   ...       0.00 
freq.    2897.04  E(vib)   ...       0.00 
freq.    2897.13  E(vib)   ...       0.00 
freq.    2898.52  E(vib)   ...       0.00 

------------
INNER ENERGY
------------

The inner energy is: U= E(el) + E(ZPE) + E(vib) + E(rot) + E(trans)
    E(el)   - is the total energy from the electronic structure calculation
              = E(kin-el) + E(nuc-el) + E(el-el) + E(nuc-nuc)
    E(ZPE)  - the the zero temperature vibrational energy from the frequency calculation
    E(vib)  - the the finite temperature correction to E(ZPE) due to population
              of excited vibrational states
    E(rot)  - is the rotational thermal energy
    E(trans)- is the translational thermal energy

Summary of contributions to the inner energy U:
Electronic energy                ...  -3000.56078426 Eh
Zero point energy                ...      0.30680844 Eh     192.52 kcal/mol
Thermal vibrational correction   ...      0.05208682 Eh      32.68 kcal/mol
Thermal rotational correction    ...      0.00141627 Eh       0.89 kcal/mol
Thermal translational correction ...      0.00141627 Eh       0.89 kcal/mol
-----------------------------------------------------------------------
Total thermal energy                  -3000.19905645 Eh


Summary of corrections to the electronic energy:
(perhaps to be used in another calculation)
Total thermal correction                  0.05491936 Eh      34.46 kcal/mol
Non-thermal (ZPE) correction              0.30680844 Eh     192.52 kcal/mol
-----------------------------------------------------------------------
Total correction                          0.36172780 Eh     226.99 kcal/mol


--------
ENTHALPY
--------

The enthalpy is H = U + kB*T
                kB is Boltzmann's constant
Total thermal energy              ...  -3000.19905645 Eh 
Thermal Enthalpy correction       ...      0.00094421 Eh       0.59 kcal/mol
-----------------------------------------------------------------------
Total Enthalpy                    ...  -3000.19811224 Eh


Note: Rotational entropy computed according to Herzberg 
Infrared and Raman Spectra, Chapter V,1, Van Nostrand Reinhold, 1945 
Point Group:  Ci, Symmetry Number:   1  
Rotational constants in cm-1:     0.001886     0.001886     0.001793 

Vibrational entropy computed according to the QRRHO of S. Grimme
Chem.Eur.J. 2012 18 9955 using a reference frequency of 100.0 cm-1


-------
ENTROPY
-------

The entropy contributions are T*S = T*(S(el)+S(vib)+S(rot)+S(trans))
     S(el)   - electronic entropy
     S(vib)  - vibrational entropy
     S(rot)  - rotational entropy
     S(trans)- translational entropy
The entropies will be listed as multiplied by the temperature to get
units of energy

Electronic entropy                ...      0.00000000 Eh      0.00 kcal/mol
Vibrational entropy               ...      0.09260218 Eh     58.11 kcal/mol
Rotational entropy                ...      0.01841958 Eh     11.56 kcal/mol
Translational entropy             ...      0.02237096 Eh     14.04 kcal/mol
-----------------------------------------------------------------------
Final entropy term                ...      0.13339272 Eh     83.71 kcal/mol

In case the symmetry of your molecule has not been determined correctly
or in case you have a reason to use a different symmetry number we print 
out the resulting rotational entropy values for sn=1,12:

 non-linear molecules -----------------------------------
|  sn= 1 | S(rot)=       0.01841958 Eh     11.56 kcal/mol|
|  sn= 2 | S(rot)=       0.01776512 Eh     11.15 kcal/mol|
|  sn= 3 | S(rot)=       0.01738229 Eh     10.91 kcal/mol|
|  sn= 4 | S(rot)=       0.01711067 Eh     10.74 kcal/mol|
|  sn= 5 | S(rot)=       0.01689998 Eh     10.60 kcal/mol|
|  sn= 6 | S(rot)=       0.01672783 Eh     10.50 kcal/mol|
|  sn= 7 | S(rot)=       0.01658229 Eh     10.41 kcal/mol|
|  sn= 8 | S(rot)=       0.01645621 Eh     10.33 kcal/mol|
|  sn= 9 | S(rot)=       0.01634500 Eh     10.26 kcal/mol|
|  sn=10 | S(rot)=       0.01624552 Eh     10.19 kcal/mol|
|  sn=11 | S(rot)=       0.01615553 Eh     10.14 kcal/mol|
|  sn=12 | S(rot)=       0.01607338 Eh     10.09 kcal/mol|
 linear molecules ---------------------------------------
|  Dinfh | S(rot)=       0.01129690 Eh      7.09 kcal/mol|
|  Cinfv | S(rot)=       0.01195135 Eh      7.50 kcal/mol|
 --------------------------------------------------------


-------------------
GIBBS FREE ENERGY
-------------------

The Gibbs free energy is G = H - T*S

Total enthalpy                    ...  -3000.19811224 Eh 
Total entropy correction          ...     -0.13339272 Eh    -83.71 kcal/mol
-----------------------------------------------------------------------
Final Gibbs free energy         ...  -3000.33150496 Eh

For completeness - the Gibbs free energy minus the electronic energy
G-E(el)                           ...      0.22927930 Eh    143.87 kcal/mol


Maximum memory used throughout the entire PROP-calculation: 109.4 MB

--------------------------------
SUGGESTED CITATIONS FOR THIS RUN
--------------------------------

Below you find a list of papers that are relevant to this ORCA run
We neither can nor want to force you to cite these papers, but we appreciate if you do
You receive ORCA, which is the product of decades of hard work by many enthusiastic individuals, for free
The only thing we kindly ask in return is that you cite our papers,
We deeply appreciate it, if you show your appreciation for ORCA by not just citing the generic ORCA reference.

Please note that relegating all ORCA citations to the supporting information does *not* help us.
SI sections are not indexed - citations you put there will not count into any citation statistics
But we need these citations in order to attract the funding resources that allow us to do what we are doing

Therefore, if you are a happy ORCA user, please consider citing a few of the papers listed below in the main body of your paper

In addition to the list printed below, the program has created the file run.bibtex that contains the list in bibtex format
You can import this file easily into all common literature databanks and citation aid programs


List of essential papers. We consider these as the minimum necessary citations

  1. Neese, F.
     Software update: the ORCA program system, version 6.0
     WIRES Comput. Molec. Sci. 2025 15(1), e70019
     doi.org/10.1002/wcms.7019

List of papers to cite with high priority. The work reported in these papers was absolutely
necessary for this run to complete.
Our perspective: the developers of density functionals and basis sets usually get cited in chemistry papers
Good! But without the algorithms to do something with them, the functionals or basis sets would not do anything.
Hence, in our opinion, the algorithm design and method developments papers are equally worthy of getting cited

  1. Neese, F.
     An improvement of the resolution of the identity approximation for the formation of the Coulomb matrix
     J. Comp. Chem. 2003 24(14), 1740-1747
     doi.org/10.1002/jcc.10318
  2. Grimme, S.; Antony, J.; Ehrlich, S.; Krieg, H.
     A consistent and accurate ab initio parametrization of density functional dispersion correction (DFT-D) for the 94 elements H-Pu
     J. Chem. Phys. 2010 132 , 154104
     doi.org/10.1063/1.3382344
  3. Grimme, S.; Ehrlich, S.; Goerigk, L.
     Effect of the damping function in dispersion corrected density functional theory
     J. Comput. Chem. 2011 32(7), 1456-1465
     doi.org/10.1002/jcc.21759
  4. Bykov, D.; Petrenko, T.; Izsak, R.; Kossmann, S.; Becker, U.; Valeev, E.; Neese, F.
     Efficient implementation of the analytic second derivatives of Hartree-Fock and hybrid DFT energies: a detailed analysis of different approximations
     Molec. Phys. 2015 113 , 1961-1977
     doi.org/10.1080/00268976.2015.1025114
  5. Neese, F.
     The SHARK Integral Generation and Digestion System
     J. Comp. Chem. 2022 44(3), 381
     doi.org/10.1002/jcc.26942

List of suggested additional citations. These are papers that are important in the 'surrounding' of 
of this run, or papers that preceded the highly important papers. If you like your results we are grateful for a citation.

  1. Neese, F.
     The ORCA program system
     WIRES Comput. Molec. Sci. 2012 2(1), 73-78
     doi.org/10.1002/wcms.81
  2. Neese, F.
     Software update: the ORCA program system, version 4.0
     WIRES Comput. Molec. Sci. 2018 8(1), 1-6
     doi.org/10.1002/wcms.1327
  3. Neese, F.; Wennmohs, F.; Becker, U.; Riplinger, C.
     The ORCA quantum chemistry program package
     J. Chem. Phys. 2020 152(22), 224108
     doi.org/10.1063/5.0004608
  4. Neese, F.
     Software update: The ORCA program system—Version 5.0
     WIRES Comput. Molec. Sci. 2022 12(1), e1606
     doi.org/10.1002/wcms.1606

List of optional additional citations

  1. Neese, F.
     Approximate second-order SCF convergence for spin unrestricted wavefunctions
     Chem. Phys. Lett. 2000 325(1-3), 93-98
     doi.org/10.1016/s0009-2614(00)00662-x

Timings for individual modules:

Sum of individual times          ...      900.965 sec (=  15.016 min)
Startup calculation              ...       43.098 sec (=   0.718 min)   4.8 %
SCF iterations                   ...      123.791 sec (=   2.063 min)  13.7 %
Property integrals               ...      388.561 sec (=   6.476 min)  43.1 %
SCF Response                     ...      223.175 sec (=   3.720 min)  24.8 %
Property calculations            ...       93.805 sec (=   1.563 min)  10.4 %
SCF Gradient evaluation          ...       27.654 sec (=   0.461 min)   3.1 %
Geometry relaxation              ...        0.881 sec (=   0.015 min)   0.1 %
                             ****ORCA TERMINATED NORMALLY****
TOTAL RUN TIME: 0 days 0 hours 15 minutes 26 seconds 39 msec
