
                                 *****************
                                 * O   R   C   A *
                                 *****************

                                            #,                                       
                                            ###                                      
                                            ####                                     
                                            #####                                    
                                            ######                                   
                                           ########,                                 
                                     ,,################,,,,,                         
                               ,,#################################,,                 
                          ,,##########################################,,             
                       ,#########################################, ''#####,          
                    ,#############################################,,   '####,        
                  ,##################################################,,,,####,       
                ,###########''''           ''''###############################       
              ,#####''   ,,,,##########,,,,          '''####'''          '####       
            ,##' ,,,,###########################,,,                        '##       
           ' ,,###''''                  '''############,,,                           
         ,,##''                                '''############,,,,        ,,,,,,###''
      ,#''                                            '''#######################'''  
     '                                                          ''''####''''         
             ,#######,   #######,   ,#######,      ##                                
            ,#'     '#,  ##    ##  ,#'     '#,    #''#        ,####,    ,#,          
            ##       ##  ##   ,#'  ##            #'  '#       #'       ,# #          
            ##       ##  #######   ##           ,######,      #####,      #          
            '#,     ,#'  ##    ##  '#,     ,#' ,#      #,     #,   #      #          
             '#######'   ##     ##  '#######'  #'      '#     '####' #    #          



                #########################################################
                #                        -***-                          #
                #          Department of theory and spectroscopy        #
                #                                                       #
                #                      Frank Neese                      #
                #                                                       #
                #     Directorship, Architecture, Infrastructure        #
                #                    SHARK, DRIVERS                     #
                #        Core code/Algorithms in most modules           #
                #                                                       #
                #        Max Planck Institute fuer Kohlenforschung      #
                #                Kaiser Wilhelm Platz 1                 #
                #                 D-45470 Muelheim/Ruhr                 #
                #                      Germany                          #
                #                                                       #
                #                  All rights reserved                  #
                #                        -***-                          #
                #########################################################


                         Program Version 6.1.0  -  RELEASE   -
                                (GIT: $679e74b$)
                          ($2025-06-10 18:02:51 +0200$)


 With contributions from (in alphabetic order):
[Max-Planck-Institut fuer Kohlenforschung]                               
  Daniel Aravena         : Magnetic Suceptibility                        
  Michael Atanasov       : Ab Initio Ligand Field Theory (pilot matlab implementation)
  Alexander A. Auer      : GIAO ZORA, VPT2 properties, NMR spectrum      
  Ute Becker             : All parallelization in ORCA, NUMFREQ, NUMCALC 
  Giovanni Bistoni       : ED, misc. LED, open-shell LED, HFLD           
  Dmytro Bykov           : pre 5.0 version of the SCF Hessian            
  Marcos Casanova-Páez   : Triplet and SCS-CIS(D). UHF-(DLPNO)-IP/EA/STEOM-CCSD. UHF-CVS-IP/STEOM-CCSD   
  Vijay G. Chilkuri      : MRCI spin determinant printing, contributions to CSF-ICE 
  Pauline Colinet        : FMM embedding                                 
  Dipayan Datta          : RHF DLPNO-CCSD density                        
  Achintya Kumar Dutta   : EOM-CC, STEOM-CC                              
  Nicolas Foglia         : Exact transition moments, OPA infrastructure, MCD improvements    
  Dmitry Ganyushin       : Spin-Orbit,Spin-Spin,Magnetic field MRCI      
  Miquel Garcia-Rates    : C-PCM and meta-GGA Hessian, CCSD/C-PCM, Gaussian charge scheme 
  Tiago L. C. Gouveia    : GS-ROHF, GS-ROCIS                             
  Yang Guo               : DLPNO-NEVPT2, F12-NEVPT2, CIM, IAO-localization        
  Andreas Hansen         : Spin unrestricted coupled pair/coupled cluster methods 
  Ingolf Harden          : AUTO-CI MPn and infrastructure                
  Benjamin Helmich-Paris : MC-RPA, TRAH-(SCF,CASSCF), AVAS, COSX integrals, SCF dyn. polar., MC-PDFT, srDFT 
  Lee Huntington         : MR-EOM, pCC                                   
  Robert Izsak           : Overlap fitted RIJCOSX, COSX-SCS-MP3, EOM     
  Riya Kayal             : Wick's Theorem for AUTO-CI, AUTO-CI UHF-CCSDT 
  Emily Kempfer          : AUTO-CI RHF CISDT and CCSDT, approximate NEVPT4
  Christian Kollmar      : KDIIS, OOCD, Brueckner-CCSD(T), CCSD density, CASPT2, CASPT2-K, improved NEVPT2 
  Axel Koslowski         : Symmetry handling                             
  Simone Kossmann        : meta-GGA functionals, TD-DFT gradient, OOMP2, (MP2 Hessian; deprecated post 5.0) 
  Lucas Lang             : DCDCAS, Hyperfine gauge corrections, ICE-SOC+SSC
  Marvin Lechner         : AUTO-CI (C++ implementation), FIC-MRCC        
  Spencer Leger          : CASSCF response                               
  Dagmar Lenk            : GEPOL surface, SMD, ORCA-2-JSON               
  Dimitrios Liakos       : Extrapolation schemes; Compound Job, Property file
  Dimitrios Manganas     : Further ROCIS development; embedding schemes. LFT, Crystal Embedding 
  Dimitrios Pantazis     : SARC Basis sets                               
  Anastasios Papadopoulos: AUTO-CI, single reference methods and gradients 
  Taras Petrenko         : pre 6.0 DFT Hessian and TD-DFT gradient,  ECA, NRVS 
  Petra Pikulova         : Analytic Raman intensities                    
  Peter Pinski           : DLPNO-MP2, DLPNO-MP2 Gradient                 
  Shashank Vittal Rao    : ES-AILFT, MagRelax                            
  Christoph Reimann      : Effective Core Potentials                     
  Marius Retegan         : Local ZFS, SOC                                
  Christoph Riplinger    : Optimizer, TS searches, QM/MM, DLPNO-CCSD(T), (RO)-DLPNO pert. Triples 
  Michael Roemelt        : Original ROCIS implementation, recursive CI coupling coefficients
  Masaaki Saitow         : Open-shell DLPNO-CCSD energy and density      
  Barbara Sandhoefer     : DKH picture change effects                    
  Yorick L. A. Schmerwitz: GMF and freeze-and-release deltaSCF, NEB S-IDPP initial path                    
  Kantharuban Sivalingam : CASSCF convergence/infrastructure, NEVPT2, NEVPT3, NEVPT4(SD), FIC-MRCI and CEPA variants
  Bernardo de Souza      : ESD, SOC TD-DFT                               
  Georgi L. Stoychev     : AutoAux, RI-MP2 NMR, DLPNO-MP2 response, X2C  
  Van Anh Tran           : RI-MP2 g-tensors                              
  Willem Van den Heuvel  : Paramagnetic NMR                              
  Zikuan Wang            : NOTCH, Electric field optimization            
  Frank Wennmohs         : Technical directorship and infrastructure     
  Hang Xu                : AUTO-CI-Response properties                   
                                                                         
[FACCTs GmbH]                                                            
  Markus Bursch, Nicolas Foglia, Miquel Garcia-Rates, Ingolf Harden, Hagen Neugebauer, Anastasios Papadopoulos, 
  Christoph Riplinger, Bernardo de Souza, Georgi L. Stoychev                                                    
                                                                 
  APM, various basis sets, CI-OPT, improved COSX, DLPNO-Multilevel,           
  DOCKER, DRACO, updates on ESD, Fragmentator, GOAT, IRC, LR-CPCM, L-BFGS, MBIS, meta-GGA TD-DFT gradient, ML-optimized integration grids, 
  MM, NACMEs, nearIR, NEB, NEB-TS, NL-DFT gradient (VV10), 2- and 3-layer-ONIOM, interface openCOSMO-RS, QMMM,   
  Crystal-QMMM, RESP, rigid body optimization, SF, symmetry and pop. for TD-DFT, various functionals, SOLVATOR                                   
                                                                         
[Other institutions]                                                     
  V. Asgeirsson          : NEB                                           
  Christoph Bannwarth    : sTDA-DFT, sTD-DFT, PBEh-3c, B97-3c, D3        
  Giovanni Bistoni       : ETS/NOCV, ADLD/ADEX, COVALED                  
  Martin Brehm           : Molecular dynamics                            
  Ronald Cardenas        : ETS/NOCV                                      
  Martina Colucci        : COVALED                                       
  Sebastian Ehlert       : rSCAN, r2SCAN, r2SCAN-3c, D4, dhf basis sets  
  Marvin Friede          : D4 for Fr, Ra, Ac-Lr                          
  Lars Goerigk           : TD-DFT with DH, B97 family of functionals     
  Stefan Grimme          : VdW corrections, initial TS optimization, DFT functionals, gCP, sTDA/sTD-DF 
  Waldemar Hujo          : DFT-NL                                        
  H. Jonsson             : NEB                                           
  Holger Kruse           : gCP                                           
  Marcel Mueller         : wB97X-3c, vDZP basis set                      
  Hagen Neugebauer       : wr2SCAN, Native XTB                           
  Gianluca Regni         : ADLD/ADEX                                     
  Tobias Risthaus        : pre 6.0 range-separated hybrid DFT and stability analysis
  Lukas Wittmann         : regularized MP2, r2SCAN double-hybrids, wr2SCAN        
                                                                         
We gratefully acknowledge several colleagues who have allowed us to      
interface, adapt or use parts of their codes:                            
  Ed Valeev, F. Pavosevic, A. Kumar             : LibInt (2-el integral package), F12 methods 
  Garnet Chan, S. Sharma, J. Yang, R. Olivares  : DMRG                   
  Ulf Ekstrom                                   : XCFun DFT Library      
  Mihaly Kallay                                 : mrcc  (arbitrary order and MRCC methods)
  Frank Weinhold                                : gennbo (NPA and NBO analysis)           
  Simon Mueller                                 : openCOSMO-RS                            
  Christopher J. Cramer and Donald G. Truhlar   : smd solvation model                     
  S Lehtola, MJT Oliveira, MAL Marques          : LibXC Library                           
  Liviu Ungur et al                             : ANISO software                          


 Your calculation uses the libint2 library for the computation of 2-el integrals
 For citations please refer to: http://libint.valeyev.net

 Your ORCA version has been built with support for libXC version: 7.0.0
 For citations please refer to: https://libxc.gitlab.io

 This ORCA versions uses:
   CBLAS   interface :  Fast vector & matrix operations
   LAPACKE interface :  Fast linear algebra routines
   SCALAPACK package :  Parallel linear algebra routines
   Shared memory     :  Shared parallel matrices
   BLAS/LAPACK       :  OpenBLAS 0.3.29  USE64BITINT DYNAMIC_ARCH NO_AFFINITY Prescott SINGLE_THREADED
        Core in use  :  Prescott
   Copyright (c) 2011-2014, The OpenBLAS Project


  ***********************************
  * Starting time: Mon Aug 18 17:40:19 2025
  * Host name:     cuda5
  * Process ID:    320385
  * Working dir.:  /local/scratch/mehlhorn/62150
  ***********************************



***************************************
The coordinates will be read from file: start.xyz
***************************************


Your calculation utilizes the geometrical counterpoise correction gCP
Please cite in your paper:
H.Kruse, S. Grimme J.Chem.Phys., 136, (2012), 154101 
   

Your calculation utilizes the atom-pairwise dispersion correction
with the Becke-Johnson damping scheme (D3BJ)


Warning: RI is on but no J-basis has been assigned. Assigning Def2/J (nothing to worry about!)
================================================================================

cite the ECPs for Zr [Def2-ECP] as follows:
Ce-Yb(ecp-28): M. Dolg, H. Stoll, H.Preuss, J. Chem. Phys., 1989, 90, 1730-1734.
Y-Cd(ecp-28), Hf-Hg(ecp-46): D. Andrae,U. Haeussermann, M. Dolg, H. Stoll, H. Preuss, Theor. Chim. Acta, 1990, 77, 123-141.
In-Sb(ecp-28), Tl-Bi(ecp-46): B. Metz, H. Stoll, M. Dolg, J. Chem. Phys., 2000, 113, 2563-2569.
Te-Xe(ecp-28), Po-Rn(ecp-46): K. A. Peterson, D. Figgen, E. Goll, H. Stoll, M. Dolg, J. Chem. Phys., 2003, 119, 11113-11123.
Rb(ecp-28), Cs(ecp-46): T. Leininger, A. Nicklass, W. Kuechle, H. Stoll, M. Dolg, A. Bergner, Chem. Phys. Lett., 1996, 255, 274-280.
Sr(ecp-28), Ba(ecp-46): M. Kaupp, P. V. Schleyer, H. Stoll and H. Preuss, J. Chem. Phys., 1991, 94, 1360-1366.
La(ecp-46): M. Dolg, H. Stoll, A. Savin, H. Preuss, Theor. Chim. Acta, 1989, 75, 173-194.
Lu(ecp-28): X. Cao, M. Dolg, J. Chem. Phys., 2001, 115, 7348-7355.

ECP parameters for Zr [Def2-ECP] have been obtained from:
TURBOMOLE (7.0.2)

----- Orbital basis set information -----
Your calculation utilizes the basis: def2-SV(P)
   F. Weigend and R. Ahlrichs, Phys. Chem. Chem. Phys. 7, 3297 (2005).

----- AuxJ basis set information -----
Your calculation utilizes the auxiliary basis: def2/J
   H-Rn: F. Weigend, Phys. Chem. Chem. Phys. 8, 1057 (2006).
   Fr-Lr: K. Eichkorn, F. Weigend, O. Treutler, R. Ahlrichs; Theor. Chem. Acc. 97, 119 (1997).

================================================================================
                                        WARNINGS
                       Please study these warnings very carefully!
================================================================================


WARNING: Geometry Optimization
  ===> : Switching off AutoStart
         For restart on a previous wavefunction, please use MOREAD

================================================================================
                                       INPUT FILE
================================================================================
NAME = run_pre.inp
|  1> # Geometry optimization for (AlH3)n cluster
|  2> 
|  3> %pal nprocs 24  end
|  4> 
|  5> %geom MaxIter 500 end
|  6> 
|  7> 
|  8> ! PBE def2-SV(P)
|  9> ! RKS	# closed shell for AlH3
| 10> ! D3    #  dispersion correction
| 11> ! gCP(DFT/SV(P))
| 12> 
| 13> ! NoPop # population analysis not necessary	
| 14> 
| 15> ! DEFGRID3
| 16> ! TightSCF
| 17> ! NormalOpt
| 18> 
| 19> ! SmallPrint
| 20> 
| 21> 
| 22> * xyzFile 0 1 start.xyz # only maingroup elements H and Al so there should be no net spin
| 23> 
| 24>                          ****END OF INPUT****
================================================================================

                       *****************************
                       * Geometry Optimization Run *
                       *****************************

Geometry optimization settings:
Update method            Update   .... BFGS
Choice of coordinates    CoordSys .... (2022) Redundant Internals
Initial Hessian          InHess   .... Almloef's Model
Max. no of cycles        MaxIter  .... 500

Convergence Tolerances:
Energy Change            TolE     ....  5.0000e-06 Eh
Max. Gradient            TolMAXG  ....  3.0000e-04 Eh/bohr
RMS Gradient             TolRMSG  ....  1.0000e-04 Eh/bohr
Max. Displacement        TolMAXD  ....  4.0000e-03 bohr
RMS Displacement         TolRMSD  ....  2.0000e-03 bohr
Strict Convergence                .... False

------------------------------------------------------------------------------
                        ORCA OPTIMIZATION COORDINATE SETUP
------------------------------------------------------------------------------

The optimization will be done in redundant internal coordinates (2022)
Making redundant internal coordinates   ...  (2022 redundants) done
Evaluating the initial hessian          ...  (Almloef) done
Evaluating the coordinates              ...  done
Calculating the B-matrix                .... done
Calculating the G-matrix                .... done
The number of degrees of freedom        ....  739

    -----------------------------------------------------------------
                    Redundant Internal Coordinates


    -----------------------------------------------------------------
         Definition                    Initial Value    Approx d2E/dq
    -----------------------------------------------------------------
      1. B(Zr  2,Zr  1)                  3.4619         0.031650   
      2. B(Zr  3,Zr  0)                  3.4931         0.028229   
      3. B(Zr  4,Zr  1)                  3.4711         0.030604   
      4. B(Zr  4,Zr  3)                  3.4918         0.028355   
      5. B(Zr  5,Zr  2)                  3.4588         0.032013   
      6. B(Zr  5,Zr  0)                  3.4652         0.031272   
      7. B(O   6,Zr  0)                  2.2348         0.254202   
      8. B(O   6,Zr  3)                  2.0881         0.435814   
      9. B(O   6,Zr  5)                  2.0721         0.462142   
     10. B(O   7,Zr  4)                  2.0853         0.440323   
     11. B(O   7,Zr  1)                  2.2082         0.280313   
     12. B(O   7,Zr  2)                  2.0934         0.427387   
     13. B(O   8,Zr  5)                  2.1056         0.408578   
     14. B(O   8,Zr  2)                  2.2331         0.255786   
     15. B(O   8,Zr  1)                  2.0813         0.446702   
     16. B(O   9,Zr  4)                  2.0629         0.477973   
     17. B(O   9,Zr  3)                  2.2304         0.258367   
     18. B(O   9,Zr  0)                  2.0780         0.452247   
     19. B(O  10,Zr  4)                  2.2948         0.203944   
     20. B(O  10,Zr  3)                  2.0653         0.473836   
     21. B(O  10,Zr  1)                  2.0419         0.516260   
     22. B(O  11,Zr  5)                  2.2041         0.284525   
     23. B(O  11,Zr  2)                  2.0719         0.462448   
     24. B(O  11,Zr  0)                  2.0884         0.435290   
     25. B(O  12,Zr  0)                  2.2144         0.273990   
     26. B(O  13,Zr  0)                  2.2340         0.254910   
     27. B(O  14,Zr  0)                  2.2338         0.255092   
     28. B(O  15,Zr  0)                  2.2516         0.238945   
     29. B(O  16,Zr  1)                  2.1962         0.292964   
     30. B(O  17,Zr  1)                  2.5910         0.068690   
     31. B(O  18,Zr  1)                  2.2083         0.280197   
     32. B(O  19,Zr  1)                  2.2436         0.246126   
     33. B(O  20,Zr  2)                  2.2272         0.261362   
     34. B(O  21,Zr  2)                  2.2653         0.227284   
     35. B(O  22,Zr  2)                  2.2266         0.262002   
     36. B(O  23,Zr  2)                  2.2402         0.249167   
     37. B(O  24,Zr  3)                  2.2148         0.273562   
     38. B(O  25,Zr  3)                  2.2134         0.275013   
     39. B(O  26,Zr  3)                  2.3130         0.190699   
     40. B(O  27,Zr  3)                  2.2237         0.264775   
     41. B(O  28,Zr  4)                  2.2237         0.264749   
     42. B(O  29,Zr  4)                  2.2458         0.244097   
     43. B(O  30,Zr  4)                  2.2155         0.272886   
     44. B(O  31,Zr  4)                  2.2378         0.251417   
     45. B(O  32,Zr  5)                  2.2804         0.214953   
     46. B(O  33,Zr  5)                  2.2291         0.259578   
     47. B(O  34,Zr  5)                  2.2619         0.230134   
     48. B(O  35,Zr  5)                  2.2186         0.269780   
     49. B(C  36,O  33)                  1.2671         0.878784   
     50. B(C  36,O  12)                  1.2716         0.864500   
     51. B(C  37,O  25)                  1.2715         0.864817   
     52. B(C  37,O  13)                  1.2668         0.879768   
     53. B(C  38,O  21)                  1.2657         0.883497   
     54. B(C  38,O  14)                  1.2746         0.854958   
     55. B(C  39,O  29)                  1.2718         0.863752   
     56. B(C  39,O  15)                  1.2686         0.874174   
     57. B(C  40,O  34)                  1.2590         0.905602   
     58. B(C  40,O  16)                  1.2820         0.832033   
     59. B(C  41,O  26)                  1.2520         0.929168   
     60. B(C  41,O  17)                  1.2938         0.796714   
     61. B(C  42,O  22)                  1.2667         0.880217   
     62. B(C  42,O  18)                  1.2711         0.866151   
     63. B(C  43,O  19)                  1.2684         0.874701   
     64. B(C  43,O  30)                  1.2692         0.872040   
     65. B(C  44,O  35)                  1.2700         0.869587   
     66. B(C  44,O  20)                  1.2684         0.874595   
     67. B(C  45,O  31)                  1.2692         0.872320   
     68. B(C  45,O  23)                  1.2695         0.871270   
     69. B(C  46,O  32)                  1.2628         0.892959   
     70. B(C  46,O  24)                  1.2779         0.844776   
     71. B(C  47,O  28)                  1.2682         0.875431   
     72. B(C  47,O  27)                  1.2693         0.871871   
     73. B(H  48,C  41)                  1.1289         0.312162   
     74. B(H  49,C  42)                  1.1268         0.314609   
     75. B(H  50,C  38)                  1.1287         0.312322   
     76. B(H  51,C  37)                  1.1271         0.314178   
     77. B(H  52,C  43)                  1.1264         0.315013   
     78. B(H  53,C  47)                  1.1272         0.314094   
     79. B(H  54,C  39)                  1.1282         0.312964   
     80. B(H  55,C  45)                  1.1285         0.312643   
     81. B(H  56,C  40)                  1.1253         0.316268   
     82. B(H  57,C  46)                  1.1282         0.312980   
     83. B(H  58,C  36)                  1.1270         0.314390   
     84. B(H  59,C  44)                  1.1268         0.314602   
     85. B(Al 61,Al 60)                  3.3728         0.021060   
     86. B(H  62,Al 61)                  1.7153         0.253757   
     87. B(H  63,Al 61)                  1.6280         0.349621   
     88. B(H  64,Al 61)                  1.6988         0.269560   
     89. B(H  64,Al 60)                  1.7694         0.208008   
     90. B(H  65,Al 60)                  1.6137         0.368529   
     91. B(H  66,Al 60)                  1.6906         0.277878   
     92. B(H  67,Al 61)                  1.6142         0.367798   
     93. B(Al 68,H  62)                  1.7773         0.202019   
     94. B(Al 68,Al 61)                  3.2768         0.029965   
     95. B(H  69,Al 68)                  1.6738         0.295549   
     96. B(H  70,Al 68)                  1.6238         0.355147   
     97. B(H  71,Al 60)                  1.6133         0.369096   
     98. B(Al 72,H  69)                  1.8766         0.140271   
     99. B(Al 72,H  66)                  1.8044         0.182879   
    100. B(H  73,Al 72)                  1.8354         0.163219   
    101. B(H  74,Al 72)                  1.6176         0.363261   
    102. B(H  75,Al 68)                  1.6156         0.365917   
    103. B(Al 76,H  73)                  1.6935         0.274907   
    104. B(Al 76,Al 72)                  3.3098         0.026547   
    105. B(H  77,Al 76)                  1.6208         0.359047   
    106. B(H  78,Al 76)                  1.6172         0.363828   
    107. B(Al 79,Al 76)                  3.1451         0.048612   
    108. B(Al 79,Al 72)                  2.7334         0.220624   
    109. B(Al 79,O  17)                  2.0174         0.391237   
    110. B(H  80,Al 79)                  1.6133         0.369029   
    111. B(H  81,Al 79)                  1.8686         0.144452   
    112. B(H  81,Al 72)                  1.7432         0.228985   
    113. B(H  82,Al 79)                  1.7169         0.252211   
    114. B(H  82,Al 72)                  1.8906         0.133244   
    115. B(H  83,Al 79)                  1.7158         0.253302   
    116. B(H  83,Al 76)                  1.8274         0.168091   
    117. A(O   6,Zr  0,O  15)          141.5085         0.388617   
    118. A(Zr  3,Zr  0,O  14)          155.1399         0.296010   
    119. A(O   6,Zr  0,O  11)           69.6832         0.432181   
    120. A(Zr  3,Zr  0,O  12)          114.8547         0.299386   
    121. A(Zr  5,Zr  0,O  12)           74.5502         0.304318   
    122. A(Zr  5,Zr  0,O  14)          108.5310         0.300863   
    123. A(O  14,Zr  0,O  15)           71.0576         0.388854   
    124. A(O  11,Zr  0,O  15)          130.7314         0.427407   
    125. A(O  11,Zr  0,O  14)           74.6570         0.432452   
    126. A(Zr  5,Zr  0,O   6)           34.8624         0.300695   
    127. A(Zr  5,Zr  0,O  13)          111.5522         0.300828   
    128. A(O  11,Zr  0,O  12)           86.0135         0.438053   
    129. A(Zr  5,Zr  0,O  11)           37.3155         0.328102   
    130. A(O   9,Zr  0,O  11)           96.6951         0.479978   
    131. A(O   6,Zr  0,O  13)           82.4890         0.393035   
    132. A(Zr  3,Zr  0,Zr  5)           64.9635         0.233114   
    133. A(O   9,Zr  0,O  12)          151.7422         0.441086   
    134. A(O  13,Zr  0,O  14)          128.3718         0.393276   
    135. A(Zr  3,Zr  0,O  11)           90.2122         0.322625   
    136. A(O  13,Zr  0,O  15)           80.6652         0.388806   
    137. A(O   9,Zr  0,O  14)          123.7182         0.435436   
    138. A(O   9,Zr  0,O  15)           75.0909         0.430346   
    139. A(O  12,Zr  0,O  14)           84.1982         0.398288   
    140. A(O   6,Zr  0,O   9)           69.7099         0.435162   
    141. A(Zr  3,Zr  0,O   9)           37.3196         0.324655   
    142. A(O   6,Zr  0,O  14)          143.3485         0.393085   
    143. A(O  12,Zr  0,O  13)           76.6449         0.398238   
    144. A(Zr  3,Zr  0,O  13)           73.9294         0.295977   
    145. A(Zr  3,Zr  0,O   6)           34.6998         0.295846   
    146. A(O   6,Zr  0,O  12)           85.1642         0.398043   
    147. A(Zr  5,Zr  0,O  15)          161.0133         0.297750   
    148. A(Zr  5,Zr  0,O   9)           90.6164         0.330179   
    149. A(O  12,Zr  0,O  15)          123.5752         0.393744   
    150. A(Zr  3,Zr  0,O  15)          107.0112         0.292969   
    151. A(O   9,Zr  0,O  13)           87.1263         0.435380   
    152. A(O  11,Zr  0,O  13)          148.3484         0.432397   
    153. A(Zr  4,Zr  1,O  19)           73.3483         0.298130   
    154. A(O   8,Zr  1,O  16)           76.6202         0.445466   
    155. A(O   7,Zr  1,O  18)           84.8619         0.406565   
    156. A(O  16,Zr  1,O  17)           67.6191         0.322334   
    157. A(O  10,Zr  1,O  16)          109.9354         0.457335   
    158. A(Zr  2,Zr  1,Zr  4)           66.1290         0.236174   
    159. A(O  10,Zr  1,O  17)           70.1891         0.354258   
    160. A(O   7,Zr  1,O  10)           71.7659         0.453673   
    161. A(O   8,Zr  1,O  10)          100.0753         0.494237   
    162. A(O  16,Zr  1,O  18)           97.1385         0.409754   
    163. A(O   8,Zr  1,O  18)           84.5884         0.441889   
    164. A(Zr  4,Zr  1,O  10)           39.4124         0.336304   
    165. A(O   7,Zr  1,O   8)           71.1334         0.441922   
    166. A(Zr  2,Zr  1,O  19)          113.1034         0.299727   
    167. A(Zr  2,Zr  1,O   7)           35.2951         0.306022   
    168. A(O  17,Zr  1,O  18)          124.0162         0.319992   
    169. A(O   8,Zr  1,O  19)          150.4170         0.431684   
    170. A(O   7,Zr  1,O  17)          136.5833         0.320014   
    171. A(O  10,Zr  1,O  19)           86.0904         0.443094   
    172. A(O  10,Zr  1,O  18)          152.8960         0.453639   
    173. A(Zr  2,Zr  1,O   8)           38.1665         0.330162   
    174. A(Zr  2,Zr  1,O  10)           93.4461         0.338192   
    175. A(O   8,Zr  1,O  17)          135.7434         0.345710   
    176. A(O  18,Zr  1,O  19)           77.6954         0.397353   
    177. A(O   7,Zr  1,O  19)           83.7307         0.397382   
    178. A(Zr  2,Zr  1,O  18)           73.6812         0.306002   
    179. A(O  16,Zr  1,O  19)          128.6384         0.400478   
    180. A(Zr  2,Zr  1,O  16)          114.0952         0.308201   
    181. A(Zr  4,Zr  1,O  18)          114.1317         0.304358   
    182. A(Zr  4,Zr  1,O   8)           93.0694         0.328335   
    183. A(Zr  4,Zr  1,O   7)           34.8766         0.304378   
    184. A(O   7,Zr  1,O  16)          147.3672         0.409784   
    185. A(Zr  2,Zr  1,O  17)          162.2863         0.246859   
    186. A(O  17,Zr  1,O  19)           73.6311         0.313313   
    187. A(Zr  4,Zr  1,O  16)          146.1431         0.306541   
    188. A(Zr  4,Zr  1,O  17)          102.1797         0.245663   
    189. A(O   7,Zr  2,O   8)           70.4195         0.431241   
    190. A(Zr  1,Zr  2,O  23)          109.0443         0.300313   
    191. A(Zr  5,Zr  2,O   8)           35.8799         0.302119   
    192. A(O  22,Zr  2,O  23)           83.5196         0.393548   
    193. A(Zr  1,Zr  2,O   8)           35.1662         0.301571   
    194. A(O  21,Zr  2,O  23)           70.8007         0.383905   
    195. A(Zr  5,Zr  2,O  21)          106.1358         0.296496   
    196. A(Zr  1,Zr  2,Zr  5)           65.9930         0.237680   
    197. A(O   7,Zr  2,O  11)           96.3879         0.480331   
    198. A(O   7,Zr  2,O  23)           75.2152         0.429217   
    199. A(O  20,Zr  2,O  22)           76.2139         0.396859   
    200. A(Zr  5,Zr  2,O   7)           91.2841         0.328377   
    201. A(O  20,Zr  2,O  23)          126.3052         0.393379   
    202. A(O  11,Zr  2,O  23)          123.8116         0.435343   
    203. A(O   8,Zr  2,O  23)          144.2104         0.391897   
    204. A(Zr  5,Zr  2,O  22)          115.4218         0.303281   
    205. A(Zr  5,Zr  2,O  23)          156.4043         0.300858   
    206. A(Zr  1,Zr  2,O   7)           37.5518         0.327761   
    207. A(O  21,Zr  2,O  22)          123.1992         0.387277   
    208. A(O   8,Zr  2,O  22)           84.7400         0.395360   
    209. A(O   7,Zr  2,O  22)           86.5514         0.433107   
    210. A(Zr  5,Zr  2,O  11)           37.3212         0.332687   
    211. A(O   8,Zr  2,O  11)           70.6566         0.437404   
    212. A(O  11,Zr  2,O  21)           74.8591         0.428211   
    213. A(O   8,Zr  2,O  21)          141.7392         0.385660   
    214. A(O  11,Zr  2,O  20)           88.2177         0.439109   
    215. A(O   7,Zr  2,O  21)          130.4257         0.422211   
    216. A(Zr  1,Zr  2,O  22)           74.9258         0.302729   
    217. A(Zr  1,Zr  2,O  21)          161.0058         0.295962   
    218. A(Zr  1,Zr  2,O  11)           90.7605         0.332060   
    219. A(O   8,Zr  2,O  20)           82.9108         0.395191   
    220. A(O   7,Zr  2,O  20)          149.4769         0.432916   
    221. A(Zr  5,Zr  2,O  20)           74.2836         0.303162   
    222. A(O  11,Zr  2,O  22)          152.4109         0.439303   
    223. A(Zr  1,Zr  2,O  20)          112.5334         0.302611   
    224. A(O  20,Zr  2,O  21)           79.9248         0.387112   
    225. A(O   6,Zr  3,O  10)           99.1328         0.484234   
    226. A(Zr  0,Zr  3,O  27)          111.7167         0.297763   
    227. A(O  24,Zr  3,O  26)           70.2509         0.378476   
    228. A(O   9,Zr  3,O  10)           70.5825         0.440125   
    229. A(Zr  0,Zr  3,Zr  4)           64.5874         0.229956   
    230. A(Zr  4,Zr  3,O  10)           39.1045         0.327396   
    231. A(O   6,Zr  3,O  24)           75.4563         0.438025   
    232. A(O  26,Zr  3,O  27)           77.7459         0.376345   
    233. A(Zr  4,Zr  3,O  26)          107.0428         0.283014   
    234. A(O  10,Zr  3,O  27)           87.4844         0.442077   
    235. A(Zr  4,Zr  3,O  25)          113.6650         0.299776   
    236. A(O  10,Zr  3,O  26)           74.3201         0.416801   
    237. A(O   9,Zr  3,O  26)          140.7725         0.374756   
    238. A(O   6,Zr  3,O  26)          134.0305         0.410653   
    239. A(O  25,Zr  3,O  26)          122.4030         0.378822   
    240. A(O   9,Zr  3,O  27)           83.7057         0.396790   
    241. A(O   6,Zr  3,O  27)          148.1942         0.435455   
    242. A(O  24,Zr  3,O  27)          127.3242         0.400797   
    243. A(Zr  4,Zr  3,O   6)           91.3459         0.322925   
    244. A(O   6,Zr  3,O   9)           69.6246         0.433540   
    245. A(Zr  0,Zr  3,O  26)          163.2982         0.282818   
    246. A(O   9,Zr  3,O  25)           85.1876         0.399444   
    247. A(O  10,Zr  3,O  25)          152.1809         0.445122   
    248. A(O   6,Zr  3,O  25)           84.4012         0.438443   
    249. A(O  25,Zr  3,O  27)           76.1533         0.401170   
    250. A(Zr  0,Zr  3,O  25)           74.0294         0.299563   
    251. A(O  24,Zr  3,O  25)           86.9328         0.403485   
    252. A(O  10,Zr  3,O  24)          120.7507         0.444696   
    253. A(Zr  0,Zr  3,O   9)           34.3909         0.296609   
    254. A(Zr  4,Zr  3,O  27)           74.2790         0.297974   
    255. A(Zr  0,Zr  3,O   6)           37.5377         0.322689   
    256. A(Zr  0,Zr  3,O  24)          110.6303         0.299311   
    257. A(Zr  4,Zr  3,O  24)          154.6370         0.299524   
    258. A(O   9,Zr  3,O  24)          144.7645         0.399073   
    259. A(Zr  0,Zr  3,O  10)           91.9409         0.327155   
    260. A(Zr  4,Zr  3,O   9)           34.0090         0.296818   
    261. A(O   9,Zr  4,O  10)           69.3148         0.422476   
    262. A(O   7,Zr  4,O  10)           69.2522         0.416341   
    263. A(Zr  3,Zr  4,O  10)           34.5874         0.285985   
    264. A(O   7,Zr  4,O  31)           75.5527         0.432218   
    265. A(Zr  1,Zr  4,Zr  3)           64.7839         0.232557   
    266. A(O  29,Zr  4,O  31)           71.0456         0.389317   
    267. A(O  30,Zr  4,O  31)           82.7267         0.396992   
    268. A(O  28,Zr  4,O  31)          126.1998         0.394889   
    269. A(O  10,Zr  4,O  31)          143.1665         0.377346   
    270. A(O   9,Zr  4,O  31)          127.0600         0.438651   
    271. A(Zr  3,Zr  4,O  31)          158.3136         0.295540   
    272. A(O  28,Zr  4,O  29)           81.2271         0.392850   
    273. A(O  29,Zr  4,O  30)          123.5858         0.394939   
    274. A(O  10,Zr  4,O  29)          142.2384         0.375424   
    275. A(O   9,Zr  4,O  29)           75.4602         0.436321   
    276. A(Zr  1,Zr  4,O  30)           75.1735         0.303073   
    277. A(Zr  3,Zr  4,O  30)          113.5559         0.299406   
    278. A(Zr  1,Zr  4,O  31)          108.7683         0.299139   
    279. A(Zr  3,Zr  4,O  28)           73.6350         0.297969   
    280. A(O  10,Zr  4,O  30)           84.8942         0.382744   
    281. A(O   7,Zr  4,O   9)           97.2811         0.485936   
    282. A(O  28,Zr  4,O  30)           75.5710         0.400615   
    283. A(O   7,Zr  4,O  30)           86.9817         0.438643   
    284. A(Zr  1,Zr  4,O  28)          112.0397         0.301611   
    285. A(Zr  3,Zr  4,O   9)           37.2091         0.327865   
    286. A(Zr  1,Zr  4,O  29)          160.2363         0.297739   
    287. A(Zr  1,Zr  4,O   9)           90.3886         0.332029   
    288. A(O  10,Zr  4,O  28)           83.3239         0.380739   
    289. A(O   9,Zr  4,O  28)           86.2862         0.442765   
    290. A(O   7,Zr  4,O  29)          129.8053         0.429931   
    291. A(Zr  3,Zr  4,O  29)          107.7134         0.294163   
    292. A(Zr  1,Zr  4,O   7)           37.2664         0.327557   
    293. A(O   7,Zr  4,O  28)          148.7411         0.436256   
    294. A(Zr  3,Zr  4,O   7)           90.5340         0.323471   
    295. A(Zr  1,Zr  4,O  10)           34.3988         0.289418   
    296. A(O   9,Zr  4,O  30)          150.0877         0.445197   
    297. A(O  11,Zr  5,O  35)           86.0859         0.404918   
    298. A(O   6,Zr  5,O   8)          100.0633         0.476306   
    299. A(O  34,Zr  5,O  35)           82.5941         0.390106   
    300. A(O  33,Zr  5,O  35)           75.8518         0.398424   
    301. A(O  32,Zr  5,O  35)          122.0632         0.385491   
    302. A(O   8,Zr  5,O  35)           85.3285         0.431882   
    303. A(O   6,Zr  5,O  35)          152.3429         0.441577   
    304. A(Zr  2,Zr  5,O  35)           74.5380         0.304704   
    305. A(O  33,Zr  5,O  34)          124.5018         0.387490   
    306. A(O  32,Zr  5,O  34)           69.3924         0.375015   
    307. A(O  11,Zr  5,O  34)          144.9140         0.393755   
    308. A(Zr  0,Zr  5,O  35)          115.0999         0.303564   
    309. A(O  32,Zr  5,O  33)           80.1028         0.382916   
    310. A(O   6,Zr  5,O  34)          125.0543         0.429118   
    311. A(Zr  2,Zr  5,O  34)          110.1960         0.297082   
    312. A(Zr  0,Zr  5,O  34)          158.3745         0.295982   
    313. A(O  11,Zr  5,O  33)           84.0389         0.402174   
    314. A(O   8,Zr  5,O  33)          149.4145         0.428903   
    315. A(O   6,Zr  5,O  33)           86.8402         0.438514   
    316. A(Zr  0,Zr  5,O  33)           74.1333         0.301700   
    317. A(O  11,Zr  5,O  32)          142.3297         0.389084   
    318. A(O   8,Zr  5,O  32)          130.4807         0.414696   
    319. A(O   6,Zr  5,O  32)           74.5995         0.423905   
    320. A(Zr  2,Zr  5,O  32)          162.3412         0.293893   
    321. A(Zr  0,Zr  5,O  32)          107.3695         0.292810   
    322. A(Zr  2,Zr  5,O   6)           92.8067         0.332651   
    323. A(Zr  0,Zr  5,O   6)           38.0605         0.331363   
    324. A(Zr  0,Zr  5,Zr  2)           66.1039         0.237276   
    325. A(O   8,Zr  5,O  34)           75.4036         0.419766   
    326. A(O   8,Zr  5,O  11)           70.6384         0.436037   
    327. A(O   6,Zr  5,O  11)           70.5805         0.445849   
    328. A(Zr  2,Zr  5,O  11)           34.7442         0.307318   
    329. A(Zr  0,Zr  5,O  11)           35.0556         0.306164   
    330. A(Zr  2,Zr  5,O  33)          112.0698         0.302830   
    331. A(Zr  2,Zr  5,O   8)           38.4311         0.325951   
    332. A(Zr  0,Zr  5,O   8)           92.9965         0.324699   
    333. A(Zr  3,O   6,Zr  5)          127.8591         0.482005   
    334. A(Zr  0,O   6,Zr  5)          107.0771         0.436862   
    335. A(Zr  0,O   6,Zr  3)          107.7625         0.432274   
    336. A(Zr  2,O   7,Zr  4)          129.7027         0.476012   
    337. A(Zr  1,O   7,Zr  4)          107.8570         0.440775   
    338. A(Zr  1,O   7,Zr  2)          107.1531         0.438408   
    339. A(Zr  1,O   8,Zr  2)          106.6674         0.434683   
    340. A(Zr  2,O   8,Zr  5)          105.6890         0.427773   
    341. A(Zr  1,O   8,Zr  5)          128.3586         0.473339   
    342. A(Zr  3,O   9,Zr  4)          108.7818         0.440816   
    343. A(Zr  0,O   9,Zr  4)          128.6306         0.488344   
    344. A(Zr  0,O   9,Zr  3)          108.2895         0.436438   
    345. A(Zr  3,O  10,Zr  4)          106.3082         0.421821   
    346. A(Zr  1,O  10,Zr  4)          106.1888         0.428343   
    347. A(Zr  1,O  10,Zr  3)          130.5111         0.499682   
    348. A(Zr  2,O  11,Zr  5)          107.9346         0.445903   
    349. A(Zr  0,O  11,Zr  5)          107.6288         0.441047   
    350. A(Zr  0,O  11,Zr  2)          130.3824         0.481957   
    351. A(Zr  0,O  12,C  36)          132.3861         0.441155   
    352. A(Zr  0,O  13,C  37)          132.3749         0.436824   
    353. A(Zr  0,O  14,C  38)          136.6405         0.434635   
    354. A(Zr  0,O  15,C  39)          134.0998         0.431275   
    355. A(Zr  1,O  16,C  40)          136.5060         0.443448   
    356. A(Zr  1,O  17,C  41)          128.3831         0.341764   
    357. A(C  41,O  17,Al 79)          125.5523         0.456277   
    358. A(Zr  1,O  17,Al 79)          106.0572         0.333164   
    359. A(Zr  1,O  18,C  42)          133.9536         0.443098   
    360. A(Zr  1,O  19,C  43)          133.3679         0.433624   
    361. A(Zr  2,O  20,C  44)          132.3169         0.438331   
    362. A(Zr  2,O  21,C  38)          131.2930         0.428234   
    363. A(Zr  2,O  22,C  42)          131.2512         0.439032   
    364. A(Zr  2,O  23,C  45)          135.3614         0.434275   
    365. A(Zr  3,O  24,C  46)          136.1567         0.439196   
    366. A(Zr  3,O  25,C  37)          133.0775         0.441481   
    367. A(Zr  3,O  26,C  41)          138.3513         0.418763   
    368. A(Zr  3,O  27,C  47)          132.0698         0.439111   
    369. A(Zr  4,O  28,C  47)          133.0640         0.439426   
    370. A(Zr  4,O  29,C  39)          134.4075         0.431999   
    371. A(Zr  4,O  30,C  43)          131.9302         0.441525   
    372. A(Zr  4,O  31,C  45)          134.3249         0.435073   
    373. A(Zr  5,O  32,C  46)          130.1457         0.424787   
    374. A(Zr  5,O  33,C  36)          132.4079         0.438167   
    375. A(Zr  5,O  34,C  40)          130.0189         0.431100   
    376. A(Zr  5,O  35,C  44)          132.2090         0.440389   
    377. A(O  12,C  36,O  33)          126.4571         0.484996   
    378. A(O  33,C  36,H  58)          116.9255         0.363669   
    379. A(O  12,C  36,H  58)          116.6172         0.362652   
    380. A(O  13,C  37,O  25)          126.4883         0.485129   
    381. A(O  25,C  37,H  51)          116.5820         0.362633   
    382. A(O  13,C  37,H  51)          116.9295         0.363697   
    383. A(O  14,C  38,O  21)          127.3190         0.484481   
    384. A(O  21,C  38,H  50)          116.5113         0.363591   
    385. A(O  14,C  38,H  50)          116.1603         0.361558   
    386. A(O  15,C  39,O  29)          127.5594         0.484447   
    387. A(O  29,C  39,H  54)          116.0835         0.362317   
    388. A(O  15,C  39,H  54)          116.3491         0.363060   
    389. A(O  16,C  40,O  34)          125.9218         0.484260   
    390. A(O  34,C  40,H  56)          117.6990         0.365917   
    391. A(O  16,C  40,H  56)          116.3576         0.360658   
    392. A(O  17,C  41,O  26)          126.8244         0.482681   
    393. A(O  26,C  41,H  48)          117.1593         0.366710   
    394. A(O  17,C  41,H  48)          116.0139         0.357209   
    395. A(O  18,C  42,O  22)          126.1395         0.485313   
    396. A(O  22,C  42,H  49)          117.2745         0.363814   
    397. A(O  18,C  42,H  49)          116.5856         0.362814   
    398. A(O  30,C  43,H  52)          117.0394         0.363314   
    399. A(O  19,C  43,H  52)          116.8577         0.363503   
    400. A(O  19,C  43,O  30)          126.1029         0.485357   
    401. A(O  35,C  44,H  59)          116.7407         0.363058   
    402. A(O  20,C  44,H  59)          116.8447         0.363414   
    403. A(O  20,C  44,O  35)          126.4142         0.485093   
    404. A(O  31,C  45,H  55)          116.3912         0.362865   
    405. A(O  23,C  45,H  55)          116.5417         0.362790   
    406. A(O  23,C  45,O  31)          127.0548         0.485033   
    407. A(O  32,C  46,H  57)          116.8825         0.364386   
    408. A(O  24,C  46,H  57)          116.0924         0.360950   
    409. A(O  24,C  46,O  32)          127.0165         0.484362   
    410. A(O  28,C  47,H  53)          116.6797         0.363373   
    411. A(O  27,C  47,H  53)          116.7267         0.363120   
    412. A(O  27,C  47,O  28)          126.5936         0.485414   
    413. A(H  66,Al 60,H  71)          109.9392         0.355998   
    414. A(H  65,Al 60,H  71)          128.0272         0.373617   
    415. A(H  64,Al 60,H  71)          102.4481         0.339058   
    416. A(Al 61,Al 60,H  71)          114.8779         0.270639   
    417. A(H  65,Al 60,H  66)          109.7185         0.355905   
    418. A(H  64,Al 60,H  66)           96.7763         0.323496   
    419. A(Al 61,Al 60,H  66)           88.0383         0.259336   
    420. A(H  64,Al 60,H  65)          104.7795         0.338971   
    421. A(Al 61,Al 60,H  65)           98.6493         0.270576   
    422. A(Al 61,Al 60,H  64)           13.1938         0.248529   
    423. A(H  67,Al 61,Al 68)          120.9284         0.285576   
    424. A(H  64,Al 61,Al 68)           79.4846         0.272225   
    425. A(H  63,Al 61,Al 68)          108.0059         0.283334   
    426. A(H  62,Al 61,Al 68)           20.6257         0.269737   
    427. A(Al 60,Al 61,Al 68)           81.9464         0.214509   
    428. A(H  64,Al 61,H  67)          108.6660         0.353956   
    429. A(H  63,Al 61,H  67)          122.0183         0.370020   
    430. A(H  62,Al 61,H  67)          108.2790         0.350358   
    431. A(Al 60,Al 61,H  67)          119.1638         0.270495   
    432. A(H  63,Al 61,H  64)          109.0714         0.350934   
    433. A(H  62,Al 61,H  64)           99.1171         0.332607   
    434. A(Al 60,Al 61,H  64)           13.7523         0.258168   
    435. A(H  62,Al 61,H  63)          107.2612         0.347377   
    436. A(Al 60,Al 61,H  63)           95.4003         0.268425   
    437. A(Al 60,Al 61,H  62)          102.5128         0.255871   
    438. A(Al 61,H  62,Al 68)          139.4998         0.317212   
    439. A(Al 60,H  64,Al 61)          153.0539         0.321889   
    440. A(Al 60,H  66,Al 72)          160.9741         0.316761   
    441. A(H  70,Al 68,H  75)          125.1234         0.370692   
    442. A(H  69,Al 68,H  75)          111.7430         0.359220   
    443. A(H  62,Al 68,H  75)          106.1153         0.336924   
    444. A(Al 61,Al 68,H  75)           98.2882         0.285348   
    445. A(H  69,Al 68,H  70)          110.7814         0.357399   
    446. A(H  62,Al 68,H  70)          101.0223         0.335253   
    447. A(Al 61,Al 68,H  70)          119.4526         0.284025   
    448. A(H  62,Al 68,H  69)           97.4473         0.325224   
    449. A(Al 61,Al 68,H  69)           83.6089         0.276082   
    450. A(Al 61,Al 68,H  62)           19.8744         0.260646   
    451. A(Al 68,H  69,Al 72)          169.0982         0.306504   
    452. A(Al 76,Al 72,H  82)           78.0980         0.240992   
    453. A(H  81,Al 72,H  82)           80.2069         0.291923   
    454. A(Al 79,Al 72,H  82)           38.4181         0.334453   
    455. A(H  74,Al 72,H  82)           97.6906         0.314264   
    456. A(H  73,Al 72,H  82)           80.2520         0.276954   
    457. A(H  69,Al 72,H  82)           88.9237         0.270618   
    458. A(H  66,Al 72,H  82)          163.1647         0.281855   
    459. A(Al 79,Al 72,H  81)           42.5694         0.366456   
    460. A(Al 76,Al 72,H  81)           67.8745         0.260809   
    461. A(H  74,Al 72,H  81)          106.4360         0.343635   
    462. A(H  73,Al 72,H  81)           87.3296         0.301460   
    463. A(H  69,Al 72,H  81)          158.0225         0.294298   
    464. A(H  66,Al 72,H  81)           93.5624         0.307000   
    465. A(Al 76,Al 72,Al 79)           61.8573         0.296817   
    466. A(H  74,Al 72,Al 79)          111.6341         0.397002   
    467. A(H  73,Al 72,Al 79)           75.5725         0.345988   
    468. A(H  69,Al 72,Al 79)          121.8792         0.337325   
    469. A(H  66,Al 72,Al 79)          131.1770         0.352690   
    470. A(H  74,Al 72,Al 76)          173.2964         0.279725   
    471. A(H  73,Al 72,Al 76)           19.4606         0.248135   
    472. A(H  69,Al 72,Al 76)           91.3032         0.242770   
    473. A(H  66,Al 72,Al 76)           85.0667         0.252285   
    474. A(H  73,Al 72,H  74)          165.6182         0.324851   
    475. A(H  69,Al 72,H  74)           93.8452         0.316900   
    476. A(H  66,Al 72,H  74)           99.0761         0.331001   
    477. A(H  69,Al 72,H  73)           71.9453         0.279153   
    478. A(H  66,Al 72,H  73)           83.8671         0.290919   
    479. A(H  66,Al 72,H  69)           91.4549         0.284112   
    480. A(Al 72,H  73,Al 76)          139.3731         0.310434   
    481. A(Al 79,Al 76,H  83)           26.4975         0.272705   
    482. A(H  77,Al 76,H  83)           99.7410         0.325800   
    483. A(H  73,Al 76,H  83)           91.9460         0.311913   
    484. A(Al 72,Al 76,H  83)           75.2383         0.249198   
    485. A(H  78,Al 76,H  83)          100.6325         0.326510   
    486. A(H  78,Al 76,Al 79)          110.7739         0.307788   
    487. A(H  77,Al 76,Al 79)          108.3145         0.307134   
    488. A(H  73,Al 76,Al 79)           65.4877         0.294341   
    489. A(Al 72,Al 76,Al 79)           50.0261         0.236570   
    490. A(H  77,Al 76,H  78)          128.6928         0.371023   
    491. A(H  73,Al 76,H  78)          111.7772         0.354483   
    492. A(Al 72,Al 76,H  78)          101.7261         0.279792   
    493. A(H  73,Al 76,H  77)          114.0012         0.353690   
    494. A(Al 72,Al 76,H  77)          128.9271         0.279221   
    495. A(Al 72,Al 76,H  73)           21.1663         0.268066   
    496. A(H  82,Al 79,H  83)          111.7912         0.328869   
    497. A(H  81,Al 79,H  83)           86.0051         0.300442   
    498. A(H  80,Al 79,H  83)          118.3809         0.350449   
    499. A(Al 76,Al 79,H  83)           28.3714         0.290572   
    500. A(Al 72,Al 79,H  83)           94.8724         0.372866   
    501. A(O  17,Al 79,H  83)           90.5553         0.380864   
    502. A(H  81,Al 79,H  82)           81.5083         0.300236   
    503. A(H  80,Al 79,H  82)          129.5569         0.350194   
    504. A(Al 76,Al 79,H  82)           85.2647         0.290375   
    505. A(Al 72,Al 79,H  82)           43.1774         0.372589   
    506. A(O  17,Al 79,H  82)           84.1025         0.380578   
    507. A(H  80,Al 79,H  81)           96.6326         0.319240   
    508. A(Al 76,Al 79,H  81)           71.4663         0.266510   
    509. A(Al 72,Al 79,H  81)           39.1300         0.338981   
    510. A(O  17,Al 79,H  81)          162.7421         0.346023   
    511. A(Al 76,Al 79,H  80)          142.1359         0.308492   
    512. A(Al 72,Al 79,H  80)          124.2966         0.398103   
    513. A(O  17,Al 79,H  80)           99.8700         0.406811   
    514. A(Al 72,Al 79,Al 76)           68.1165         0.327312   
    515. A(O  17,Al 79,Al 76)           97.9451         0.334026   
    516. A(O  17,Al 79,Al 72)          124.7171         0.434060   
    517. A(Al 72,H  81,Al 79)           98.3007         0.295667   
    518. A(Al 72,H  82,Al 79)           98.4045         0.296409   
    519. A(Al 76,H  83,Al 79)          125.1311         0.307821   
    520. D(Zr  5,Zr  2,Zr  1,O   7)    128.2862         0.010000   
    521. D(O   7,Zr  2,Zr  1,Zr  4)    -21.9417         0.010000   
    522. D(Zr  5,Zr  2,Zr  1,Zr  4)    106.3445         0.010000   
    523. D(Zr  4,Zr  3,Zr  0,O   6)   -131.3764         0.010000   
    524. D(Zr  4,Zr  3,Zr  0,Zr  5)   -107.7630         0.010000   
    525. D(O   6,Zr  3,Zr  0,Zr  5)     23.6134         0.010000   
    526. D(Zr  3,Zr  4,Zr  1,Zr  2)   -107.3050         0.010000   
    527. D(Zr  1,Zr  4,Zr  3,O   6)     80.3489         0.010000   
    528. D(Zr  1,Zr  4,Zr  3,Zr  0)    107.5634         0.010000   
    529. D(O   7,Zr  4,Zr  3,Zr  0)     79.7020         0.010000   
    530. D(O   7,Zr  4,Zr  1,Zr  2)     22.1831         0.010000   
    531. D(Zr  3,Zr  4,Zr  1,O   7)   -129.4882         0.010000   
    532. D(O   6,Zr  5,Zr  0,Zr  3)    -23.5113         0.010000   
    533. D(Zr  2,Zr  5,Zr  0,O   6)    130.7479         0.010000   
    534. D(Zr  2,Zr  5,Zr  0,Zr  3)    107.2366         0.010000   
    535. D(O   6,Zr  5,Zr  2,Zr  1)    -78.3590         0.010000   
    536. D(Zr  0,Zr  5,Zr  2,O   7)    -77.6498         0.010000   
    537. D(Zr  0,Zr  5,Zr  2,Zr  1)   -106.2383         0.010000   
    538. D(Zr  3,O   6,Zr  5,Zr  0)    130.0175         0.010000   
    539. D(Zr  0,O   6,Zr  5,Zr  2)    -43.9064         0.010000   
    540. D(Zr  0,O   6,Zr  5,O   8)    -81.9212         0.010000   
    541. D(Zr  5,O   6,Zr  3,Zr  0)   -129.7602         0.010000   
    542. D(Zr  3,O   6,Zr  0,O   9)    -17.1653         0.010000   
    543. D(Zr  5,O   6,Zr  0,Zr  3)    140.5859         0.010000   
    544. D(Zr  0,O   6,Zr  3,Zr  4)     42.6847         0.010000   
    545. D(Zr  3,O   6,Zr  0,Zr  5)   -140.5859         0.010000   
    546. D(Zr  0,O   6,Zr  3,O   9)     15.9689         0.010000   
    547. D(Zr  1,O   7,Zr  2,Zr  5)    -45.8243         0.010000   
    548. D(Zr  2,O   7,Zr  1,O   8)     17.2009         0.010000   
    549. D(Zr  4,O   7,Zr  1,Zr  2)   -143.3037         0.010000   
    550. D(Zr  2,O   7,Zr  1,Zr  4)    143.3037         0.010000   
    551. D(Zr  1,O   7,Zr  4,O   9)     80.9885         0.010000   
    552. D(Zr  1,O   7,Zr  4,Zr  3)     44.2863         0.010000   
    553. D(Zr  4,O   7,Zr  2,Zr  1)    132.3293         0.010000   
    554. D(Zr  2,O   7,Zr  4,Zr  1)   -132.0845         0.010000   
    555. D(Zr  1,O   7,Zr  2,O   8)    -16.0708         0.010000   
    556. D(Zr  2,O   8,Zr  5,Zr  0)     44.0640         0.010000   
    557. D(Zr  1,O   8,Zr  5,Zr  2)   -127.0288         0.010000   
    558. D(Zr  1,O   8,Zr  5,Zr  0)    -82.9647         0.010000   
    559. D(Zr  1,O   8,Zr  2,O   7)     17.0340         0.010000   
    560. D(Zr  1,O   8,Zr  2,Zr  5)    139.1969         0.010000   
    561. D(Zr  5,O   8,Zr  1,Zr  2)    126.6499         0.010000   
    562. D(Zr  2,O   8,Zr  1,O   7)    -16.0517         0.010000   
    563. D(Zr  5,O   8,Zr  2,Zr  1)   -139.1969         0.010000   
    564. D(Zr  2,O   8,Zr  1,Zr  4)    -43.6109         0.010000   
    565. D(Zr  3,O   9,Zr  4,Zr  1)    -44.4833         0.010000   
    566. D(Zr  0,O   9,Zr  4,Zr  1)     89.6308         0.010000   
    567. D(Zr  4,O   9,Zr  0,Zr  3)   -134.2839         0.010000   
    568. D(Zr  4,O   9,Zr  3,Zr  0)    143.7935         0.010000   
    569. D(Zr  0,O   9,Zr  3,O   6)    -17.2634         0.010000   
    570. D(Zr  0,O   9,Zr  3,Zr  4)   -143.7935         0.010000   
    571. D(Zr  0,O   9,Zr  4,Zr  3)    134.1142         0.010000   
    572. D(Zr  3,O   9,Zr  0,Zr  5)     44.5862         0.010000   
    573. D(Zr  3,O   9,Zr  0,O   6)     16.0887         0.010000   
    574. D(Zr  1,O  10,Zr  4,O   7)    -17.6208         0.010000   
    575. D(Zr  1,O  10,Zr  4,Zr  3)   -142.1585         0.010000   
    576. D(Zr  4,O  10,Zr  3,Zr  0)    -43.7427         0.010000   
    577. D(Zr  1,O  10,Zr  3,Zr  4)    129.2026         0.010000   
    578. D(Zr  1,O  10,Zr  3,Zr  0)     85.4600         0.010000   
    579. D(Zr  4,O  10,Zr  1,Zr  2)     44.6163         0.010000   
    580. D(Zr  3,O  10,Zr  1,Zr  4)   -129.2453         0.010000   
    581. D(Zr  3,O  10,Zr  4,Zr  1)    142.1585         0.010000   
    582. D(Zr  3,O  10,Zr  1,Zr  2)    -84.6289         0.010000   
    583. D(Zr  2,O  11,Zr  5,Zr  0)   -144.8234         0.010000   
    584. D(Zr  0,O  11,Zr  5,Zr  2)    144.8234         0.010000   
    585. D(Zr  5,O  11,Zr  2,Zr  1)     46.4866         0.010000   
    586. D(Zr  0,O  11,Zr  2,Zr  5)   -133.8812         0.010000   
    587. D(Zr  0,O  11,Zr  2,Zr  1)    -87.3947         0.010000   
    588. D(Zr  5,O  11,Zr  0,Zr  3)    -45.3341         0.010000   
    589. D(Zr  0,O  11,Zr  5,O   6)     17.9969         0.010000   
    590. D(Zr  2,O  11,Zr  0,Zr  5)    133.9830         0.010000   
    591. D(Zr  2,O  11,Zr  0,Zr  3)     88.6489         0.010000   
    592. D(C  36,O  12,Zr  0,Zr  5)      2.2323         0.010000   
    593. D(C  36,O  12,Zr  0,Zr  3)     54.5049         0.010000   
    594. D(C  37,O  13,Zr  0,Zr  5)    -55.5337         0.010000   
    595. D(C  37,O  13,Zr  0,Zr  3)     -1.4988         0.010000   
    596. D(C  38,O  14,Zr  0,Zr  5)     18.9373         0.010000   
    597. D(C  38,O  14,Zr  0,Zr  3)    -51.2926         0.010000   
    598. D(C  39,O  15,Zr  0,Zr  5)     21.6715         0.010000   
    599. D(C  39,O  15,Zr  0,Zr  3)    -40.2254         0.010000   
    600. D(C  40,O  16,Zr  1,Zr  4)    -82.5990         0.010000   
    601. D(C  40,O  16,Zr  1,Zr  2)     -0.0159         0.010000   
    602. D(Al 79,O  17,Zr  1,Zr  2)    172.3876         0.010000   
    603. D(C  41,O  17,Zr  1,Zr  4)    -53.4288         0.010000   
    604. D(C  41,O  17,Zr  1,Zr  2)     -6.6581         0.010000   
    605. D(C  42,O  18,Zr  1,Zr  4)     54.6159         0.010000   
    606. D(C  42,O  18,Zr  1,Zr  2)      1.0007         0.010000   
    607. D(C  43,O  19,Zr  1,Zr  4)     -2.7201         0.010000   
    608. D(C  43,O  19,Zr  1,Zr  2)    -56.7886         0.010000   
    609. D(C  44,O  20,Zr  2,Zr  5)     -1.9332         0.010000   
    610. D(C  44,O  20,Zr  2,Zr  1)    -56.8803         0.010000   
    611. D(C  38,O  21,Zr  2,Zr  5)    -48.8681         0.010000   
    612. D(C  38,O  21,Zr  2,Zr  1)     13.6941         0.010000   
    613. D(C  42,O  22,Zr  2,Zr  5)     51.8968         0.010000   
    614. D(C  42,O  22,Zr  2,Zr  1)     -1.6237         0.010000   
    615. D(C  45,O  23,Zr  2,Zr  5)    -43.0719         0.010000   
    616. D(C  45,O  23,Zr  2,Zr  1)     30.3702         0.010000   
    617. D(C  46,O  24,Zr  3,Zr  4)     59.9822         0.010000   
    618. D(C  46,O  24,Zr  3,Zr  0)    -13.9792         0.010000   
    619. D(C  37,O  25,Zr  3,Zr  4)    -55.6085         0.010000   
    620. D(C  37,O  25,Zr  3,Zr  0)     -3.3981         0.010000   
    621. D(C  41,O  26,Zr  3,Zr  4)     33.7689         0.010000   
    622. D(C  41,O  26,Zr  3,Zr  0)    -23.5386         0.010000   
    623. D(C  47,O  27,Zr  3,Zr  4)      5.0302         0.010000   
    624. D(C  47,O  27,Zr  3,Zr  0)     58.7326         0.010000   
    625. D(C  47,O  28,Zr  4,Zr  3)      5.5253         0.010000   
    626. D(C  47,O  28,Zr  4,Zr  1)     58.8051         0.010000   
    627. D(C  39,O  29,Zr  4,Zr  3)     35.8555         0.010000   
    628. D(C  39,O  29,Zr  4,Zr  1)    -28.4419         0.010000   
    629. D(C  43,O  30,Zr  4,Zr  3)    -55.5432         0.010000   
    630. D(C  43,O  30,Zr  4,Zr  1)     -2.1396         0.010000   
    631. D(C  45,O  31,Zr  4,Zr  3)     33.6790         0.010000   
    632. D(C  45,O  31,Zr  4,Zr  1)    -35.0260         0.010000   
    633. D(C  46,O  32,Zr  5,Zr  2)    -14.0764         0.010000   
    634. D(C  46,O  32,Zr  5,Zr  0)     51.3032         0.010000   
    635. D(C  36,O  33,Zr  5,Zr  2)     57.5557         0.010000   
    636. D(C  36,O  33,Zr  5,Zr  0)      2.2822         0.010000   
    637. D(C  40,O  34,Zr  5,Zr  2)    -51.8619         0.010000   
    638. D(C  40,O  34,Zr  5,Zr  0)     24.0577         0.010000   
    639. D(C  44,O  35,Zr  5,Zr  2)     -5.2145         0.010000   
    640. D(C  44,O  35,Zr  5,Zr  0)    -58.7952         0.010000   
    641. D(H  58,C  36,O  33,Zr  5)    178.5373         0.060953   
    642. D(O  12,C  36,O  33,Zr  5)     -1.6147         0.060953   
    643. D(H  58,C  36,O  12,Zr  0)    178.3517         0.058731   
    644. D(O  33,C  36,O  12,Zr  0)     -1.4967         0.058731   
    645. D(H  51,C  37,O  13,Zr  0)    179.8330         0.061107   
    646. D(O  25,C  37,O  13,Zr  0)     -0.3011         0.061107   
    647. D(H  51,C  37,O  25,Zr  3)   -176.4242         0.058780   
    648. D(O  13,C  37,O  25,Zr  3)      3.7095         0.058780   
    649. D(H  50,C  38,O  21,Zr  2)    169.9353         0.061697   
    650. D(O  14,C  38,O  21,Zr  2)    -11.2302         0.061697   
    651. D(H  50,C  38,O  14,Zr  0)   -151.0008         0.057275   
    652. D(O  21,C  38,O  14,Zr  0)     30.1612         0.057275   
    653. D(H  54,C  39,O  29,Zr  4)   -163.1011         0.058616   
    654. D(O  15,C  39,O  29,Zr  4)     17.9795         0.058616   
    655. D(H  54,C  39,O  15,Zr  0)    165.8544         0.060230   
    656. D(O  29,C  39,O  15,Zr  0)    -15.2287         0.060230   
    657. D(H  56,C  40,O  34,Zr  5)    173.7261         0.065262   
    658. D(O  16,C  40,O  34,Zr  5)     -8.0326         0.065262   
    659. D(H  56,C  40,O  16,Zr  1)   -141.6092         0.053870   
    660. D(O  34,C  40,O  16,Zr  1)     40.1287         0.053870   
    661. D(H  48,C  41,O  26,Zr  3)   -165.0665         0.069201   
    662. D(O  17,C  41,O  26,Zr  3)     15.5262         0.069201   
    663. D(H  48,C  41,O  17,Zr  1)    177.3801         0.054062   
    664. D(O  26,C  41,O  17,Al 79)    177.9206         0.054062   
    665. D(O  26,C  41,O  17,Zr  1)     -3.2066         0.054062   
    666. D(H  49,C  42,O  22,Zr  2)   -177.2304         0.061178   
    667. D(O  18,C  42,O  22,Zr  2)      2.9886         0.061178   
    668. D(H  49,C  42,O  18,Zr  1)    177.6123         0.058985   
    669. D(O  22,C  42,O  18,Zr  1)     -2.6053         0.058985   
    670. D(H  52,C  43,O  30,Zr  4)   -178.9547         0.059897   
    671. D(O  19,C  43,O  30,Zr  4)      1.0714         0.059897   
    672. D(H  52,C  43,O  19,Zr  1)   -177.6938         0.060312   
    673. D(O  30,C  43,O  19,Zr  1)      2.2802         0.060312   
    674. D(H  59,C  44,O  35,Zr  5)   -174.3019         0.059516   
    675. D(O  20,C  44,O  35,Zr  5)      5.9626         0.059516   
    676. D(H  59,C  44,O  20,Zr  2)    179.2171         0.060296   
    677. D(O  35,C  44,O  20,Zr  2)     -1.0477         0.060296   
    678. D(H  55,C  45,O  31,Zr  4)    161.4475         0.059941   
    679. D(O  23,C  45,O  31,Zr  4)    -19.8787         0.059941   
    680. D(H  55,C  45,O  23,Zr  2)   -158.3921         0.059778   
    681. D(O  31,C  45,O  23,Zr  2)     22.9359         0.059778   
    682. D(H  57,C  46,O  32,Zr  5)   -170.6254         0.063208   
    683. D(O  24,C  46,O  32,Zr  5)     10.4868         0.063208   
    684. D(H  57,C  46,O  24,Zr  3)    147.5511         0.055747   
    685. D(O  32,C  46,O  24,Zr  3)    -33.5534         0.055747   
    686. D(H  53,C  47,O  28,Zr  4)    175.8953         0.060427   
    687. D(O  27,C  47,O  28,Zr  4)     -4.1507         0.060427   
    688. D(H  53,C  47,O  27,Zr  3)    176.7810         0.059871   
    689. D(O  28,C  47,O  27,Zr  3)     -3.1730         0.059871   
    690. D(H  63,Al 61,Al 60,H  64)   -173.9031         0.010000   
    691. D(H  62,Al 61,Al 60,H  65)   -164.1533         0.010000   
    692. D(H  62,Al 61,Al 60,H  64)     77.0536         0.010000   
    693. D(Al 68,H  62,Al 61,H  63)    -95.3570         0.010000   
    694. D(Al 68,H  62,Al 61,Al 60)      4.4255         0.010000   
    695. D(Al 60,H  64,Al 61,H  63)      6.4237         0.010000   
    696. D(Al 60,H  64,Al 61,H  62)   -105.5054         0.010000   
    697. D(Al 61,H  64,Al 60,H  66)     48.8611         0.010000   
    698. D(Al 61,H  64,Al 60,H  65)    -63.6429         0.010000   
    699. D(Al 72,H  66,Al 60,H  64)     22.0266         0.010000   
    700. D(Al 72,H  66,Al 60,Al 61)     31.9305         0.010000   
    701. D(H  70,Al 68,H  62,Al 61)    159.1801         0.010000   
    702. D(H  69,Al 68,H  62,Al 61)     46.2251         0.010000   
    703. D(H  69,Al 68,Al 61,Al 60)     50.4549         0.010000   
    704. D(H  62,Al 68,Al 61,H  63)     91.2703         0.010000   
    705. D(H  62,Al 68,Al 61,Al 60)   -175.6367         0.010000   
    706. D(Al 72,H  69,Al 68,H  62)    -61.9721         0.010000   
    707. D(Al 72,H  69,Al 68,Al 61)    -47.6715         0.010000   
    708. D(H  73,Al 72,H  69,Al 68)     83.8015         0.010000   
    709. D(H  66,Al 72,H  69,Al 68)      0.7331         0.010000   
    710. D(H  73,Al 72,H  66,Al 60)    -60.4125         0.010000   
    711. D(H  69,Al 72,H  66,Al 60)     11.2546         0.010000   
    712. D(Al 76,H  73,Al 72,H  69)    173.9022         0.010000   
    713. D(Al 76,H  73,Al 72,H  66)    -92.5498         0.010000   
    714. D(H  78,Al 76,H  73,Al 72)     64.8061         0.010000   
    715. D(H  77,Al 76,H  73,Al 72)   -139.0185         0.010000   
    716. D(H  77,Al 76,Al 72,H  66)    135.9147         0.010000   
    717. D(H  73,Al 76,Al 72,H  69)     -5.7980         0.010000   
    718. D(H  73,Al 76,Al 72,H  66)     85.5501         0.010000   
    719. D(Al 72,Al 79,Al 76,H  73)     17.2252         0.010000   
    720. D(O  17,Al 79,Al 76,H  73)   -107.0828         0.010000   
    721. D(O  17,Al 79,Al 76,Al 72)   -124.3079         0.010000   
    722. D(Al 76,Al 79,Al 72,H  66)     53.3112         0.010000   
    723. D(O  17,Al 79,Al 72,H  69)     12.0251         0.010000   
    724. D(O  17,Al 79,Al 72,H  66)    137.7400         0.010000   
    725. D(Al 76,Al 79,O  17,Zr  1)    100.5247         0.010000   
    726. D(Al 72,Al 79,O  17,C  41)   -149.2245         0.010000   
    727. D(Al 72,Al 79,O  17,Zr  1)     31.6949         0.010000   
    728. D(Al 72,H  81,Al 79,Al 76)    -77.8291         0.010000   
    729. D(Al 72,H  81,Al 79,O  17)    -23.8268         0.010000   
    730. D(Al 79,H  81,Al 72,H  69)     52.3024         0.010000   
    731. D(Al 79,H  81,Al 72,H  66)    155.1431         0.010000   
    732. D(Al 72,H  82,Al 79,Al 76)     62.7231         0.010000   
    733. D(Al 72,H  82,Al 79,O  17)    161.2337         0.010000   
    734. D(Al 79,H  82,Al 72,H  69)   -150.8971         0.010000   
    735. D(Al 79,H  82,Al 72,H  66)    -59.4306         0.010000   
    736. D(Al 76,H  83,Al 79,Al 72)     19.0807         0.010000   
    737. D(Al 76,H  83,Al 79,O  17)   -105.8401         0.010000   
    738. D(Al 79,H  83,Al 76,H  73)     -3.0259         0.010000   
    739. D(Al 79,H  83,Al 76,Al 72)    -16.1513         0.010000   
    -----------------------------------------------------------------

Number of atoms                         .... 84
Number of degrees of freedom            .... 739


         *************************************************************
         *                GEOMETRY OPTIMIZATION CYCLE   1            *
         *************************************************************
---------------------------------
CARTESIAN COORDINATES (ANGSTROEM)
---------------------------------
  Zr    -0.196129    2.223336    1.219297
  Zr     0.877098   -2.347378   -0.784848
  Zr     2.157317   -0.640368    1.941327
  Zr    -1.515529    0.430433   -1.472568
  Zr     1.948019    0.871568   -1.519557
  Zr    -1.284860   -0.976864    1.981488
  O     -1.552497    0.554464    0.611471
  O      2.184329   -0.684258   -0.151407
  O      0.451064   -1.873569    1.196555
  O      0.203641    1.645758   -0.736356
  O      0.233697   -0.642440   -1.706126
  O      0.398341    0.438741    2.126580
  O     -1.568202    2.461435    2.940999
  O     -1.849523    3.477406    0.391932
  O      1.383380    2.804546    2.688112
  O      1.021293    3.908721    0.354847
  O     -0.837501   -3.635544   -0.311644
  O     -0.510119   -2.955147   -2.887105
  O      2.441426   -3.643891    0.080307
  O      2.339232   -2.526804   -2.477079
  O      1.670654   -1.632601    3.875032
  O      2.642522    1.039273    3.381747
  O      3.303294   -2.547745    1.862147
  O      4.124600    0.269925    1.375768
  O     -3.396205   -0.583063   -0.888357
  O     -2.651776    2.328077   -1.389302
  O     -2.006522   -1.242587   -2.992463
  O     -1.059179    1.409698   -3.416185
  O      1.200696    1.569275   -3.494321
  O      2.360489    3.066792   -1.285768
  O      2.985275   -0.420534   -2.990263
  O      4.020983    1.140624   -0.720706
  O     -3.460956   -1.131871    1.317385
  O     -2.240181    0.365615    3.482823
  O     -1.862222   -3.137606    1.643967
  O     -0.590501   -1.766896    3.934930
  C     -2.216405    1.622373    3.642989
  C     -2.633853    3.316642   -0.589835
  C      2.159581    2.203129    3.500815
  C      1.815049    4.009890   -0.629533
  C     -1.514093   -3.936097    0.735009
  C     -1.487704   -2.297860   -3.422179
  C      3.218258   -3.541399    1.081152
  C      2.991212   -1.678568   -3.158467
  C      0.569973   -1.961945    4.412611
  C      4.638011    0.717932    0.304654
  C     -3.995225   -0.853974    0.207445
  C      0.037284    1.716891   -3.976998
  H     -1.917334   -2.734255   -4.370528
  H      3.895084   -4.418615    1.286071
  H      2.463155    2.782944    4.420451
  H     -3.390930    4.130430   -0.776965
  H      3.634956   -2.080897   -3.990651
  H     -0.029373    2.165717   -5.008846
  H      2.082735    5.057561   -0.951310
  H      5.764856    0.765229    0.266920
  H     -1.844909   -5.007904    0.825353
  H     -5.122692   -0.860851    0.168062
  H     -2.827620    2.040195    4.492613
  H      0.626273   -2.474344    5.414551
  Al     0.924696  -10.025197   -1.592048
  Al    -1.457082   -8.839801    0.481075
  H     -0.600274   -7.675447    1.404291
  H     -2.276689   -8.034074   -0.671990
  H     -0.139385   -9.640914   -0.231607
  H     -0.031497  -10.751306   -2.670237
  H      1.218192   -8.431058   -2.072220
  H     -2.189159   -9.855135    1.500358
  Al     1.014066   -6.936282    1.484838
  H      1.192788   -6.626773   -0.150333
  H      0.689158   -5.568797    2.297887
  H      2.227797  -10.626611   -0.855222
  Al     1.370130   -6.633829   -2.018563
  H     -0.419845   -6.691370   -1.616864
  H      2.982809   -6.515272   -1.974894
  H      2.015770   -8.100367    1.986616
  Al    -1.916866   -6.630141   -2.406209
  H     -3.032088   -5.740796   -1.636581
  H     -2.134459   -7.903206   -3.379494
  Al     0.258463   -4.686356   -3.581513
  H      0.886171   -4.170825   -4.975447
  H      0.906024   -6.436024   -3.687200
  H      0.980561   -4.783787   -2.026855
  H     -1.305524   -5.391579   -3.602697

----------------------------
CARTESIAN COORDINATES (A.U.)
----------------------------
  NO LB      ZA    FRAG     MASS         X           Y           Z
   0 Zr   12.0000*   0    91.220   -0.370630    4.201496    2.304138
   1 Zr   12.0000*   0    91.220    1.657474   -4.435901   -1.483148
   2 Zr   12.0000*   0    91.220    4.076738   -1.210121    3.668576
   3 Zr   12.0000*   0    91.220   -2.863935    0.813401   -2.782750
   4 Zr   12.0000*   0    91.220    3.681222    1.647025   -2.871546
   5 Zr   12.0000*   0    91.220   -2.428034   -1.846005    3.744470
   6 O     8.0000    0    15.999   -2.933795    1.047784    1.155512
   7 O     8.0000    0    15.999    4.127784   -1.293061   -0.286118
   8 O     8.0000    0    15.999    0.852387   -3.540533    2.261161
   9 O     8.0000    0    15.999    0.384825    3.110033   -1.391511
  10 O     8.0000    0    15.999    0.441623   -1.214037   -3.224110
  11 O     8.0000    0    15.999    0.752754    0.829100    4.018653
  12 O     8.0000    0    15.999   -2.963473    4.651439    5.557682
  13 O     8.0000    0    15.999   -3.495092    6.571345    0.740644
  14 O     8.0000    0    15.999    2.614209    5.299824    5.079796
  15 O     8.0000    0    15.999    1.929963    7.386413    0.670564
  16 O     8.0000    0    15.999   -1.582648   -6.870183   -0.588923
  17 O     8.0000    0    15.999   -0.963985   -5.584419   -5.455837
  18 O     8.0000    0    15.999    4.613627   -6.885957    0.151759
  19 O     8.0000    0    15.999    4.420508   -4.774968   -4.681002
  20 O     8.0000    0    15.999    3.157078   -3.085169    7.322750
  21 O     8.0000    0    15.999    4.993643    1.963942    6.390576
  22 O     8.0000    0    15.999    6.242320   -4.814540    3.518948
  23 O     8.0000    0    15.999    7.794364    0.510083    2.599826
  24 O     8.0000    0    15.999   -6.417898   -1.101828   -1.678752
  25 O     8.0000    0    15.999   -5.011130    4.399428   -2.625400
  26 O     8.0000    0    15.999   -3.791778   -2.348150   -5.654935
  27 O     8.0000    0    15.999   -2.001558    2.663944   -6.455654
  28 O     8.0000    0    15.999    2.268987    2.965499   -6.603311
  29 O     8.0000    0    15.999    4.460678    5.795397   -2.429749
  30 O     8.0000    0    15.999    5.641352   -0.794694   -5.650778
  31 O     8.0000    0    15.999    7.598557    2.155466   -1.361936
  32 O     8.0000    0    15.999   -6.540259   -2.138926    2.489497
  33 O     8.0000    0    15.999   -4.233328    0.690913    6.581582
  34 O     8.0000    0    15.999   -3.519089   -5.929217    3.106648
  35 O     8.0000    0    15.999   -1.115885   -3.338950    7.435939
  36 C     6.0000    0    12.011   -4.188398    3.065840    6.884252
  37 C     6.0000    0    12.011   -4.977261    6.267545   -1.114627
  38 C     6.0000    0    12.011    4.081016    4.163310    6.615582
  39 C     6.0000    0    12.011    3.429946    7.577593   -1.189644
  40 C     6.0000    0    12.011   -2.861222   -7.438146    1.388965
  41 C     6.0000    0    12.011   -2.811354   -4.342325   -6.466982
  42 C     6.0000    0    12.011    6.081627   -6.692274    2.043081
  43 C     6.0000    0    12.011    5.652571   -3.172033   -5.968637
  44 C     6.0000    0    12.011    1.077094   -3.707539    8.338626
  45 C     6.0000    0    12.011    8.764571    1.356694    0.575713
  46 C     6.0000    0    12.011   -7.549881   -1.613777    0.392014
  47 C     6.0000    0    12.011    0.070457    3.244454   -7.515437
  48 H     1.0000    0     1.008   -3.623236   -5.166993   -8.259102
  49 H     1.0000    0     1.008    7.360642   -8.349972    2.430323
  50 H     1.0000    0     1.008    4.654689    5.259002    8.353442
  51 H     1.0000    0     1.008   -6.407930    7.805381   -1.468251
  52 H     1.0000    0     1.008    6.869071   -3.932325   -7.541238
  53 H     1.0000    0     1.008   -0.055508    4.092612   -9.465348
  54 H     1.0000    0     1.008    3.935799    9.557405   -1.797715
  55 H     1.0000    0     1.008   10.894000    1.446074    0.504405
  56 H     1.0000    0     1.008   -3.486372   -9.463566    1.559691
  57 H     1.0000    0     1.008   -9.680484   -1.626772    0.317591
  58 H     1.0000    0     1.008   -5.343428    3.855410    8.489808
  59 H     1.0000    0     1.008    1.183485   -4.675832   10.232019
  60 Al   13.0000    0    26.982    1.747423  -18.944876   -3.008534
  61 Al   13.0000    0    26.982   -2.753486  -16.704803    0.909100
  62 H     1.0000    0     1.008   -1.134354  -14.504493    2.653725
  63 H     1.0000    0     1.008   -4.302318  -15.182199   -1.269877
  64 H     1.0000    0     1.008   -0.263399  -18.218687   -0.437674
  65 H     1.0000    0     1.008   -0.059521  -20.317025   -5.046017
  66 H     1.0000    0     1.008    2.302050  -15.932391   -3.915928
  67 H     1.0000    0     1.008   -4.136912  -18.623507    2.835265
  68 Al   13.0000    0    26.982    1.916307  -13.107673    2.805937
  69 H     1.0000    0     1.008    2.254042  -12.522787   -0.284088
  70 H     1.0000    0     1.008    1.302320  -10.523501    4.342378
  71 H     1.0000    0     1.008    4.209925  -20.081385   -1.616136
  72 Al   13.0000    0    26.982    2.589171  -12.536120   -3.814531
  73 H     1.0000    0     1.008   -0.793392  -12.644856   -3.055431
  74 H     1.0000    0     1.008    5.636693  -12.312080   -3.732009
  75 H     1.0000    0     1.008    3.809253  -15.307475    3.754160
  76 Al   13.0000    0    26.982   -3.622351  -12.529151   -4.547076
  77 H     1.0000    0     1.008   -5.729816  -10.848533   -3.092689
  78 H     1.0000    0     1.008   -4.033542  -14.934895   -6.386318
  79 Al   13.0000    0    26.982    0.488424   -8.855929   -6.768079
  80 H     1.0000    0     1.008    1.674620   -7.881717   -9.402232
  81 H     1.0000    0     1.008    1.712137  -12.162322   -6.967799
  82 H     1.0000    0     1.008    1.852991   -9.040047   -3.830202
  83 H     1.0000    0     1.008   -2.467083  -10.188607   -6.808111
* core charge reduced due to ECP

--------------------------------
INTERNAL COORDINATES (ANGSTROEM)
--------------------------------
 Zr     0   0   0     0.000000000000     0.00000000     0.00000000
 Zr     1   0   0     5.104883465208     0.00000000     0.00000000
 Zr     2   1   0     3.461917200555    47.70877514     0.00000000
 Zr     1   2   3     3.493057665512    46.94479849   181.87110743
 Zr     2   1   3     3.471063051141    46.97130265   264.21736839
 Zr     3   2   1     3.458818634608    65.99302657    53.65851084
 O      6   3   2     2.072085911081    92.80674512   281.64098924
 O      5   2   1     2.085250901542    37.26635959    75.77550609
 O      2   1   3     2.081335638825    51.63980408    50.54323747
 O      5   2   1     2.062917760248    90.38856858   334.21552080
 O      2   1   3     2.041942073088    50.45354933   211.07690339
 O      3   2   1     2.071905634446    90.76052689    24.88686444
 O      1   2   3     2.214392080050   122.12589992   277.18131259
 O      1   2   3     2.234040749138   120.85090164   183.89213743
 O      1   2   3     2.233846805975   110.02597239    13.02547360
 O      1   2   3     2.251646883411   113.94091640    90.53929118
 O      2   1   3     2.196165875285   106.04839004   108.21626061
 O      2   1   3     2.590991157041   114.58259407   180.51234991
 O      2   1   3     2.208294811789   121.38563450   359.13190644
 O      2   1   3     2.243585947224   120.31338677   265.26091855
 O      3   2   1     2.227237015450   112.53338587   113.27270715
 O      3   2   1     2.265266220555   161.00580970   344.70628919
 O      3   2   1     2.226570525525    74.92584848   181.00493537
 O      3   2   1     2.240243855684   109.04426654   258.49397180
 O      4   1   2     2.214818195516   110.63029556    99.50285365
 O      4   1   2     2.213378050046    74.02939347   179.87702920
 O     18   2   1     2.276660862097   102.29858846   353.14349316
 O      4   1   2     2.223704724973   111.71668890   247.42334749
 O      5   2   1     2.223731357160   112.03965484   248.06494916
 O      5   2   1     2.245840347235   160.23629689    17.86392287
 O      5   2   1     2.215491460396    75.17349694   180.72389088
[...]
  67   2.0000      -2.534379       -68.9639 
  68   2.0000      -2.533909       -68.9512 
  69   2.0000      -2.531385       -68.8825 
  70   2.0000      -2.531279       -68.8796 
  71   2.0000      -2.526305       -68.7443 
  72   2.0000      -2.065793       -56.2131 
  73   2.0000      -2.064546       -56.1792 
  74   2.0000      -2.063620       -56.1539 
  75   2.0000      -2.062672       -56.1282 
  76   2.0000      -2.062253       -56.1167 
  77   2.0000      -2.061923       -56.1078 
  78   2.0000      -1.247723       -33.9523 
  79   2.0000      -1.244125       -33.8544 
  80   2.0000      -1.243541       -33.8385 
  81   2.0000      -1.242070       -33.7984 
  82   2.0000      -1.240550       -33.7571 
  83   2.0000      -1.240458       -33.7546 
  84   2.0000      -1.238126       -33.6911 
  85   2.0000      -1.237600       -33.6768 
  86   2.0000      -1.236289       -33.6411 
  87   2.0000      -1.236141       -33.6371 
  88   2.0000      -1.235781       -33.6273 
  89   2.0000      -1.234441       -33.5908 
  90   2.0000      -1.233580       -33.5674 
  91   2.0000      -1.232699       -33.5434 
  92   2.0000      -1.231931       -33.5225 
  93   2.0000      -1.231063       -33.4989 
  94   2.0000      -1.230424       -33.4815 
  95   2.0000      -1.230146       -33.4740 
  96   2.0000      -1.014326       -27.6012 
  97   2.0000      -1.010401       -27.4944 
  98   2.0000      -1.009229       -27.4625 
  99   2.0000      -1.009038       -27.4573 
 100   2.0000      -1.008562       -27.4444 
 101   2.0000      -1.007644       -27.4194 
 102   2.0000      -1.006944       -27.4003 
 103   2.0000      -1.006114       -27.3777 
 104   2.0000      -1.003306       -27.3013 
 105   2.0000      -1.002405       -27.2768 
 106   2.0000      -1.000417       -27.2227 
 107   2.0000      -0.999845       -27.2072 
 108   2.0000      -0.938422       -25.5358 
 109   2.0000      -0.929119       -25.2826 
 110   2.0000      -0.928786       -25.2735 
 111   2.0000      -0.928076       -25.2542 
 112   2.0000      -0.927437       -25.2369 
 113   2.0000      -0.926655       -25.2156 
 114   2.0000      -0.925557       -25.1857 
 115   2.0000      -0.924829       -25.1659 
 116   2.0000      -0.922994       -25.1159 
 117   2.0000      -0.922524       -25.1032 
 118   2.0000      -0.921958       -25.0877 
 119   2.0000      -0.919195       -25.0126 
 120   2.0000      -0.841208       -22.8904 
 121   2.0000      -0.832479       -22.6529 
 122   2.0000      -0.831371       -22.6228 
 123   2.0000      -0.823358       -22.4047 
 124   2.0000      -0.820800       -22.3351 
 125   2.0000      -0.818387       -22.2694 
 126   2.0000      -0.576892       -15.6980 
 127   2.0000      -0.570582       -15.5263 
 128   2.0000      -0.569133       -15.4869 
 129   2.0000      -0.569101       -15.4860 
 130   2.0000      -0.566411       -15.4128 
 131   2.0000      -0.565632       -15.3916 
 132   2.0000      -0.564913       -15.3721 
 133   2.0000      -0.563506       -15.3338 
 134   2.0000      -0.561757       -15.2862 
 135   2.0000      -0.559906       -15.2358 
 136   2.0000      -0.557394       -15.1675 
 137   2.0000      -0.557017       -15.1572 
 138   2.0000      -0.512366       -13.9422 
 139   2.0000      -0.486121       -13.2280 
 140   2.0000      -0.483434       -13.1549 
 141   2.0000      -0.482793       -13.1375 
 142   2.0000      -0.482280       -13.1235 
 143   2.0000      -0.480819       -13.0838 
 144   2.0000      -0.478576       -13.0227 
 145   2.0000      -0.478362       -13.0169 
 146   2.0000      -0.477458       -12.9923 
 147   2.0000      -0.476492       -12.9660 
 148   2.0000      -0.475501       -12.9390 
 149   2.0000      -0.474713       -12.9176 
 150   2.0000      -0.472100       -12.8465 
 151   2.0000      -0.470791       -12.8109 
 152   2.0000      -0.470182       -12.7943 
 153   2.0000      -0.468581       -12.7507 
 154   2.0000      -0.467890       -12.7319 
 155   2.0000      -0.467764       -12.7285 
 156   2.0000      -0.467185       -12.7127 
 157   2.0000      -0.465619       -12.6701 
 158   2.0000      -0.458296       -12.4709 
 159   2.0000      -0.455566       -12.3966 
 160   2.0000      -0.454998       -12.3811 
 161   2.0000      -0.454670       -12.3722 
 162   2.0000      -0.453725       -12.3465 
 163   2.0000      -0.442581       -12.0432 
 164   2.0000      -0.437066       -11.8932 
 165   2.0000      -0.431766       -11.7490 
 166   2.0000      -0.430929       -11.7262 
 167   2.0000      -0.430124       -11.7043 
 168   2.0000      -0.421030       -11.4568 
 169   2.0000      -0.420397       -11.4396 
 170   2.0000      -0.418765       -11.3952 
 171   2.0000      -0.418044       -11.3756 
 172   2.0000      -0.415566       -11.3081 
 173   2.0000      -0.412885       -11.2352 
 174   2.0000      -0.411539       -11.1986 
 175   2.0000      -0.411060       -11.1855 
 176   2.0000      -0.400376       -10.8948 
 177   2.0000      -0.394283       -10.7290 
 178   2.0000      -0.383714       -10.4414 
 179   2.0000      -0.381225       -10.3737 
 180   2.0000      -0.377529       -10.2731 
 181   2.0000      -0.377002       -10.2587 
 182   2.0000      -0.371115       -10.0985 
 183   2.0000      -0.370087       -10.0706 
 184   2.0000      -0.369643       -10.0585 
 185   2.0000      -0.368454       -10.0262 
 186   2.0000      -0.352122        -9.5817 
 187   2.0000      -0.345638        -9.4053 
 188   2.0000      -0.345164        -9.3924 
 189   2.0000      -0.343156        -9.3377 
 190   2.0000      -0.341420        -9.2905 
 191   2.0000      -0.340550        -9.2668 
 192   2.0000      -0.333686        -9.0801 
 193   2.0000      -0.332541        -9.0489 
 194   2.0000      -0.328442        -8.9374 
 195   2.0000      -0.323931        -8.8146 
 196   2.0000      -0.323233        -8.7956 
 197   2.0000      -0.321861        -8.7583 
 198   2.0000      -0.320054        -8.7091 
 199   2.0000      -0.317707        -8.6453 
 200   2.0000      -0.313065        -8.5189 
 201   2.0000      -0.312258        -8.4970 
 202   2.0000      -0.310264        -8.4427 
 203   2.0000      -0.310227        -8.4417 
 204   2.0000      -0.307586        -8.3698 
 205   2.0000      -0.306762        -8.3474 
 206   2.0000      -0.305630        -8.3166 
 207   2.0000      -0.302078        -8.2200 
 208   2.0000      -0.300475        -8.1764 
 209   2.0000      -0.299973        -8.1627 
 210   2.0000      -0.298982        -8.1357 
 211   2.0000      -0.297406        -8.0928 
 212   2.0000      -0.297176        -8.0866 
 213   2.0000      -0.296614        -8.0713 
 214   2.0000      -0.295598        -8.0436 
 215   2.0000      -0.294912        -8.0250 
 216   2.0000      -0.294505        -8.0139 
 217   2.0000      -0.292284        -7.9534 
 218   2.0000      -0.291815        -7.9407 
 219   2.0000      -0.290973        -7.9178 
 220   2.0000      -0.290372        -7.9014 
 221   2.0000      -0.287691        -7.8285 
 222   2.0000      -0.286140        -7.7863 
 223   2.0000      -0.285770        -7.7762 
 224   2.0000      -0.284802        -7.7499 
 225   2.0000      -0.283647        -7.7184 
 226   2.0000      -0.283237        -7.7073 
 227   2.0000      -0.282606        -7.6901 
 228   2.0000      -0.282105        -7.6765 
 229   2.0000      -0.281720        -7.6660 
 230   2.0000      -0.279755        -7.6125 
 231   2.0000      -0.279203        -7.5975 
 232   2.0000      -0.278482        -7.5779 
 233   2.0000      -0.277866        -7.5611 
 234   2.0000      -0.275875        -7.5069 
 235   2.0000      -0.272414        -7.4128 
 236   2.0000      -0.271756        -7.3949 
 237   2.0000      -0.262046        -7.1306 
 238   2.0000      -0.258698        -7.0395 
 239   2.0000      -0.256253        -6.9730 
 240   2.0000      -0.253363        -6.8943 
 241   2.0000      -0.250272        -6.8102 
 242   2.0000      -0.248897        -6.7728 
 243   2.0000      -0.248706        -6.7676 
 244   2.0000      -0.245283        -6.6745 
 245   2.0000      -0.231732        -6.3057 
 246   0.0000      -0.132068        -3.5938 
 247   0.0000      -0.129046        -3.5115 
 248   0.0000      -0.105004        -2.8573 
 249   0.0000      -0.103264        -2.8100 
 250   0.0000      -0.101598        -2.7646 
 251   0.0000      -0.099558        -2.7091 
 252   0.0000      -0.096333        -2.6214 
 253   0.0000      -0.096019        -2.6128 
 254   0.0000      -0.087671        -2.3856 
 255   0.0000      -0.085874        -2.3367 
 256   0.0000      -0.083607        -2.2751 
*Only the first 10 virtual orbitals were printed.
-------
TIMINGS
-------

Total SCF time: 0 days 0 hours 1 min 20 sec 

Total time                  ....      80.975 sec
Sum of individual times     ....      74.252 sec  ( 91.7%)

SCF preparation             ....       1.405 sec  (  1.7%)
Fock matrix formation       ....      55.212 sec  ( 68.2%)
  Startup                   ....       0.410 sec  (  0.7% of F)
  Split-RI-J                ....      23.393 sec  ( 42.4% of F)
  XC integration            ....      34.442 sec  ( 62.4% of F)
    XC Preparation          ....       0.000 sec  (  0.0% of XC)
    Basis function eval.    ....      11.775 sec  ( 34.2% of XC)
    Density eval.           ....      13.508 sec  ( 39.2% of XC)
    XC-Functional eval.     ....       0.600 sec  (  1.7% of XC)
    XC-Potential eval.      ....       4.256 sec  ( 12.4% of XC)
Diagonalization             ....       0.000 sec  (  0.0%)
Density matrix formation    ....       1.596 sec  (  2.0%)
Total Energy calculation    ....       0.585 sec  (  0.7%)
Population analysis         ....       0.000 sec  (  0.0%)
Orbital Transformation      ....       1.517 sec  (  1.9%)
Orbital Orthonormalization  ....       0.000 sec  (  0.0%)
DIIS solution               ....       1.954 sec  (  2.4%)
SOSCF solution              ....      11.983 sec  ( 14.8%)
Finished LeanSCF after  81.7 sec

Maximum memory used throughout the entire LEANSCF-calculation: 113.2 MB


-------------------------------------------------------------------------------
                          DFT DISPERSION CORRECTION                            
                                                                               
                              DFTD3 V3.1  Rev 1                                
                          USING Becke-Johnson damping                          
-------------------------------------------------------------------------------
The PBE functional is recognized
Active option DFTDOPT                   ...         4   

molecular C6(AA) [au] = 163858.871624 


            DFT-D V3
 parameters
 s6 scaling factor         :     1.0000 
 a1 scaling factor         :     0.4289 
 s8 scaling factor         :     0.7875 
 a2 scaling factor         :     4.4407 
 ad hoc parameters k1-k3   :    16.0000     1.3333    -4.0000 

 Edisp/kcal,au: -107.069543188630  -0.170626159752 
 E6   /kcal   : -66.667462195 
 E8   /kcal   : -40.402080994 
 % E8         :  37.734429223 

-------------------------   ----------------
Dispersion correction           -0.170626160
-------------------------   ----------------

NOTIFICATION: Different basis set in ORCA and otool_gcp:
ORCA: 900  gCP: 942 
If you are NOT using ECPs, check your basis set inputs!
------------------   -----------------
gCP correction             0.418482757
------------------   -----------------

-------------------------   --------------------
FINAL SINGLE POINT ENERGY     -4464.503534395201
-------------------------   --------------------

                                *** OPTIMIZATION RUN DONE ***



           ************************************************************
           *        Program running with 24 parallel MPI-processes    *
           *              working on a common directory               *
           ************************************************************

------------------------------------------------------------------------------
                              ORCA PROPERTY CALCULATIONS
------------------------------------------------------------------------------

GBWName                                 ... run_pre.gbw
Number of atoms                         ...     84
Number of basis functions               ...    900
Max core memory                         ...   4096 MB

Electric properties:
Dipole moment                           ... YES
Quadrupole moment                       ...  NO
Static polarizability (Dipole/Dipole)   ...  NO
Static polarizability (Dipole/Quad.)    ...  NO
Static polarizability (Quad./Quad.)     ...  NO
Static polarizability (Velocity)        ...  NO
Static hyperpolarizability              ...  NO

Atomic electric properties:
Dipole moment                           ...  NO
Quadrupole moment                       ...  NO
Static polarizability                   ...  NO

Choice of electric origin               ... Center of mass
Position of electric origin             ...     0.517800    -1.913242     0.018032

General magnetic properties:
Magnetizability                         ...  NO

EPR properties:
g-Tensor (aka g-matrix)                 ...  NO
Zero-Field splitting spin-orbit         ...  NO
Zero-field splitting spin-spin          ...  NO
Hyperfine couplings                     ...  NO (   0 nuclei)
Quadrupole couplings                    ...  NO (   0 nuclei)
Contact density                         ...  NO (   0 nuclei)

NMR properties:
Chemical shifts                         ...  NO (   0 nuclei)
Spin-rotation constants                 ...  NO (   0 nuclei)
Spin-spin couplings                     ...  NO (   0 nuclei,    0 pairs)

Choice of magnetic origin               ... GIAO
Position of magnetic origin             ...     0.000000     0.000000     0.000000

Properties with geometric perturbations:
SCF Hessian                             ...  NO
IR spectrum                             ...  NO
VCD spectrum                            ...  NO
X-ray spectroscopy properties:
SCF XES/XAS/RIXS spectra                ...  NO

SCF SOC stabilization energy            ...  NO
Diagonal Born-Oppenheimer correction    ...  NO

-------------
DIPOLE MOMENT
-------------

Method             : SCF
Type of density    : Electron Density
Multiplicity       :   1
Irrep              :   0
Energy             : -4464.7513909928493376 Eh
Basis              : AO
                                X                 Y                 Z
Electronic contribution:     18.534592519     430.832581689      93.952842437
Nuclear contribution   :    -18.808303435    -427.441040929     -93.337727298
                        -----------------------------------------
Total Dipole Moment    :     -0.273710916       3.391540760       0.615115140
                        -----------------------------------------
Magnitude (a.u.)       :      3.457720785
Magnitude (Debye)      :      8.788827776



--------------------
Rotational spectrum 
--------------------
 
Rotational constants in cm-1:             0.001650             0.000919             0.000887 
Rotational constants in MHz :            49.462445            27.546766            26.592602 

Dipole components along the rotational axes: 
x,y,z [a.u.] :     3.443474     0.012702     0.313299 
x,y,z [Debye]:     8.752616     0.032286     0.796342 

 

Dipole moment calculation done in   0.4 sec 

Maximum memory used throughout the entire PROP-calculation: 92.7 MB

--------------------------------
SUGGESTED CITATIONS FOR THIS RUN
--------------------------------

Below you find a list of papers that are relevant to this ORCA run
We neither can nor want to force you to cite these papers, but we appreciate if you do
You receive ORCA, which is the product of decades of hard work by many enthusiastic individuals, for free
The only thing we kindly ask in return is that you cite our papers,
We deeply appreciate it, if you show your appreciation for ORCA by not just citing the generic ORCA reference.

Please note that relegating all ORCA citations to the supporting information does *not* help us.
SI sections are not indexed - citations you put there will not count into any citation statistics
But we need these citations in order to attract the funding resources that allow us to do what we are doing

Therefore, if you are a happy ORCA user, please consider citing a few of the papers listed below in the main body of your paper

In addition to the list printed below, the program has created the file run_pre.bibtex that contains the list in bibtex format
You can import this file easily into all common literature databanks and citation aid programs


List of essential papers. We consider these as the minimum necessary citations

  1. Neese, F.
     Software update: the ORCA program system, version 6.0
     WIRES Comput. Molec. Sci. 2025 15(1), e70019
     doi.org/10.1002/wcms.7019

List of papers to cite with high priority. The work reported in these papers was absolutely
necessary for this run to complete.
Our perspective: the developers of density functionals and basis sets usually get cited in chemistry papers
Good! But without the algorithms to do something with them, the functionals or basis sets would not do anything.
Hence, in our opinion, the algorithm design and method developments papers are equally worthy of getting cited

  1. Neese, F.
     An improvement of the resolution of the identity approximation for the formation of the Coulomb matrix
     J. Comp. Chem. 2003 24(14), 1740-1747
     doi.org/10.1002/jcc.10318
  2. Grimme, S.; Antony, J.; Ehrlich, S.; Krieg, H.
     A consistent and accurate ab initio parametrization of density functional dispersion correction (DFT-D) for the 94 elements H-Pu
     J. Chem. Phys. 2010 132 , 154104
     doi.org/10.1063/1.3382344
  3. Grimme, S.; Ehrlich, S.; Goerigk, L.
     Effect of the damping function in dispersion corrected density functional theory
     J. Comput. Chem. 2011 32(7), 1456-1465
     doi.org/10.1002/jcc.21759
  4. Helmich-Paris, B.
     A trust-region augmented Hessian implementation for restricted and unrestricted Hartree–Fock and Kohn–Sham methods
     J. Chem. Phys. 2021 154 , 164104
     doi.org/10.1063/5.0040798
  5. Neese, F.
     The SHARK Integral Generation and Digestion System
     J. Comp. Chem. 2022 44(3), 381
     doi.org/10.1002/jcc.26942

List of suggested additional citations. These are papers that are important in the 'surrounding' of 
of this run, or papers that preceded the highly important papers. If you like your results we are grateful for a citation.

  1. Neese, F.
     The ORCA program system
     WIRES Comput. Molec. Sci. 2012 2(1), 73-78
     doi.org/10.1002/wcms.81
  2. Neese, F.
     Software update: the ORCA program system, version 4.0
     WIRES Comput. Molec. Sci. 2018 8(1), 1-6
     doi.org/10.1002/wcms.1327
  3. Neese, F.; Wennmohs, F.; Becker, U.; Riplinger, C.
     The ORCA quantum chemistry program package
     J. Chem. Phys. 2020 152(22), 224108
     doi.org/10.1063/5.0004608
  4. Neese, F.
     Software update: The ORCA program system—Version 5.0
     WIRES Comput. Molec. Sci. 2022 12(1), e1606
     doi.org/10.1002/wcms.1606

List of optional additional citations

  1. Neese, F.
     Approximate second-order SCF convergence for spin unrestricted wavefunctions
     Chem. Phys. Lett. 2000 325(1-3), 93-98
     doi.org/10.1016/s0009-2614(00)00662-x

Timings for individual modules:

Sum of individual times          ...     8776.922 sec (= 146.282 min)
Startup calculation              ...     1321.123 sec (=  22.019 min)  15.1 %
SCF iterations                   ...     4873.963 sec (=  81.233 min)  55.5 %
Property calculations            ...        1.809 sec (=   0.030 min)   0.0 %
SCF Gradient evaluation          ...     2544.688 sec (=  42.411 min)  29.0 %
Geometry relaxation              ...       35.340 sec (=   0.589 min)   0.4 %
                             ****ORCA TERMINATED NORMALLY****
TOTAL RUN TIME: 0 days 2 hours 27 minutes 0 seconds 441 msec
