
                                 *****************
                                 * O   R   C   A *
                                 *****************

                                            #,                                       
                                            ###                                      
                                            ####                                     
                                            #####                                    
                                            ######                                   
                                           ########,                                 
                                     ,,################,,,,,                         
                               ,,#################################,,                 
                          ,,##########################################,,             
                       ,#########################################, ''#####,          
                    ,#############################################,,   '####,        
                  ,##################################################,,,,####,       
                ,###########''''           ''''###############################       
              ,#####''   ,,,,##########,,,,          '''####'''          '####       
            ,##' ,,,,###########################,,,                        '##       
           ' ,,###''''                  '''############,,,                           
         ,,##''                                '''############,,,,        ,,,,,,###''
      ,#''                                            '''#######################'''  
     '                                                          ''''####''''         
             ,#######,   #######,   ,#######,      ##                                
            ,#'     '#,  ##    ##  ,#'     '#,    #''#        ,####,    ,#,          
            ##       ##  ##   ,#'  ##            #'  '#       #'       ,# #          
            ##       ##  #######   ##           ,######,      #####,      #          
            '#,     ,#'  ##    ##  '#,     ,#' ,#      #,     #,   #      #          
             '#######'   ##     ##  '#######'  #'      '#     '####' #    #          



                #########################################################
                #                        -***-                          #
                #          Department of theory and spectroscopy        #
                #                                                       #
                #                      Frank Neese                      #
                #                                                       #
                #     Directorship, Architecture, Infrastructure        #
                #                    SHARK, DRIVERS                     #
                #        Core code/Algorithms in most modules           #
                #                                                       #
                #        Max Planck Institute fuer Kohlenforschung      #
                #                Kaiser Wilhelm Platz 1                 #
                #                 D-45470 Muelheim/Ruhr                 #
                #                      Germany                          #
                #                                                       #
                #                  All rights reserved                  #
                #                        -***-                          #
                #########################################################


                         Program Version 6.1.0  -  RELEASE   -
                                (GIT: $679e74b$)
                          ($2025-06-10 18:02:51 +0200$)


 With contributions from (in alphabetic order):
[Max-Planck-Institut fuer Kohlenforschung]                               
  Daniel Aravena         : Magnetic Suceptibility                        
  Michael Atanasov       : Ab Initio Ligand Field Theory (pilot matlab implementation)
  Alexander A. Auer      : GIAO ZORA, VPT2 properties, NMR spectrum      
  Ute Becker             : All parallelization in ORCA, NUMFREQ, NUMCALC 
  Giovanni Bistoni       : ED, misc. LED, open-shell LED, HFLD           
  Dmytro Bykov           : pre 5.0 version of the SCF Hessian            
  Marcos Casanova-Páez   : Triplet and SCS-CIS(D). UHF-(DLPNO)-IP/EA/STEOM-CCSD. UHF-CVS-IP/STEOM-CCSD   
  Vijay G. Chilkuri      : MRCI spin determinant printing, contributions to CSF-ICE 
  Pauline Colinet        : FMM embedding                                 
  Dipayan Datta          : RHF DLPNO-CCSD density                        
  Achintya Kumar Dutta   : EOM-CC, STEOM-CC                              
  Nicolas Foglia         : Exact transition moments, OPA infrastructure, MCD improvements    
  Dmitry Ganyushin       : Spin-Orbit,Spin-Spin,Magnetic field MRCI      
  Miquel Garcia-Rates    : C-PCM and meta-GGA Hessian, CCSD/C-PCM, Gaussian charge scheme 
  Tiago L. C. Gouveia    : GS-ROHF, GS-ROCIS                             
  Yang Guo               : DLPNO-NEVPT2, F12-NEVPT2, CIM, IAO-localization        
  Andreas Hansen         : Spin unrestricted coupled pair/coupled cluster methods 
  Ingolf Harden          : AUTO-CI MPn and infrastructure                
  Benjamin Helmich-Paris : MC-RPA, TRAH-(SCF,CASSCF), AVAS, COSX integrals, SCF dyn. polar., MC-PDFT, srDFT 
  Lee Huntington         : MR-EOM, pCC                                   
  Robert Izsak           : Overlap fitted RIJCOSX, COSX-SCS-MP3, EOM     
  Riya Kayal             : Wick's Theorem for AUTO-CI, AUTO-CI UHF-CCSDT 
  Emily Kempfer          : AUTO-CI RHF CISDT and CCSDT, approximate NEVPT4
  Christian Kollmar      : KDIIS, OOCD, Brueckner-CCSD(T), CCSD density, CASPT2, CASPT2-K, improved NEVPT2 
  Axel Koslowski         : Symmetry handling                             
  Simone Kossmann        : meta-GGA functionals, TD-DFT gradient, OOMP2, (MP2 Hessian; deprecated post 5.0) 
  Lucas Lang             : DCDCAS, Hyperfine gauge corrections, ICE-SOC+SSC
  Marvin Lechner         : AUTO-CI (C++ implementation), FIC-MRCC        
  Spencer Leger          : CASSCF response                               
  Dagmar Lenk            : GEPOL surface, SMD, ORCA-2-JSON               
  Dimitrios Liakos       : Extrapolation schemes; Compound Job, Property file
  Dimitrios Manganas     : Further ROCIS development; embedding schemes. LFT, Crystal Embedding 
  Dimitrios Pantazis     : SARC Basis sets                               
  Anastasios Papadopoulos: AUTO-CI, single reference methods and gradients 
  Taras Petrenko         : pre 6.0 DFT Hessian and TD-DFT gradient,  ECA, NRVS 
  Petra Pikulova         : Analytic Raman intensities                    
  Peter Pinski           : DLPNO-MP2, DLPNO-MP2 Gradient                 
  Shashank Vittal Rao    : ES-AILFT, MagRelax                            
  Christoph Reimann      : Effective Core Potentials                     
  Marius Retegan         : Local ZFS, SOC                                
  Christoph Riplinger    : Optimizer, TS searches, QM/MM, DLPNO-CCSD(T), (RO)-DLPNO pert. Triples 
  Michael Roemelt        : Original ROCIS implementation, recursive CI coupling coefficients
  Masaaki Saitow         : Open-shell DLPNO-CCSD energy and density      
  Barbara Sandhoefer     : DKH picture change effects                    
  Yorick L. A. Schmerwitz: GMF and freeze-and-release deltaSCF, NEB S-IDPP initial path                    
  Kantharuban Sivalingam : CASSCF convergence/infrastructure, NEVPT2, NEVPT3, NEVPT4(SD), FIC-MRCI and CEPA variants
  Bernardo de Souza      : ESD, SOC TD-DFT                               
  Georgi L. Stoychev     : AutoAux, RI-MP2 NMR, DLPNO-MP2 response, X2C  
  Van Anh Tran           : RI-MP2 g-tensors                              
  Willem Van den Heuvel  : Paramagnetic NMR                              
  Zikuan Wang            : NOTCH, Electric field optimization            
  Frank Wennmohs         : Technical directorship and infrastructure     
  Hang Xu                : AUTO-CI-Response properties                   
                                                                         
[FACCTs GmbH]                                                            
  Markus Bursch, Nicolas Foglia, Miquel Garcia-Rates, Ingolf Harden, Hagen Neugebauer, Anastasios Papadopoulos, 
  Christoph Riplinger, Bernardo de Souza, Georgi L. Stoychev                                                    
                                                                 
  APM, various basis sets, CI-OPT, improved COSX, DLPNO-Multilevel,           
  DOCKER, DRACO, updates on ESD, Fragmentator, GOAT, IRC, LR-CPCM, L-BFGS, MBIS, meta-GGA TD-DFT gradient, ML-optimized integration grids, 
  MM, NACMEs, nearIR, NEB, NEB-TS, NL-DFT gradient (VV10), 2- and 3-layer-ONIOM, interface openCOSMO-RS, QMMM,   
  Crystal-QMMM, RESP, rigid body optimization, SF, symmetry and pop. for TD-DFT, various functionals, SOLVATOR                                   
                                                                         
[Other institutions]                                                     
  V. Asgeirsson          : NEB                                           
  Christoph Bannwarth    : sTDA-DFT, sTD-DFT, PBEh-3c, B97-3c, D3        
  Giovanni Bistoni       : ETS/NOCV, ADLD/ADEX, COVALED                  
  Martin Brehm           : Molecular dynamics                            
  Ronald Cardenas        : ETS/NOCV                                      
  Martina Colucci        : COVALED                                       
  Sebastian Ehlert       : rSCAN, r2SCAN, r2SCAN-3c, D4, dhf basis sets  
  Marvin Friede          : D4 for Fr, Ra, Ac-Lr                          
  Lars Goerigk           : TD-DFT with DH, B97 family of functionals     
  Stefan Grimme          : VdW corrections, initial TS optimization, DFT functionals, gCP, sTDA/sTD-DF 
  Waldemar Hujo          : DFT-NL                                        
  H. Jonsson             : NEB                                           
  Holger Kruse           : gCP                                           
  Marcel Mueller         : wB97X-3c, vDZP basis set                      
  Hagen Neugebauer       : wr2SCAN, Native XTB                           
  Gianluca Regni         : ADLD/ADEX                                     
  Tobias Risthaus        : pre 6.0 range-separated hybrid DFT and stability analysis
  Lukas Wittmann         : regularized MP2, r2SCAN double-hybrids, wr2SCAN        
                                                                         
We gratefully acknowledge several colleagues who have allowed us to      
interface, adapt or use parts of their codes:                            
  Ed Valeev, F. Pavosevic, A. Kumar             : LibInt (2-el integral package), F12 methods 
  Garnet Chan, S. Sharma, J. Yang, R. Olivares  : DMRG                   
  Ulf Ekstrom                                   : XCFun DFT Library      
  Mihaly Kallay                                 : mrcc  (arbitrary order and MRCC methods)
  Frank Weinhold                                : gennbo (NPA and NBO analysis)           
  Simon Mueller                                 : openCOSMO-RS                            
  Christopher J. Cramer and Donald G. Truhlar   : smd solvation model                     
  S Lehtola, MJT Oliveira, MAL Marques          : LibXC Library                           
  Liviu Ungur et al                             : ANISO software                          


 Your calculation uses the libint2 library for the computation of 2-el integrals
 For citations please refer to: http://libint.valeyev.net

 Your ORCA version has been built with support for libXC version: 7.0.0
 For citations please refer to: https://libxc.gitlab.io

 This ORCA versions uses:
   CBLAS   interface :  Fast vector & matrix operations
   LAPACKE interface :  Fast linear algebra routines
   SCALAPACK package :  Parallel linear algebra routines
   Shared memory     :  Shared parallel matrices
   BLAS/LAPACK       :  OpenBLAS 0.3.29  USE64BITINT DYNAMIC_ARCH NO_AFFINITY Bulldozer SINGLE_THREADED
        Core in use  :  Bulldozer
   Copyright (c) 2011-2014, The OpenBLAS Project


  ***********************************
  * Starting time: Fri Aug 15 10:29:06 2025
  * Host name:     chromium08
  * Process ID:    287901
  * Working dir.:  /local/scratch/mehlhorn/61940
  ***********************************



***************************************
The coordinates will be read from file: start.xyz
***************************************


Your calculation utilizes the geometrical counterpoise correction gCP
Please cite in your paper:
H.Kruse, S. Grimme J.Chem.Phys., 136, (2012), 154101 
   

Your calculation utilizes the atom-pairwise dispersion correction
with the Becke-Johnson damping scheme (D3BJ)


Warning: RI is on but no J-basis has been assigned. Assigning Def2/J (nothing to worry about!)
================================================================================

----- Orbital basis set information -----
Your calculation utilizes the basis: def2-SV(P)
   F. Weigend and R. Ahlrichs, Phys. Chem. Chem. Phys. 7, 3297 (2005).

----- AuxJ basis set information -----
Your calculation utilizes the auxiliary basis: def2/J
   H-Rn: F. Weigend, Phys. Chem. Chem. Phys. 8, 1057 (2006).
   Fr-Lr: K. Eichkorn, F. Weigend, O. Treutler, R. Ahlrichs; Theor. Chem. Acc. 97, 119 (1997).

================================================================================
                                        WARNINGS
                       Please study these warnings very carefully!
================================================================================


WARNING: Gradients are needed
  ===> : At least TightSCF should be used for SCF convergence

WARNING: Geometry Optimization
  ===> : Switching off AutoStart
         For restart on a previous wavefunction, please use MOREAD

================================================================================
                                       INPUT FILE
================================================================================
NAME = run.inp
|  1> # Geometry optimization for (AlH3)n cluster
|  2> 
|  3> %pal nprocs 24  end
|  4> 
|  5> %geom MaxIter 500 end
|  6> 
|  7> 
|  8> ! PBE def2-SV(P)
|  9> ! RKS	# closed shell for AlH3
| 10> ! D3    #  dispersion correction
| 11> ! gCP(DFT/SV(P))
| 12> ! Freq 	# Frequency analysis to check the stabiltity of the structures
| 13> 
| 14> ! NoPop # population analysis not necessary	
| 15> 
| 16> ! RI
| 17> ! DEFGRID2
| 18> ! NormalSCF
| 19> ! SloppyOpt
| 20> 
| 21> ! SmallPrint
| 22> 
| 23> 
| 24> * xyzFile 0 1 start.xyz # only maingroup elements H and Al so there should be no net spin
| 25> 
| 26>                          ****END OF INPUT****
================================================================================

                       *****************************
                       * Geometry Optimization Run *
                       *****************************

Geometry optimization settings:
Update method            Update   .... BFGS
Choice of coordinates    CoordSys .... (2022) Redundant Internals
Initial Hessian          InHess   .... Almloef's Model
Max. no of cycles        MaxIter  .... 500

Convergence Tolerances:
Energy Change            TolE     ....  8.0000e-05 Eh
Max. Gradient            TolMAXG  ....  5.0000e-03 Eh/bohr
RMS Gradient             TolRMSG  ....  1.0000e-03 Eh/bohr
Max. Displacement        TolMAXD  ....  3.0000e-02 bohr
RMS Displacement         TolRMSD  ....  2.0000e-02 bohr
Strict Convergence                .... False

------------------------------------------------------------------------------
                        ORCA OPTIMIZATION COORDINATE SETUP
------------------------------------------------------------------------------

The optimization will be done in redundant internal coordinates (2022)
Making redundant internal coordinates   ...  (2022 redundants) done
Evaluating the initial hessian          ...  (Almloef) done
Evaluating the coordinates              ...  done
Calculating the B-matrix                .... done
Calculating the G-matrix                .... done
The number of degrees of freedom        ....  293

    -----------------------------------------------------------------
                    Redundant Internal Coordinates


    -----------------------------------------------------------------
         Definition                    Initial Value    Approx d2E/dq
    -----------------------------------------------------------------
      1. B(Al  1,Al  0)                  3.1887         0.041419   
      2. B(H   2,Al  1)                  1.6115         0.371545   
      3. B(H   3,Al  1)                  1.8815         0.137781   
      4. B(H   4,Al  1)                  1.7631         0.212905   
      5. B(H   4,Al  0)                  1.7368         0.234451   
      6. B(H   5,Al  0)                  2.1635         0.048893   
      7. B(H   6,Al  0)                  1.7025         0.265963   
      8. B(H   7,Al  1)                  1.6941         0.274311   
      9. B(Al  8,Al  1)                  3.2024         0.039391   
     10. B(Al  8,H   2)                  1.6925         0.275900   
     11. B(H   9,Al  8)                  1.5224         0.515476   
     12. B(H  10,Al  8)                  1.8754         0.140893   
     13. B(H  11,Al  0)                  1.9326         0.114201   
     14. B(Al 12,Al  8)                  3.0079         0.080461   
     15. B(Al 12,H   6)                  1.7019         0.266550   
     16. B(Al 12,Al  0)                  3.1300         0.051382   
     17. B(Al 12,H   9)                  1.8822         0.137422   
     18. B(H  14,Al 12)                  1.6260         0.352204   
     19. B(H  15,Al  8)                  1.5072         0.545072   
     20. B(Al 16,H  13)                  1.2637         1.332967   
     21. B(Al 16,Al 12)                  2.9208         0.110822   
     22. B(H  17,Al 16)                  1.4057         0.791238   
     23. B(H  18,Al 16)                  1.8532         0.152864   
     24. B(Al 19,Al 16)                  2.5057         0.509144   
     25. B(Al 19,Al 12)                  2.9768         0.090201   
     26. B(H  20,Al 19)                  1.5861         0.407888   
     27. B(H  21,Al 19)                  1.8855         0.135788   
     28. B(H  22,H  14)                  2.5639         0.010000   
     29. B(H  22,Al 19)                  2.2446         0.036303   
     30. B(H  22,Al 12)                  2.8371         0.010000   
     31. B(H  23,Al 19)                  1.9253         0.117312   
     32. B(H  23,Al 16)                  1.8876         0.134739   
     33. A(H   5,Al  0,H   6)          137.9488         0.256302   
     34. A(H   5,Al  0,Al 12)          160.4792         0.229665   
     35. A(H   4,Al  0,Al 12)           85.6559         0.289575   
     36. A(H   6,Al  0,Al 12)           23.1555         0.295383   
     37. A(H   5,Al  0,H  11)          102.9281         0.227166   
     38. A(Al  1,Al  0,H  11)          137.7616         0.251324   
     39. A(Al  1,Al  0,H   4)           24.5387         0.280024   
     40. A(Al  1,Al  0,Al 12)           88.3807         0.254261   
     41. A(H   4,Al  0,H   6)           95.8805         0.327556   
     42. A(H   6,Al  0,H  11)           98.4361         0.291716   
     43. A(Al  1,Al  0,H   5)           98.3730         0.222967   
     44. A(H   4,Al  0,H   5)          107.9499         0.251594   
     45. A(H   4,Al  0,H  11)          113.2785         0.286011   
     46. A(H  11,Al  0,Al 12)           83.5061         0.259441   
     47. A(Al  1,Al  0,H   6)           89.1448         0.285555   
     48. A(H   2,Al  1,H   7)           90.1061         0.355617   
     49. A(Al  0,Al  1,H   7)          101.0194         0.286935   
     50. A(H   3,Al  1,H   7)          103.6911         0.301998   
     51. A(H   2,Al  1,H   3)          146.4643         0.317139   
     52. A(H   2,Al  1,H   4)           88.4303         0.340754   
     53. A(Al  0,Al  1,H   3)          112.3739         0.258369   
     54. A(H   7,Al  1,Al  8)          104.2528         0.284699   
     55. A(H   2,Al  1,Al  8)           14.6087         0.298610   
     56. A(H   4,Al  1,Al  8)           88.0034         0.273790   
     57. A(Al  0,Al  1,Al  8)           87.9291         0.244613   
     58. A(H   4,Al  1,H   7)           77.6087         0.324046   
     59. A(H   3,Al  1,Al  8)          141.2061         0.256456   
     60. A(Al  0,Al  1,H   2)           94.2408         0.301005   
     61. A(H   3,Al  1,H   4)          124.0980         0.290125   
     62. A(Al  0,Al  1,H   4)           24.1500         0.275901   
     63. A(Al  1,H   2,Al  8)          151.4964         0.355965   
     64. A(Al  0,H   4,Al  1)          131.3113         0.315840   
     65. A(Al  0,H   6,Al 12)          133.6804         0.334586   
     66. A(H   9,Al  8,H  15)           88.8229         0.424404   
     67. A(Al  1,Al  8,H  10)          101.4443         0.257305   
     68. A(H   2,Al  8,H   9)          107.6017         0.376501   
     69. A(H   2,Al  8,H  15)          143.9571         0.380157   
     70. A(H   2,Al  8,H  10)          103.0465         0.303358   
     71. A(Al  1,Al  8,H   2)           13.8949         0.284955   
     72. A(H   9,Al  8,H  10)          119.9219         0.335934   
     73. A(H  10,Al  8,Al 12)          150.9380         0.286835   
     74. A(H   9,Al  8,Al 12)           31.3351         0.354340   
     75. A(Al 12,Al  8,H  15)           82.8860         0.357714   
     76. A(H   2,Al  8,Al 12)           94.6928         0.319336   
     77. A(Al  1,Al  8,Al 12)           90.2912         0.269850   
     78. A(H  10,Al  8,H  15)           95.3829         0.339074   
     79. A(Al  1,Al  8,H  15)          156.1003         0.317604   
     80. A(Al  1,Al  8,H   9)           97.2031         0.314734   
     81. A(Al  8,H   9,Al 12)          123.7917         0.334543   
     82. A(H   9,Al 12,Al 16)           91.0052         0.300506   
     83. A(Al  8,Al 12,Al 16)          113.4109         0.317559   
     84. A(H   6,Al 12,Al 16)           99.7004         0.334722   
     85. A(Al  0,Al 12,Al 16)          119.4193         0.295497   
     86. A(Al 19,Al 12,H  22)           45.3411         0.180257   
     87. A(Al 16,Al 12,H  22)           75.6726         0.184611   
     88. A(H   9,Al 12,H  22)           93.0396         0.171292   
     89. A(Al  8,Al 12,H  22)           88.3207         0.177927   
     90. A(H  14,Al 12,Al 16)          130.5742         0.350719   
     91. A(H   6,Al 12,H  22)          174.0729         0.184605   
     92. A(Al  0,Al 12,H  22)          162.6777         0.169343   
     93. A(H   9,Al 12,H  14)          116.6326         0.314262   
     94. A(Al  8,Al 12,H  14)           92.7738         0.332424   
     95. A(H   6,Al 12,H  14)          122.3425         0.350705   
     96. A(Al  0,Al 12,H  14)           99.1988         0.308928   
     97. A(Al  8,Al 12,H   9)           24.8733         0.285721   
     98. A(H   6,Al 12,H   9)           83.2573         0.300494   
     99. A(Al  0,Al 12,H   9)           95.0081         0.266733   
    100. A(H   6,Al 12,Al  8)           90.1985         0.317546   
    101. A(Al  0,Al 12,Al  8)           92.5574         0.281062   
    102. A(H  14,Al 12,H  22)           63.4802         0.190829   
    103. A(Al 16,Al 12,Al 19)           50.2738         0.323547   
    104. A(H  14,Al 12,Al 19)           80.6874         0.338802   
    105. A(Al  0,Al 12,H   6)           23.1641         0.295486   
    106. A(H   9,Al 12,Al 19)          124.3013         0.290876   
    107. A(Al  8,Al 12,Al 19)          131.0345         0.307152   
    108. A(H   6,Al 12,Al 19)          134.0139         0.323534   
    109. A(Al  0,Al 12,Al 19)          136.4046         0.286095   
    110. A(Al 12,H  14,H  22)           81.9454         0.127305   
    111. A(Al 12,Al 16,H  18)          112.0261         0.305666   
    112. A(H  13,Al 16,H  17)          101.6696         0.541471   
    113. A(Al 12,Al 16,H  17)          105.4135         0.403337   
    114. A(Al 12,Al 16,H  13)           41.3776         0.442723   
    115. A(Al 19,Al 16,H  23)           49.5686         0.386350   
    116. A(H  18,Al 16,H  23)          106.2068         0.274655   
    117. A(H  17,Al 16,H  23)           72.4916         0.358346   
    118. A(H  13,Al 16,H  23)          154.8548         0.392096   
    119. A(Al 12,Al 16,H  23)          115.3452         0.299564   
    120. A(H  18,Al 16,Al 19)          122.0737         0.394966   
    121. A(H  17,Al 16,Al 19)           89.7780         0.532894   
    122. A(H  13,Al 16,Al 19)          107.1275         0.588514   
    123. A(Al 12,Al 16,Al 19)           66.0233         0.436018   
    124. A(H  17,Al 16,H  18)          138.0741         0.366152   
    125. A(H  13,Al 16,H  18)           94.4034         0.400879   
    126. A(H  22,Al 19,H  23)          113.7788         0.218949   
    127. A(H  21,Al 19,H  22)          116.9557         0.223323   
    128. A(H  20,Al 19,H  22)          114.6926         0.261293   
    129. A(Al 16,Al 19,H  22)           95.9302         0.309981   
    130. A(Al 12,Al 19,H  22)           64.0368         0.238360   
    131. A(H  21,Al 19,H  23)          114.8257         0.264165   
    132. A(H  20,Al 19,H  23)           70.2015         0.313680   
    133. A(Al 16,Al 19,H  23)           48.2689         0.377173   
    134. A(Al 12,Al 19,H  23)          111.7409         0.283774   
    135. A(H  20,Al 19,H  21)          117.8642         0.321242   
    136. A(Al 16,Al 19,H  21)           88.1202         0.386872   
    137. A(Al 12,Al 19,H  21)           62.2287         0.290330   
    138. A(Al 16,Al 19,H  20)          118.2913         0.471073   
    139. A(Al 12,Al 19,Al 16)           63.7029         0.420218   
    140. A(Al 12,H  22,H  14)           34.5744         0.102993   
    141. A(Al 12,H  22,Al 19)           70.6222         0.149885   
    142. A(H  14,H  22,Al 19)           81.6435         0.111903   
    143. A(Al 16,H  23,Al 19)           82.1625         0.263858   
    144. D(H   3,Al  1,Al  0,H   4)   -124.3145         0.010000   
    145. D(H   3,Al  1,Al  0,H  11)   -128.8962         0.010000   
    146. D(H   3,Al  1,Al  0,H   6)    129.4600         0.010000   
    147. D(H   3,Al  1,Al  0,Al 12)    152.6085         0.010000   
    148. D(H   2,Al  1,Al  0,H   5)   -168.1259         0.010000   
    149. D(H   3,Al  1,Al  0,H   5)     -8.9948         0.010000   
    150. D(H   2,Al  1,Al  0,H  11)     71.9727         0.010000   
    151. D(H   2,Al  1,Al  0,H   6)    -29.6711         0.010000   
    152. D(H   2,Al  1,Al  0,H   4)     76.5544         0.010000   
    153. D(H   2,Al  1,Al  0,Al 12)     -6.5226         0.010000   
    154. D(Al  8,H   2,Al  1,H   4)     88.1061         0.010000   
    155. D(Al  8,H   2,Al  1,Al  0)     64.6490         0.010000   
    156. D(Al  8,H   2,Al  1,H   3)    -78.7478         0.010000   
    157. D(Al  8,H   2,Al  1,H   7)    165.7070         0.010000   
    158. D(Al  0,H   4,Al  1,Al  8)    -89.3912         0.010000   
    159. D(Al  1,H   4,Al  0,H   6)     74.8272         0.010000   
    160. D(Al  0,H   4,Al  1,H   7)    165.5456         0.010000   
    161. D(Al  0,H   4,Al  1,H   3)     67.2718         0.010000   
    162. D(Al  1,H   4,Al  0,Al 12)     95.6327         0.010000   
    163. D(Al  1,H   4,Al  0,H   5)    -70.0611         0.010000   
    164. D(Al  1,H   4,Al  0,H  11)    176.6488         0.010000   
    165. D(Al  0,H   4,Al  1,H   2)   -104.0008         0.010000   
    166. D(Al 12,H   6,Al  0,Al  1)     87.8814         0.010000   
    167. D(Al 12,H   6,Al  0,H  11)    -50.3913         0.010000   
    168. D(Al 12,H   6,Al  0,H   5)   -170.5303         0.010000   
    169. D(Al 12,H   6,Al  0,H   4)     64.2485         0.010000   
    170. D(H   2,Al  8,Al  1,H   7)    -14.7570         0.010000   
    171. D(H   2,Al  8,Al  1,H   3)    120.1360         0.010000   
    172. D(H   2,Al  8,Al  1,H   4)    -91.4368         0.010000   
    173. D(H   2,Al  8,Al  1,Al  0)   -115.6022         0.010000   
    174. D(H   9,Al  8,Al  1,Al  0)     23.7190         0.010000   
    175. D(H  15,Al  8,H   2,Al  1)   -156.2589         0.010000   
    176. D(H   9,Al  8,H   2,Al  1)    -42.7216         0.010000   
    177. D(H  10,Al  8,Al  1,Al  0)    146.3054         0.010000   
    178. D(H  10,Al  8,H   2,Al  1)     84.9185         0.010000   
    179. D(H   9,Al  8,Al  1,H   7)    124.5642         0.010000   
    180. D(H   9,Al  8,Al  1,H   3)   -100.5428         0.010000   
    181. D(H   9,Al  8,Al  1,H   4)     47.8843         0.010000   
    182. D(Al 12,Al  8,H   2,Al  1)    -71.9048         0.010000   
    183. D(H   9,Al  8,Al  1,H   2)    139.3212         0.010000   
    184. D(Al 12,H   9,Al  8,H  15)     78.2029         0.014381   
    185. D(Al 12,H   9,Al  8,H  10)    173.7369         0.014381   
    186. D(Al 12,H   9,Al  8,H   2)    -69.1440         0.014381   
    187. D(Al 12,H   9,Al  8,Al  1)    -78.5958         0.014381   
    188. D(Al 19,Al 12,H   6,Al  0)    107.5726         0.010000   
    189. D(H  14,Al 12,H   6,Al  0)     -2.6371         0.010000   
    190. D(H   9,Al 12,Al  0,H   4)    -56.3284         0.010000   
    191. D(H   9,Al 12,Al  0,H  11)   -170.3791         0.010000   
    192. D(H   9,Al 12,Al  0,H   6)     59.7064         0.010000   
    193. D(H   9,Al 12,Al  0,Al  1)    -31.9055         0.010000   
    194. D(Al  8,Al 12,Al  0,H   5)    103.7715         0.010000   
    195. D(Al  8,Al 12,Al  0,H  11)   -145.5700         0.010000   
    196. D(Al 16,Al 12,H   6,Al  0)    150.1449         0.010000   
    197. D(H   9,Al 12,H   6,Al  0)   -119.9862         0.010000   
    198. D(Al  8,Al 12,H   6,Al  0)    -96.0466         0.010000   
    199. D(Al  8,Al 12,Al  0,H   6)     84.5154         0.010000   
    200. D(H   6,Al 12,Al  0,H  11)    129.9146         0.010000   
    201. D(Al  8,Al 12,Al  0,Al  1)     -7.0964         0.010000   
    202. D(H   6,Al 12,Al  0,H   5)     19.2560         0.010000   
    203. D(Al  8,Al 12,Al  0,H   4)    -31.5193         0.010000   
    204. D(H   6,Al 12,Al  0,H   4)   -116.0347         0.010000   
    205. D(H  22,Al 12,H   6,Al  0)   -171.5436         0.010000   
    206. D(H   6,Al 12,Al  0,Al  1)    -91.6118         0.010000   
    207. D(H  22,Al 12,H   9,Al  8)    -79.3793         0.010000   
    208. D(Al 19,Al 12,H   9,Al  8)   -114.7092         0.010000   
    209. D(Al 16,Al 12,H   9,Al  8)   -155.0841         0.010000   
    210. D(H   6,Al 12,H   9,Al  8)    105.2663         0.010000   
    211. D(Al  0,Al 12,H   9,Al  8)     85.2664         0.010000   
    212. D(H   9,Al 12,Al  8,H  10)    -11.2244         0.010000   
    213. D(H   9,Al 12,Al  8,H   2)    116.6550         0.010000   
    214. D(H   9,Al 12,Al  8,Al  1)    103.4599         0.010000   
    215. D(H   6,Al 12,Al  8,H  15)   -172.8522         0.010000   
    216. D(H   6,Al 12,Al  8,H  10)    -84.5689         0.010000   
    217. D(Al  0,Al 12,Al  8,H  15)    164.0957         0.010000   
    218. D(Al  0,Al 12,Al  8,H   9)    -96.3967         0.010000   
    219. D(Al  0,Al 12,Al  8,H  10)   -107.6210         0.010000   
    220. D(H   6,Al 12,Al  8,H   9)    -73.3446         0.010000   
    221. D(H  14,Al 12,H   9,Al  8)    -17.6462         0.010000   
    222. D(H   6,Al 12,Al  8,H   2)     43.3105         0.010000   
    223. D(Al  0,Al 12,Al  8,H   2)     20.2584         0.010000   
    224. D(Al  0,Al 12,Al  8,Al  1)      7.0632         0.010000   
    225. D(H   6,Al 12,Al  8,Al  1)     30.1153         0.010000   
    226. D(H  22,H  14,Al 12,Al 19)     44.4222         0.010000   
    227. D(H  22,H  14,Al 12,Al 16)     37.6815         0.010000   
    228. D(H  22,H  14,Al 12,H   9)    -79.4003         0.010000   
    229. D(H  22,H  14,Al 12,Al  8)    -86.7343         0.010000   
    230. D(H  22,H  14,Al 12,H   6)   -178.7276         0.010000   
    231. D(H  22,H  14,Al 12,Al  0)   -179.7782         0.010000   
    232. D(H  17,Al 16,Al 12,Al 19)    -82.7030         0.010000   
    233. D(H  17,Al 16,Al 12,H  14)    -74.0411         0.010000   
    234. D(H  17,Al 16,Al 12,H   9)     53.2079         0.010000   
    235. D(H  17,Al 16,Al 12,Al  8)     42.0744         0.010000   
    236. D(H  17,Al 16,Al 12,H   6)    136.5389         0.010000   
    237. D(H  17,Al 16,Al 12,Al  0)    149.5306         0.010000   
    238. D(H  13,Al 16,Al 12,H  22)   -129.9274         0.010000   
    239. D(H  13,Al 16,Al 12,Al 19)   -172.9576         0.010000   
    240. D(H  13,Al 16,Al 12,H  14)   -164.2958         0.010000   
    241. D(H  13,Al 16,Al 12,H   9)    -37.0468         0.010000   
    242. D(H  13,Al 16,Al 12,Al  8)    -48.1802         0.010000   
    243. D(H  13,Al 16,Al 12,H   6)     46.2842         0.010000   
    244. D(H  13,Al 16,Al 12,Al  0)     59.2760         0.010000   
    245. D(H  21,Al 19,Al 16,Al 12)     59.7488         0.010000   
    246. D(H  20,Al 19,Al 16,H  18)     78.7703         0.010000   
    247. D(H  20,Al 19,Al 16,H  17)    -72.3464         0.010000   
    248. D(H  20,Al 19,Al 16,H  13)   -174.4959         0.010000   
    249. D(Al 12,Al 19,Al 16,H  23)    173.9391         0.010000   
    250. D(Al 12,Al 19,Al 16,H  18)   -101.8691         0.010000   
    251. D(Al 12,Al 19,Al 16,H  17)    107.0142         0.010000   
    252. D(Al 12,Al 19,Al 16,H  13)      4.8647         0.010000   
    253. D(H  21,Al 19,Al 12,H  22)    145.7147         0.010000   
    254. D(H  21,Al 19,Al 12,Al 16)   -102.6430         0.010000   
    255. D(H  21,Al 19,Al 12,H  14)     84.0136         0.010000   
    256. D(H  21,Al 19,Al 12,H   9)   -160.0086         0.010000   
    257. D(H  21,Al 19,Al 12,Al  8)    169.5567         0.010000   
    258. D(H  21,Al 19,Al 12,H   6)    -42.5265         0.010000   
    259. D(H  21,Al 19,Al 12,Al  0)     -9.5811         0.010000   
    260. D(Al 16,Al 19,Al 12,H  22)   -111.6423         0.010000   
    261. D(H  20,Al 19,Al 16,Al 12)   -179.3606         0.010000   
    262. D(Al 16,Al 19,Al 12,H  14)   -173.3433         0.010000   
    263. D(Al 16,Al 19,Al 12,H   9)    -57.3656         0.010000   
    264. D(Al 16,Al 19,Al 12,Al  8)    -87.8002         0.010000   
    265. D(H  20,Al 19,Al 16,H  23)     -5.4215         0.010000   
    266. D(Al 16,Al 19,Al 12,H   6)     60.1166         0.010000   
    267. D(Al 16,Al 19,Al 12,Al  0)     93.0619         0.010000   
    268. D(Al 19,H  22,Al 12,Al  8)   -162.2396         0.010000   
    269. D(Al 19,H  22,Al 12,H   6)    -86.6485         0.010000   
    270. D(Al 19,H  22,Al 12,Al  0)    104.5544         0.010000   
    271. D(Al 12,H  22,Al 19,H  20)   -178.1871         0.010000   
    272. D(Al 12,H  22,Al 19,Al 16)     56.9077         0.010000   
    273. D(H  14,H  22,Al 19,H  23)    137.4765         0.010000   
    274. D(H  14,H  22,Al 19,H  20)   -144.3410         0.010000   
    275. D(H  14,H  22,Al 19,Al 16)     90.7538         0.010000   
    276. D(H  14,H  22,Al 19,Al 12)     33.8461         0.010000   
    277. D(Al 19,H  22,H  14,Al 12)    -67.8008         0.010000   
    278. D(H  14,H  22,Al 12,H   9)    118.3716         0.010000   
    279. D(H  14,H  22,Al 12,Al  8)     93.9414         0.010000   
    280. D(H  14,H  22,Al 12,H   6)    169.5325         0.010000   
    281. D(H  14,H  22,Al 19,H  21)     -0.1530         0.010000   
    282. D(H  14,H  22,Al 12,Al  0)      0.7354         0.010000   
    283. D(Al 19,H  22,Al 12,Al 16)    -47.5475         0.010000   
    284. D(Al 19,H  22,Al 12,H  14)    103.8190         0.010000   
    285. D(Al 19,H  22,Al 12,H   9)   -137.8094         0.010000   
    286. D(Al 16,H  23,Al 19,H  22)    -76.0124         0.010000   
    287. D(Al 16,H  23,Al 19,H  21)     62.5450         0.010000   
    288. D(Al 16,H  23,Al 19,H  20)    174.9271         0.010000   
    289. D(Al 16,H  23,Al 19,Al 12)     -5.8490         0.010000   
    290. D(Al 19,H  23,Al 16,H  18)   -118.6095         0.010000   
    291. D(Al 19,H  23,Al 16,H  17)    105.2743         0.010000   
    292. D(Al 19,H  23,Al 16,H  13)     25.2313         0.010000   
    293. D(Al 19,H  23,Al 16,Al 12)      6.1280         0.010000   
    -----------------------------------------------------------------

Number of atoms                         .... 24
Number of degrees of freedom            .... 293


         *************************************************************
         *                GEOMETRY OPTIMIZATION CYCLE   1            *
         *************************************************************
---------------------------------
CARTESIAN COORDINATES (ANGSTROEM)
---------------------------------
  Al    -0.334910    1.128240    2.788780
  Al     0.131570   -0.237880   -0.054440
  H      0.789370   -1.573750    0.561700
  H     -0.972650    0.494050   -1.390510
  H      0.598260    0.612650    1.417690
  H     -1.614440    2.752410    2.151790
  H     -0.504810   -0.419960    3.476290
  H      1.673520    0.345160   -0.444750
  Al     0.695350   -2.986740    1.488620
  H     -0.073070   -2.653160    2.759770
  H      0.002820   -4.241380    0.278850
  H      0.734520    1.939970    4.178890
  Al     0.594870   -1.544490    4.126330
  H     -1.176760   -2.481840    4.882200
  H      2.200160   -1.285750    4.135740
  H      1.505890   -3.983120    2.277150
  Al    -1.131980   -2.841190    6.092940
  H     -0.869040   -4.216760    5.971720
  H     -2.531640   -1.745990    6.618280
  Al     1.216150   -2.472140    6.885860
  H      1.603080   -2.962450    8.343780
  H      0.949860   -0.624710    6.619140
  H      2.204280   -3.608450    5.221360
  H     -0.274040   -3.397340    7.679650

----------------------------
CARTESIAN COORDINATES (A.U.)
----------------------------
  NO LB      ZA    FRAG     MASS         X           Y           Z
   0 Al   13.0000    0    26.982   -0.632888    2.132065    5.270030
   1 Al   13.0000    0    26.982    0.248631   -0.449528   -0.102877
   2 H     1.0000    0     1.008    1.491693   -2.973957    1.061459
   3 H     1.0000    0     1.008   -1.838042    0.933619   -2.627683
   4 H     1.0000    0     1.008    1.130548    1.157741    2.679046
   5 H     1.0000    0     1.008   -3.050849    5.201301    4.066294
   6 H     1.0000    0     1.008   -0.953953   -0.793609    6.569236
   7 H     1.0000    0     1.008    3.162494    0.652258   -0.840456
   8 Al   13.0000    0    26.982    1.314021   -5.644121    2.813084
   9 H     1.0000    0     1.008   -0.138082   -5.013746    5.215209
  10 H     1.0000    0     1.008    0.005329   -8.015047    0.526950
  11 H     1.0000    0     1.008    1.388042    3.666012    7.896958
  12 Al   13.0000    0    26.982    1.124141   -2.918663    7.797634
  13 H     1.0000    0     1.008   -2.223754   -4.689998    9.226021
  14 H     1.0000    0     1.008    4.157700   -2.429715    7.815416
  15 H     1.0000    0     1.008    2.845720   -7.527006    4.303190
  16 Al   13.0000    0    26.982   -2.139132   -5.369071   11.513988
  17 H     1.0000    0     1.008   -1.642248   -7.968522   11.284915
  18 H     1.0000    0     1.008   -4.784106   -3.299443   12.506737
  19 Al   13.0000    0    26.982    2.298190   -4.671668   13.012390
  20 H     1.0000    0     1.008    3.029382   -5.598219   15.767459
  21 H     1.0000    0     1.008    1.794975   -1.180531   12.508362
  22 H     1.0000    0     1.008    4.165486   -6.818982    9.866940
  23 H     1.0000    0     1.008   -0.517861   -6.420042   14.512435

--------------------------------
INTERNAL COORDINATES (ANGSTROEM)
--------------------------------
 Al     0   0   0     0.000000000000     0.00000000     0.00000000
 Al     1   0   0     3.188696820521     0.00000000     0.00000000
 H      2   1   0     1.611483166682    94.24081941     0.00000000
 H      2   1   3     1.881517041698   112.37392247   159.13108005
 H      1   2   3     1.736815213286    24.53872126    76.55443415
 H      1   2   3     2.163534485489    98.37295049   191.87410195
 H      1   2   3     1.702486196743    89.14476205   330.32887401
 H      2   1   3     1.694074183795   101.01938963   269.06421049
 Al     3   2   1     1.692501458463   151.49640063    64.64897094
 H      9   3   2     1.522355817574   107.60170150   317.27835438
 H      9   3   2     1.875436691387   103.04651137    84.91852032
 H      1   2   3     1.932612721137   137.76155251    71.97267143
 Al     7   1   2     1.701885961191   133.68037010    87.88138971
 H     13   7   1     2.142110486483    83.65648892   166.61983450
 H     13   7   1     1.626035337808   122.34247778   357.36289070
 H      9   3   2     1.507158835989   143.95707954   203.74112636
 Al    14  13   7     1.263736134840   115.67000755   225.79351985
 H     17  14  13     1.405711405979   101.66964938   259.85656163
 H     17  14  13     1.853238589928    94.40336012   118.79095697
 Al    17  14  13     2.505720360655   107.12748997   353.26816002
 H     20  17  14     1.586079899438   118.29134090   185.50412072
 H     20  17  14     1.885483367044    88.12019490    64.61355840
 H     20  17  14     2.244584942255    95.93022187   307.70448398
 H     17  14  13     1.887594365906   154.85481395   333.41997908

---------------------------
INTERNAL COORDINATES (A.U.)
---------------------------
 Al     0   0   0     0.000000000000     0.00000000     0.00000000
 Al     1   0   0     6.025763714890     0.00000000     0.00000000
 H      2   1   0     3.045261854453    94.24081941     0.00000000
 H      2   1   3     3.555551925115   112.37392247   159.13108005
 H      1   2   3     3.282105098338    24.53872126    76.55443415
 H      1   2   3     4.088487658868    98.37295049   191.87410195
 H      1   2   3     3.217232658625    89.14476205   330.32887401
 H      2   1   3     3.201336257918   101.01938963   269.06421049
 Al     3   2   1     3.198364237758   151.49640063    64.64897094
 H      9   3   2     2.876835573596   107.60170150   317.27835438
 H      9   3   2     3.544061728229   103.04651137    84.91852032
 H      1   2   3     3.652108765881   137.76155251    71.97267143
 Al     7   1   2     3.216098377817   133.68037010    87.88138971
 H     13   7   1     4.048002168054    83.65648892   166.61983450
 H     13   7   1     3.072761472535   122.34247778   357.36289070
 H      9   3   2     2.848117440339   143.95707954   203.74112636
 Al    14  13   7     2.388115200388   115.67000755   225.79351985
 H     17  14  13     2.656409580630   101.66964938   259.85656163
 H     17  14  13     3.502113395779    94.40336012   118.79095697
 Al    17  14  13     4.735125249828   107.12748997   353.26816002
 H     20  17  14     2.997256636454   118.29134090   185.50412072
 H     20  17  14     3.563047193777    88.12019490    64.61355840
 H     20  17  14     4.241650825186    95.93022187   307.70448398
 H     17  14  13     3.567036403495   154.85481395   333.41997908

---------------------
BASIS SET INFORMATION
---------------------
There are 2 groups of distinct atoms

 Group   1 Type Al  : 10s7p1d contracted to 4s3p1d pattern {5311/511/1}
 Group   2 Type H   : 4s contracted to 2s pattern {31}

Atom   0Al   basis set group =>   1
Atom   1Al   basis set group =>   1
Atom   2H    basis set group =>   2
Atom   3H    basis set group =>   2
Atom   4H    basis set group =>   2
Atom   5H    basis set group =>   2
Atom   6H    basis set group =>   2
Atom   7H    basis set group =>   2
Atom   8Al   basis set group =>   1
Atom   9H    basis set group =>   2
Atom  10H    basis set group =>   2
Atom  11H    basis set group =>   2
Atom  12Al   basis set group =>   1
Atom  13H    basis set group =>   2
Atom  14H    basis set group =>   2
Atom  15H    basis set group =>   2
Atom  16Al   basis set group =>   1
Atom  17H    basis set group =>   2
Atom  18H    basis set group =>   2
Atom  19Al   basis set group =>   1
Atom  20H    basis set group =>   2
Atom  21H    basis set group =>   2
Atom  22H    basis set group =>   2
Atom  23H    basis set group =>   2
---------------------------------
AUXILIARY/J BASIS SET INFORMATION
---------------------------------
There are 2 groups of distinct atoms

 Group   1 Type Al  : 14s5p5d2f1g contracted to 8s4p3d1f1g pattern {71111111/2111/311/2/1}
 Group   2 Type H   : 5s2p1d contracted to 3s1p1d pattern {311/2/1}

Atom   0Al   basis set group =>   1
Atom   1Al   basis set group =>   1
Atom   2H    basis set group =>   2
Atom   3H    basis set group =>   2
Atom   4H    basis set group =>   2
Atom   5H    basis set group =>   2
Atom   6H    basis set group =>   2
Atom   7H    basis set group =>   2
Atom   8Al   basis set group =>   1
Atom   9H    basis set group =>   2
Atom  10H    basis set group =>   2
Atom  11H    basis set group =>   2
Atom  12Al   basis set group =>   1
Atom  13H    basis set group =>   2
Atom  14H    basis set group =>   2
Atom  15H    basis set group =>   2
Atom  16Al   basis set group =>   1
Atom  17H    basis set group =>   2
Atom  18H    basis set group =>   2
Atom  19Al   basis set group =>   1
Atom  20H    basis set group =>   2
Atom  21H    basis set group =>   2
Atom  22H    basis set group =>   2
Atom  23H    basis set group =>   2


           ************************************************************
           *        Program running with 24 parallel MPI-processes    *
           *              working on a common directory               *
           ************************************************************
------------------------------------------------------------------------------
                             ORCA STARTUP CALCULATIONS
                           -- RI-GTO INTEGRALS CHOSEN --
------------------------------------------------------------------------------
------------------------------------------------------------------------------
                   ___                                                        
                  /   \      - P O W E R E D   B Y -                         
                 /     \                                                     
                 |  |  |   _    _      __       _____    __    __             
                 |  |  |  | |  | |    /  \     |  _  \  |  |  /  |          
                  \  \/   | |  | |   /    \    | | | |  |  | /  /          
                 / \  \   | |__| |  /  /\  \   | |_| |  |  |/  /          
                |  |  |   |  __  | /  /__\  \  |    /   |      \           
                |  |  |   | |  | | |   __   |  |    \   |  |\   \          
                \     /   | |  | | |  |  |  |  | |\  \  |  | \   \       
                 \___/    |_|  |_| |__|  |__|  |_| \__\ |__|  \__/        
                                                                              
                      - O R C A' S   B I G   F R I E N D -                    
                                      &                                       
                       - I N T E G R A L  F E E D E R -                       
                                                                              
 v1 FN, 2020, v2 2021, v3 2022-2024                                           
------------------------------------------------------------------------------


----------------------
SHARK INTEGRAL PACKAGE
----------------------

Number of atoms                             ...     24
Number of basis functions                   ...    144
Number of shells                            ...     84
Maximum angular momentum                    ...      2
Integral batch strategy                     ... SHARK/LIBINT Hybrid
RI-J (if used) integral strategy            ... SPLIT-RIJ (Revised 2003 algorithm where possible)
Printlevel                                  ...      1
Contraction scheme used                     ... SEGMENTED contraction
Prescreening option                         ... SCHWARTZ
   Thresh                                   ... 1.000e-10
   Tcut                                     ... 1.000e-11
   Tpresel                                  ... 1.000e-11 
Coulomb Range Separation                    ... NOT USED
Exchange Range Separation                   ... NOT USED
Multipole approximations                    ... NOT USED
Finite Nucleus Model                        ... NOT USED
CABS basis                                  ... NOT available
Auxiliary Coulomb fitting basis             ... AVAILABLE
   # of basis functions in Aux-J            ...    504
   # of shells in Aux-J                     ...    192
   Maximum angular momentum in Aux-J        ...      4
Auxiliary J/K fitting basis                 ... NOT available
Auxiliary Correlation fitting basis         ... NOT available
Auxiliary 'external' fitting basis          ... NOT available

Checking pre-screening integrals            ... done (  0.0 sec) Dimension = 84
   => SHARK Basis and OBASIS are compatible. Storing Pre-screening
Shell pair information
Shell pair cut-off parameter TPreSel        ...   1.0e-11
Total number of shell pairs                 ...      3570
Shell pairs after pre-screening             ...      3159
Total number of primitive shell pairs       ...     16482
Primitive shell pairs kept                  ...      9272
          la=0 lb=0:   1582 shell pairs
          la=1 lb=0:    961 shell pairs
          la=1 lb=1:    159 shell pairs
          la=2 lb=0:    332 shell pairs
          la=2 lb=1:    104 shell pairs
          la=2 lb=2:     21 shell pairs

Checking whether 4 symmetric matrices of dimension 144 fit in memory
:Max Core in MB      =   4096.00
 MB in use           =      7.50
 MB left             =   4088.50
 MB needed           =      0.32
 Data fit in memory  = YES
Calculating RI/J V-Matrix + Cholesky decomp.... done (  0.1 sec)
Calculating Nuclear repulsion               ... done (  0.0 sec) ENN=    582.167242823316 Eh

Diagonalization of the overlap matrix:
Smallest eigenvalue                        ... 2.151e-03
Time for diagonalization                   ...    0.030 sec
Threshold for overlap eigenvalues          ... 1.000e-07
Number of eigenvalues below threshold      ... 0
Time for construction of square roots      ...    0.003 sec
Total time needed                          ...    0.036 sec

-------------------
DFT GRID GENERATION
-------------------

General Integration Accuracy     IntAcc      ... 4.388
Radial Grid Type                 RadialGrid  ... OptM3 with GC (2021)
Angular Grid (max. ang.)         AngularGrid ... 4 (Lebedev-302)
Angular grid pruning method      GridPruning ... 4 (adaptive)
Weight generation scheme         WeightScheme... mBecke (2022)
Basis function cutoff            BFCut       ... 1.0000e-10
Integration weight cutoff        WCut        ... 1.0000e-14
Partially contracted basis set               ... off
Rotationally invariant grid construction     ... off
Angular grids for H and He will be reduced by one unit

Total number of grid points                  ...   101663
Total number of batches                      ...     1600
Average number of points per batch           ...       63
Average number of grid points per atom       ...     4236
Grids setup in   1.5 sec
Initializing property integral containers    ... done (  0.0 sec)

SHARK setup successfully completed in   2.2 seconds

Maximum memory used throughout the entire STARTUP-calculation: 23.7 MB


           ************************************************************
           *        Program running with 24 parallel MPI-processes    *
           *              working on a common directory               *
           ************************************************************
-------------------------------------------------------------------------------
                                 ORCA GUESS
                   Start orbitals & Density for SCF / CASSCF
-------------------------------------------------------------------------------

------------
SCF SETTINGS
------------
Hamiltonian:
 Density Functional     Method          .... DFT(GTOs)
 Exchange Functional    Exchange        .... PBE
   PBE kappa parameter   XKappa         ....  0.804000
   PBE mue parameter    XMuePBE         ....  0.219520
 Correlation Functional Correlation     .... PBE
   PBE beta parameter  CBetaPBE         ....  0.066725
 LDA part of GGA corr.  LDAOpt          .... PW91-LDA
 Gradients option       PostSCFGGA      .... off
   NL short-range parameter             ....  6.400000
 RI-approximation to the Coulomb term is turned on
   Number of AuxJ basis functions       .... 504


General Settings:
 Integral files         IntName         .... run
 Hartree-Fock type      HFTyp           .... RHF
 Total Charge           Charge          ....    0
 Multiplicity           Mult            ....    1
 Number of Electrons    NEL             ....   96
 Basis Dimension        Dim             ....  144
 Nuclear Repulsion      ENuc            ....    582.1672428233 Eh

Convergence Acceleration:
 AO-DIIS                CNVDIIS         .... on
   Start iteration      DIISMaxIt       ....    12
   Startup error        DIISStart       ....  0.200000
   # of expansion vecs  DIISMaxEq       ....     5
   Bias factor          DIISBfac        ....   1.050
   Max. coefficient     DIISMaxC        ....  10.000
 MO-DIIS                CNVKDIIS        .... off
 Trust-Rad. Augm. Hess. CNVTRAH         .... auto
   Auto Start mean grad. ratio tolernc. ....  1.125000
   Auto Start start iteration           ....    50
   Auto Start num. interpolation iter.  ....    10
   Max. Number of Micro iterations      ....    24
   Max. Number of Macro iterations      .... Maxiter - #DIIS iter
   Number of Davidson start vectors     ....     2
   Converg. threshold    (grad. norm)   ....   5.000e-05
   Grad. Scal. Fac. for Micro threshold ....   0.100
   Minimum threshold for Micro iter.    ....   1.000e-02
   NR start threshold (gradient norm)   ....   1.000e-04
   Initial trust radius                 ....   0.400
   Minimum AH scaling param. (alpha)    ....   1.000
   Maximum AH scaling param. (alpha)    .... 1000.000
   Quad. conv. algorithm                .... NR
   White noise on init. David. guess    .... on
   Maximum white noise                  ....   0.010
   Pseudo random numbers                .... off
   Inactive MOs                         .... canonical
   Orbital update algorithm             .... Taylor
   Preconditioner                       .... Diag
   Full preconditioner red. dimension   ....   250
 SOSCF                 CNVSOSCF           .... on
   Start iteration     SOSCFMaxIt         ....   150
   Startup grad/error  SOSCFStart         ....  0.003300
   Hessian update      SOSCFHessUp        .... L-BFGS
   Autom. constraints  SOSCFAutoConstrain .... off
 Level Shifting         CNVShift        .... on
   Level shift para.    LevelShift      ....    0.2500
   Turn off err/grad.   ShiftErr        ....    0.0010
 Zerner damping         CNVZerner       .... off
 Static damping         CNVDamp         .... on
   Fraction old density DampFac         ....    0.7000
   Max. Damping (<1)    DampMax         ....    0.9800
   Min. Damping (>=0)   DampMin         ....    0.0000
   Turn off err/grad.   DampErr         ....    0.1000

SCF Procedure:
 Maximum # iterations   MaxIter         ....   125
 SCF integral mode      SCFMode         .... Direct
   Integral package                     .... SHARK and LIBINT hybrid scheme
 Reset frequency        DirectResetFreq ....    20
 Integral Threshold     Thresh          ....  1.000e-10 Eh
 Primitive CutOff       TCut            ....  1.000e-11 Eh

Convergence Tolerance:
 Convergence Check Mode ConvCheckMode   .... Total+1el-Energy
 Convergence forced     ConvForced      .... 0
 Energy Change          TolE            ....  1.000e-06 Eh
 1-El. energy change                    ....  1.000e-03 Eh
 Orbital Gradient       TolG            ....  5.000e-05
 Orbital Rotation angle TolX            ....  5.000e-05
 DIIS Error             TolErr          ....  1.000e-05

------------------------------
INITIAL GUESS: MODEL POTENTIAL
------------------------------
Loading Hartree-Fock densities                     ... done
Calculating cut-offs                               ... done
Initializing the effective Hamiltonian             ... done
Setting up the integral package (SHARK)            ... done
Starting the Coulomb interaction                   ... done (   0.1 sec)
Making the grid                                    ... done (   0.2 sec)
Mapping shells                                     ... done
Starting the XC term evaluation                    ... done (   0.0 sec)
  promolecular density results
     # of electrons  =     95.992619711
     EX              =   -113.341396863
     EC              =     -3.313420424
     EX+EC           =   -116.654817287
Transforming the Hamiltonian                       ... done (   0.0 sec)
Diagonalizing the Hamiltonian                      ... done (   0.0 sec)
Back transforming the eigenvectors                 ... done (   0.0 sec)
Now organizing SCF variables                       ... done
                      ------------------
                      INITIAL GUESS DONE (   0.4 sec)
                      ------------------
             **** ENERGY FILE WAS UPDATED (run.en.tmp) ****
Finished Guess after   1.0 sec
Maximum memory used throughout the entire GUESS-calculation: 9.9 MB


           ************************************************************
           *        Program running with 24 parallel MPI-processes    *
           *              working on a common directory               *
           ************************************************************

-------------------------------------------------------------------------------------------
                                      ORCA LEAN-SCF
                              memory conserving SCF solver
-------------------------------------------------------------------------------------------

----------------------------------------D-I-I-S--------------------------------------------
Iteration    Energy (Eh)           Delta-E    RMSDP     MaxDP     DIISErr   Damp  Time(sec)
-------------------------------------------------------------------------------------------
               ***  Starting incremental Fock matrix formation  ***
    1    -1463.3992412605616664     0.00e+00  1.63e-02  1.05e-01  9.16e-02  0.700   0.3
Warning: op=0 Small HOMO/LUMO gap (   0.034) - skipping pre-diagonalization
         Will do a full diagonalization
    2    -1463.4615366723730858    -6.23e-02  1.73e-02  1.06e-01  6.03e-02  0.700   0.3
                               ***Turning on AO-DIIS***
    3    -1463.4927104920218426    -3.12e-02  7.60e-03  2.86e-02  2.62e-02  0.700   0.2
    4    -1463.5071765189736652    -1.45e-02  1.26e-02  4.19e-02  1.35e-02  0.000   0.2
    5    -1463.5372572693420352    -3.01e-02  3.63e-03  1.13e-02  1.20e-02  0.000   0.2
    6    -1463.5393599353296850    -2.10e-03  1.77e-03  8.57e-03  5.50e-03  0.000   0.2
                              *** Initializing SOSCF ***
---------------------------------------S-O-S-C-F--------------------------------------
Iteration    Energy (Eh)           Delta-E    RMSDP     MaxDP     MaxGrad    Time(sec)
--------------------------------------------------------------------------------------
    7    -1463.5398507612896992    -4.91e-04  9.29e-04  3.46e-03  2.64e-03     0.3
               *** Restarting incremental Fock matrix formation ***
    8    -1463.5399797560537536    -1.29e-04  2.03e-03  1.01e-02  1.07e-03     0.3
    9    -1463.5399729878768085     6.77e-06  1.08e-03  6.06e-03  1.07e-03     0.2
   10    -1463.5400398662059160    -6.69e-05  4.74e-04  1.55e-03  1.86e-04     0.2
   11    -1463.5400403126745914    -4.46e-07  2.53e-04  8.05e-04  1.96e-04     0.2
                 **** Energy Check signals convergence ****

               *****************************************************
               *                     SUCCESS                       *
               *           SCF CONVERGED AFTER  11 CYCLES          *
               *****************************************************

             **** ENERGY FILE WAS UPDATED (run.en.tmp) ****

----------------
TOTAL SCF ENERGY
----------------

Total Energy       :      -1463.54004460777946 Eh          -39824.94928 eV

Components:
Nuclear Repulsion  :        582.16724282331552 Eh           15841.57605 eV
Electronic Energy  :      -2045.70728743109498 Eh          -55666.52532 eV
One Electron Energy:      -3189.66181368486150 Eh          -86795.11053 eV
Two Electron Energy:       1143.95452625376652 Eh           31128.58521 eV

Virial components:
Potential Energy   :      -2921.67140967101841 Eh          -79502.72090 eV
Kinetic Energy     :       1458.13136506323872 Eh           39677.77162 eV
Virial Ratio       :          2.00370932254400

DFT components:
N(Alpha)           :       47.999976181828 electrons
N(Beta)            :       47.999976181828 electrons
N(Total)           :       95.999952363655 electrons
E(X)               :     -113.863400664246 Eh       
E(C)               :       -3.288220190697 Eh       
E(XC)              :     -117.151620854942 Eh       

---------------
SCF CONVERGENCE
---------------

  Last Energy change         ...    4.4647e-07  Tolerance :   1.0000e-06
  Last MAX-Density change    ...    8.0527e-04  Tolerance :   1.0000e-05
  Last RMS-Density change    ...    2.5277e-04  Tolerance :   1.0000e-06
  Last DIIS Error            ...    2.6386e-03  Tolerance :   1.0000e-05
  Last Orbital Gradient      ...    1.9565e-04  Tolerance :   5.0000e-05
  Last Orbital Rotation      ...    8.2744e-04  Tolerance :   5.0000e-05


----------------
ORBITAL ENERGIES
----------------

  NO   OCC          E(Eh)            E(eV) 
   0   2.0000     -55.485543     -1509.8384 
   1   2.0000     -55.454054     -1508.9815 
   2   2.0000     -55.446865     -1508.7859 
   3   2.0000     -55.419500     -1508.0412 
   4   2.0000     -55.409843     -1507.7785 
   5   2.0000     -55.356988     -1506.3402 
   6   2.0000      -4.031624      -109.7061 
   7   2.0000      -4.002049      -108.9013 
   8   2.0000      -3.999170      -108.8230 
   9   2.0000      -3.974503      -108.1517 
  10   2.0000      -3.968387      -107.9853 
  11   2.0000      -3.932579      -107.0109 
  12   2.0000      -2.640070       -71.8400 
  13   2.0000      -2.639079       -71.8130 
  14   2.0000      -2.632866       -71.6439 
  15   2.0000      -2.610296       -71.0298 
  16   2.0000      -2.608124       -70.9707 
  17   2.0000      -2.607088       -70.9425 
  18   2.0000      -2.605868       -70.9093 
  19   2.0000      -2.604403       -70.8694 
  20   2.0000      -2.600872       -70.7733 
  21   2.0000      -2.582089       -70.2622 
  22   2.0000      -2.580614       -70.2221 
  23   2.0000      -2.577059       -70.1253 
  24   2.0000      -2.576873       -70.1203 
  25   2.0000      -2.572766       -70.0085 
  26   2.0000      -2.570549       -69.9482 
  27   2.0000      -2.539935       -69.1151 
  28   2.0000      -2.539108       -69.0926 
  29   2.0000      -2.532369       -68.9093 
  30   2.0000      -0.526119       -14.3164 
  31   2.0000      -0.492898       -13.4124 
  32   2.0000      -0.459909       -12.5148 
  33   2.0000      -0.450929       -12.2704 
  34   2.0000      -0.406418       -11.0592 
  35   2.0000      -0.381305       -10.3758 
  36   2.0000      -0.376482       -10.2446 
  37   2.0000      -0.332273        -9.0416 
  38   2.0000      -0.330295        -8.9878 
  39   2.0000      -0.314296        -8.5524 
  40   2.0000      -0.295278        -8.0349 
  41   2.0000      -0.293791        -7.9945 
  42   2.0000      -0.282660        -7.6916 
  43   2.0000      -0.268090        -7.2951 
  44   2.0000      -0.257623        -7.0103 
  45   2.0000      -0.249726        -6.7954 
  46   2.0000      -0.245492        -6.6802 
  47   2.0000      -0.243141        -6.6162 
  48   0.0000      -0.165329        -4.4988 
  49   0.0000      -0.157586        -4.2881 
  50   0.0000      -0.138121        -3.7585 
  51   0.0000      -0.103509        -2.8166 
  52   0.0000      -0.096877        -2.6361 
  53   0.0000      -0.094939        -2.5834 
  54   0.0000      -0.072940        -1.9848 
  55   0.0000      -0.061337        -1.6691 
  56   0.0000      -0.045090        -1.2270 
  57   0.0000      -0.036182        -0.9845 
  58   0.0000      -0.030400        -0.8272 
*Only the first 10 virtual orbitals were printed.
-------
TIMINGS
-------

Total SCF time: 0 days 0 hours 0 min 3 sec 

Total time                  ....       3.597 sec
Sum of individual times     ....       3.324 sec  ( 92.4%)

SCF preparation             ....       0.638 sec  ( 17.7%)
Fock matrix formation       ....       2.221 sec  ( 61.7%)
  Startup                   ....       0.010 sec  (  0.4% of F)
  Split-RI-J                ....       0.778 sec  ( 35.0% of F)
  XC integration            ....       1.459 sec  ( 65.7% of F)
    XC Preparation          ....       0.000 sec  (  0.0% of XC)
    Basis function eval.    ....       0.395 sec  ( 27.1% of XC)
    Density eval.           ....       0.214 sec  ( 14.7% of XC)
    XC-Functional eval.     ....       0.063 sec  (  4.3% of XC)
    XC-Potential eval.      ....       0.197 sec  ( 13.5% of XC)
Diagonalization             ....       0.000 sec  (  0.0%)
Density matrix formation    ....       0.056 sec  (  1.5%)
Total Energy calculation    ....       0.032 sec  (  0.9%)
Population analysis         ....       0.000 sec  (  0.0%)
Orbital Transformation      ....       0.042 sec  (  1.2%)
Orbital Orthonormalization  ....       0.000 sec  (  0.0%)
DIIS solution               ....       0.239 sec  (  6.6%)
SOSCF solution              ....       0.098 sec  (  2.7%)
Finished LeanSCF after   3.6 sec

Maximum memory used throughout the entire LEANSCF-calculation: 10.1 MB


           ************************************************************
           *        Program running with 24 parallel MPI-processes    *
           *              working on a common directory               *
           ************************************************************

------------------------------------------------------------------------------
                         ORCA PROPERTY INTEGRAL CALCULATIONS
------------------------------------------------------------------------------

GBWName                                   ... run.gbw
Number of atoms                           ...     24
Number of basis functions                 ...    144
Max core memory                           ...   4096 MB

Dipole integrals                          ... YES
Quadrupole integrals                      ...  NO
Linear momentum integrals                 ...  NO
Angular momentum integrals                ...  NO
Higher moments length integrals           ...  NO
Higher moments velocity integrals         ...  NO
Kinetic energy integrals                  ...  NO
GIAO right hand sides                     ...  NO
GIAO dipole derivative integrals          ...  NO
SOC integrals                             ...  NO
EPR diamagnetic integrals (GIAO)          ...  NO
EPR gauge integrals                       ...  NO
Field gradient integrals                  ...  NO (   0 nuclei)
Spin-dipole/Fermi contact integrals       ...  NO (   0 nuclei)
Contact density integrals                 ...  NO (   0 nuclei)
Nucleus-orbit integrals                   ...  NO (   0 nuclei)
Geometric perturbations                   ...  NO (  24 nuclei)

Choice of electric origin   ... Center of mass
Position of electric origin ... (  0.3766, -2.8222,  6.7254) 
Choice of magnetic origin   ... GIAO
Position of magnetic origin ... (  0.0000,  0.0000,  0.0000) 

Calculating integrals                     ... Electric Dipole (Length)     done (  0.0 sec)

Property integrals calculated in   0.0 sec

Maximum memory used throughout the entire PROPINT-calculation: 10.2 MB


-------------------------------------------------------------------------------
                          DFT DISPERSION CORRECTION                            
                                                                               
                              DFTD3 V3.1  Rev 1                                
                          USING Becke-Johnson damping                          
-------------------------------------------------------------------------------
The PBE functional is recognized
Active option DFTDOPT                   ...         4   

molecular C6(AA) [au] = 11788.010303 


            DFT-D V3
 parameters
 s6 scaling factor         :     1.0000 
 a1 scaling factor         :     0.4289 
 s8 scaling factor         :     0.7875 
 a2 scaling factor         :     4.4407 
 ad hoc parameters k1-k3   :    16.0000     1.3333    -4.0000 

 Edisp/kcal,au: -15.402171275247  -0.024544919669 
 E6   /kcal   :  -9.688895609 
 E8   /kcal   :  -5.713275666 
 % E8         :  37.093962687 

-------------------------   ----------------
Dispersion correction           -0.024544920
-------------------------   ----------------

------------------   -----------------
gCP correction             0.072462307
------------------   -----------------

-------------------------   --------------------
FINAL SINGLE POINT ENERGY     -1463.492127220048
-------------------------   --------------------



           ************************************************************
           *        Program running with 24 parallel MPI-processes    *
           *              working on a common directory               *
           ************************************************************
------------------------------------------------------------------------------
                         ORCA SCF GRADIENT CALCULATION
------------------------------------------------------------------------------

Nuc. rep. gradient        (SHARK) ... done (  0.0 sec)
HCore & Overlap gradient  (SHARK) ... done (  0.1 sec)
Split-RIJ-J gradient      (SHARK) ... done (  0.4 sec)
XC gradient                       ... done (  0.9 sec)
Dispersion correction             ... done (  0.1 sec)

-------------------
DISPERSION GRADIENT
-------------------

   1   Al  :    0.000362302    0.001063888    0.000676910
   2   Al  :   -0.000248528    0.000401637   -0.000888846
   3   H   :    0.000051080   -0.000048963   -0.000179111
   4   H   :    0.000237861   -0.000175350    0.000231221
   5   H   :    0.000017627    0.000154789   -0.000073283
   6   H   :   -0.000060358    0.000087924    0.000049297
   7   H   :   -0.000098001    0.000158801    0.000011247
   8   H   :    0.000047602    0.000042890   -0.000116913
   9   Al  :   -0.000121850   -0.000864069   -0.000861081
  10   H   :   -0.000035945   -0.000141265   -0.000086170
  11   H   :    0.000186500    0.000234095    0.000286493
  12   H   :   -0.000518066   -0.000203768   -0.000665778
  13   Al  :    0.000102310    0.000035131    0.000157845
  14   H   :   -0.000169468   -0.000052358    0.000031602
  15   H   :    0.000219077    0.000048014    0.000031487
  16   H   :    0.000074801   -0.000162982   -0.000105569
  17   Al  :   -0.000806431    0.000100439    0.000572315
  18   H   :   -0.000119780   -0.000164145    0.000062416
  19   H   :    0.000191199   -0.000284223   -0.000075329
  20   Al  :    0.000077094    0.000901544    0.000252410
  21   H   :    0.000088933   -0.000023193    0.000150241
  22   H   :    0.000245192   -0.000920973    0.000306990
  23   H   :    0.000289206   -0.000141711    0.000146932
  24   H   :   -0.000012358   -0.000046153    0.000084675

Difference to translation invariance:
           :   -0.0000000000    0.0000000000    0.0000000000

Difference to rotation invariance:
           :    0.0000000000   -0.0000000000    0.0000000000

Norm of the Dispersion gradient    ...    0.0029724628
RMS gradient                       ...    0.0003503081
MAX gradient                       ...    0.0010638877
gCP correction                   ... done

------------------
CARTESIAN GRADIENT
------------------

   1   Al  :   -0.003707586   -0.068822326   -0.015837251
   2   Al  :   -0.013708878   -0.053079801    0.041603002
   3   H   :   -0.003992533    0.014895803   -0.007464913
   4   H   :   -0.011837773    0.023037121   -0.033427228
   5   H   :    0.009475627    0.000031112   -0.006508312
   6   H   :   -0.021363842    0.041307079   -0.011939738
   7   H   :    0.009409236    0.000253232   -0.002185916
   8   H   :    0.010451323    0.007581924    0.001244451
   9   Al  :    0.015288536    0.050478343    0.067415927
  10   H   :    0.025394519   -0.028321364   -0.038619725
  11   H   :   -0.003483092   -0.030741111   -0.018233172
  12   H   :    0.018171574    0.020267829    0.029959637
  13   Al  :    0.008894485    0.023653546   -0.010201141
  14   H   :   -0.021262825   -0.068691098    0.185532765
  15   H   :    0.007908436   -0.005751085    0.008765625
  16   H   :   -0.040855969    0.012688533   -0.014090086
  17   Al  :    0.063901808   -0.017274153   -0.195012348
  18   H   :    0.002428101    0.087564656    0.018753322
  19   H   :   -0.023648917    0.020339405    0.005076903
  20   Al  :   -0.025398255   -0.002260461    0.005717023
  21   H   :   -0.014892906   -0.002175670   -0.007097713
  22   H   :   -0.002895578    0.027822698    0.003214602
  23   H   :    0.026015795   -0.023006736   -0.027091227
  24   H   :   -0.010291289   -0.029797478    0.020425514

Difference to translation invariance:
           :    0.0000000000   -0.0000000000    0.0000000001

Difference to rotation invariance:
           :    0.0002075422    0.0002552905    0.0003561960

Norm of the Cartesian gradient     ...    0.3560722948
RMS gradient                       ...    0.0419635224
MAX gradient                       ...    0.1950123482

-------
TIMINGS
-------

Total SCF gradient time     ....        1.569 sec

Densities                   ....       0.001 sec  (  0.1%)
One electron gradient       ....       0.090 sec  (  5.7%)
RI-J Coulomb gradient       ....       0.403 sec  ( 25.7%)
XC gradient                 ....       0.919 sec  ( 58.6%)

Maximum memory used throughout the entire SCFGRAD-calculation: 29.8 MB
------------------------------------------------------------------------------
                         ORCA GEOMETRY RELAXATION STEP
------------------------------------------------------------------------------

Reading the OPT-File                    .... done
Getting information on internals        .... done
Copying old internal coords+grads       .... done
Making the new internal coordinates     .... (2022 redundants) done
Validating the new internal coordinates .... (2022 redundants) done
Calculating the B-matrix                .... done
Calculating the G,G- and P matrices     .... done
Transforming gradient to internals      .... done
Projecting the internal gradient        .... done
Number of atoms                         ....  24
Number of internal coordinates          .... 293
Current Energy                          .... -1463.492127220 Eh
Current gradient norm                   ....     0.356072295 Eh/bohr
Maximum allowed component of the step   ....  0.300
Current trust radius                    ....  0.300
Evaluating the initial hessian          ....  (Almloef) done
Projecting the Hessian                  .... done
Forming the augmented Hessian           .... done
Diagonalizing the augmented Hessian     .... done
Last element of RFO vector              ....  0.857769966
Lowest eigenvalues of augmented Hessian:
 -0.108056209  0.011931256  0.013620716  0.015115971  0.019937680
Length of the computed step             ....  0.599267590
Warning: the length of the step is outside the trust region - taking restricted step instead
The input lambda is                     ....     0.010866
   iter:   5  x=   -0.033829  g=   69.405954 f(x)=     1.867593
   iter:  10  x=   -0.350280  g=    0.420715 f(x)=     0.015686
The output lambda is                    ....    -0.355759 (14 iterations)
The final length of the internal step   ....  0.300000000
Converting the step to Cartesian space:
 Initial RMS(Int)=    0.0175261871
Transforming coordinates:
 Iter   0:  RMS(Cart)=    0.0354958536 RMS(Int)=    0.0174943249
done
Storing new coordinates                 .... done

                                .--------------------.
          ----------------------|Geometry convergence|-------------------------
          Item                value                   Tolerance       Converged
          ---------------------------------------------------------------------
          RMS gradient        0.0148960943            0.0010000000      NO
          MAX gradient        0.1965306637            0.0050000000      NO
          RMS step            0.0175261871            0.0200000000      YES
          MAX step            0.1165390308            0.0300000000      NO
          -------------------------------------------------------------------------
          ........................................................
          Max(Bonds)      0.0617      Max(Angles)    1.65
          Max(Dihed)        2.21      Max(Improp)    0.00
          ---------------------------------------------------------------------

The optimization has not yet converged - more geometry cycles are needed


    ---------------------------------------------------------------------------
                         Redundant Internal Coordinates
                            (Angstroem and degrees)

        Definition                    Value    dE/dq     Step     New-Value
    ----------------------------------------------------------------------------
     1. B(Al  1,Al  0)                3.1887 -0.000603  0.0006    3.1893   
     2. B(H   2,Al  1)                1.6115 -0.011979  0.0097    1.6212   
     3. B(H   3,Al  1)                1.8815  0.039644 -0.0425    1.8390   
     4. B(H   4,Al  1)                1.7631 -0.000274  0.0004    1.7635   
     5. B(H   4,Al  0)                1.7368  0.004015 -0.0037    1.7331   
     6. B(H   5,Al  0)                2.1635  0.047158 -0.0617    2.1019   
     7. B(H   6,Al  0)                1.7025 -0.002876  0.0029    1.7054   
     8. B(H   7,Al  1)                1.6941  0.011838 -0.0099    1.6841   
     9. B(Al  8,Al  1)                3.2024 -0.007846  0.0082    3.2105   
    10. B(Al  8,H   2)                1.6925  0.003047 -0.0013    1.6912   
    11. B(H   9,Al  8)                1.5224 -0.035240  0.0254    1.5477   
    12. B(H  10,Al  8)                1.8754  0.033614 -0.0358    1.8396   
    13. B(H  11,Al  0)                1.9326  0.040119 -0.0452    1.8874   
    14. B(Al 12,Al  8)                3.0079 -0.012902  0.0092    3.0172   
    15. B(Al 12,H   6)                1.7019 -0.002592  0.0028    1.7047   
    16. B(Al 12,Al  0)                3.1300 -0.003404  0.0041    3.1341   
    17. B(Al 12,H   9)                1.8822  0.015383 -0.0131    1.8692   
    18. B(H  14,Al 12)                1.6260  0.007342 -0.0062    1.6199   
    19. B(H  15,Al  8)                1.5072 -0.037732  0.0222    1.5293   
    20. B(Al 16,H  13)                1.2637 -0.196531  0.0616    1.3253   
    21. B(Al 16,Al 12)                2.9208  0.012023 -0.0144    2.9064   
    22. B(H  17,Al 16)                1.4057 -0.086853  0.0401    1.4458   
    23. B(H  18,Al 16)                1.8532  0.031324 -0.0326    1.8206   
    24. B(Al 19,Al 16)                2.5057 -0.019917  0.0135    2.5193   
[...]
     56      -0.002075   0.001799   0.340136   0.004588   0.005058  -0.011545
     57      -0.000123   0.000032   0.000211  -0.000468  -0.027520   0.002875
     58       0.000025  -0.000092  -0.000401  -0.000028   0.001876   0.000022
     59      -0.000022   0.000091  -0.000213  -0.000044  -0.024629   0.002817
     60      -0.000622  -0.003959  -0.000244   0.006517   0.755575  -0.077586
     61       0.000263   0.000452   0.000913  -0.000534  -0.037435   0.003325
     62      -0.000883  -0.003330   0.000305   0.004670   0.638575  -0.065988
     63       0.003563   0.000798  -0.002066   0.001472   0.000871   0.000004
     64      -0.003347   0.000380   0.006615  -0.001042  -0.014631   0.000219
     65       0.004841   0.001257   0.000709  -0.000727  -0.001333  -0.000333
     66       0.001902   0.000500  -0.001650   0.001649  -0.007022   0.001351
     67       0.000701   0.001008   0.005258  -0.001111   0.010490  -0.005498
     68       0.002847   0.001719   0.005551   0.000774   0.010540  -0.009643
     69       0.003371   0.004081  -0.001668   0.007576  -0.031811   0.000805
     70       0.000769   0.001080  -0.005258   0.001800  -0.006034   0.000047
     71      -0.000517   0.000093  -0.002315  -0.000129  -0.005658  -0.000835


-----------
IR SPECTRUM
-----------

 Mode   freq       eps      Int      T**2         TX        TY        TZ
       cm**-1   L/(mol*cm) km/mol    a.u.
----------------------------------------------------------------------------
  8:     16.11   0.000040    0.20  0.000781  (-0.006859  0.024044  0.012469)
  9:     40.81   0.000098    0.49  0.000748  ( 0.017862  0.020130  0.004830)
 10:     58.39   0.000027    0.14  0.000143  ( 0.006706 -0.003564  0.009232)
 11:     95.90   0.000035    0.18  0.000114  (-0.003174 -0.006596 -0.007766)
 12:    101.64   0.000014    0.07  0.000044  (-0.000270  0.005803  0.003275)
 13:    121.85   0.000499    2.52  0.001277  ( 0.008422 -0.032743 -0.011570)
 14:    157.79   0.000255    1.29  0.000504  ( 0.016024 -0.006145  0.014471)
 15:    194.60   0.000228    1.15  0.000366  (-0.007671  0.004625  0.016914)
 16:    203.01   0.000293    1.48  0.000451  (-0.008367  0.003557 -0.019190)
 17:    208.71   0.001580    7.99  0.002363  (-0.010228  0.016829 -0.044438)
 18:    246.58   0.002145   10.84  0.002715  (-0.004798 -0.019560  0.048055)
 19:    270.58   0.000486    2.45  0.000560  ( 0.001287 -0.021973 -0.008697)
 20:    290.18   0.001196    6.04  0.001286  (-0.025766  0.000993  0.024916)
 21:    302.28   0.001378    6.97  0.001423  (-0.009802  0.013117 -0.033983)
 22:    332.71   0.000761    3.84  0.000713  (-0.025473 -0.007470 -0.002939)
 23:    358.60   0.000082    0.41  0.000071  (-0.005167 -0.006057 -0.002822)
 24:    368.22   0.009684   48.94  0.008207  (-0.043919 -0.038451  0.069278)
 25:    381.98   0.000337    1.70  0.000275  (-0.006347 -0.012155  0.009347)
 26:    400.70   0.000549    2.77  0.000427  ( 0.014649  0.005655 -0.013446)
 27:    429.26   0.002370   11.98  0.001723  ( 0.011087 -0.009727  0.038797)
 28:    447.64   0.000260    1.31  0.000181  ( 0.003050  0.012375 -0.004299)
 29:    482.44   0.011596   58.60  0.007501  (-0.036632 -0.020984  0.075620)
 30:    487.65   0.007767   39.25  0.004971  ( 0.031002  0.033336 -0.053836)
 31:    535.77   0.009345   47.22  0.005443  (-0.022953 -0.027911  0.064319)
 32:    547.92   0.011495   58.09  0.006547  ( 0.017834 -0.071720 -0.032939)
 33:    579.78   0.054031  273.05  0.029082  ( 0.050516  0.074128 -0.145034)
 34:    633.80   0.000140    0.71  0.000069  ( 0.005952 -0.005674  0.001199)
 35:    644.77   0.100701  508.90  0.048738  ( 0.034861 -0.209974 -0.058602)
 36:    660.81   0.132378  668.99  0.062515  ( 0.058847  0.108730 -0.217325)
 37:    667.24   0.075683  382.47  0.035396  (-0.140769 -0.027459  0.121764)
 38:    670.96   0.116922  590.88  0.054381  ( 0.016378 -0.219973 -0.075661)
 39:    686.31   0.046771  236.36  0.021267  ( 0.100223 -0.047369  0.094753)
 40:    705.12   0.125067  632.04  0.055351  ( 0.013505 -0.083247  0.219632)
 41:    709.78   0.021652  109.42  0.009520  ( 0.016671 -0.064045 -0.071693)
 42:    724.66   0.016879   85.30  0.007269  (-0.002075 -0.079724 -0.030143)
 43:    751.84   0.017451   88.19  0.007243  (-0.079181  0.016663 -0.026383)
 44:    776.36   0.010437   52.75  0.004195  ( 0.002369  0.014311  0.063126)
 45:    811.08   0.033088  167.21  0.012730  (-0.053990 -0.072972 -0.067012)
 46:    815.18   0.060984  308.19  0.023346  (-0.132492  0.056873 -0.050568)
 47:    887.88   0.018723   94.62  0.006581  (-0.077389 -0.015441 -0.018788)
 48:    894.59   0.044056  222.64  0.015368  (-0.017820  0.021919 -0.120708)
 49:    948.52   0.021637  109.34  0.007118  (-0.022056  0.080249  0.013861)
 50:   1046.21   0.024696  124.80  0.007366  ( 0.070957  0.038146  0.029601)
 51:   1073.14   0.013023   65.81  0.003787  (-0.041330  0.019482 -0.041223)
 52:   1100.81   0.030327  153.26  0.008597  (-0.090663  0.003326 -0.019139)
 53:   1107.18   0.088154  445.49  0.024846  (-0.002451 -0.056229  0.147237)
 54:   1577.21   0.024655  124.60  0.004878  (-0.018037  0.062539  0.025334)
 55:   1608.06   0.209669  1059.58  0.040689  ( 0.008459  0.129042 -0.154808)
 56:   1645.22   0.073575  371.82  0.013956  ( 0.028629  0.102076 -0.052120)
 57:   1661.54   0.229808  1161.35  0.043161  ( 0.061475 -0.004568 -0.198397)
 58:   1702.81   0.114774  580.02  0.021034  ( 0.141975  0.029022 -0.005899)
 59:   1822.32   0.100724  509.02  0.017248  ( 0.103227 -0.005236 -0.081026)
 60:   1829.05   0.220732  1115.49  0.037660  ( 0.022582 -0.155488 -0.113903)
 61:   1858.74   0.103311  522.09  0.017345  (-0.017501 -0.120691  0.049722)
 62:   1861.83   0.031695  160.17  0.005312  ( 0.050703  0.001811  0.052330)
 63:   1880.34   0.005732   28.97  0.000951  ( 0.004803 -0.000513  0.030462)
 64:   1886.86   0.000813    4.11  0.000134  ( 0.002977 -0.011006 -0.002098)
 65:   1888.35   0.009670   48.87  0.001598  (-0.015158  0.029705  0.022044)
 66:   1892.92   0.029559  149.38  0.004873  (-0.053923  0.026228 -0.035742)
 67:   1902.06   0.038418  194.15  0.006303  (-0.076235 -0.020191  0.009148)
 68:   1906.66   0.039504  199.64  0.006466  ( 0.020733 -0.070923 -0.031712)
 69:   1916.18   0.046065  232.80  0.007502  (-0.064720  0.014532 -0.055698)
 70:   1933.64   0.023240  117.45  0.003751  (-0.033341  0.017633 -0.048251)
 71:   1939.72   0.089492  452.26  0.014398  ( 0.016710  0.093408 -0.073438)

* The epsilon (eps) is given for a Dirac delta lineshape.
** The dipole moment derivative (T) already includes vibrational overlap.

The first frequency considered to be a vibration is 8
The total number of vibrations considered is 64


--------------------------
THERMOCHEMISTRY AT 298.15K
--------------------------

Temperature         ...   298.15 K
Pressure            ...     1.00 atm
Total Mass          ...   180.04 AMU
Quasi RRHO          ...     True
Cut-Off Frequency   ...     1.00 cm^-1

Throughout the following assumptions are being made:
  (1) The electronic state is orbitally nondegenerate
  (2) There are no thermally accessible electronically excited states
  (3) Hindered rotations indicated by low frequency modes are not
      treated as such but are treated as vibrations and this may
      cause some error
  (4) All equations used are the standard statistical mechanics
      equations for an ideal gas
  (5) All vibrations are strictly harmonic

freq.      16.11  E(vib)   ...       0.57 
freq.      40.81  E(vib)   ...       0.54 
freq.      58.39  E(vib)   ...       0.51 
freq.      95.90  E(vib)   ...       0.47 
freq.     101.64  E(vib)   ...       0.46 
freq.     121.85  E(vib)   ...       0.44 
freq.     157.79  E(vib)   ...       0.40 
freq.     194.60  E(vib)   ...       0.36 
freq.     203.01  E(vib)   ...       0.35 
freq.     208.71  E(vib)   ...       0.34 
freq.     246.58  E(vib)   ...       0.31 
freq.     270.58  E(vib)   ...       0.29 
freq.     290.18  E(vib)   ...       0.27 
freq.     302.28  E(vib)   ...       0.26 
freq.     332.71  E(vib)   ...       0.24 
freq.     358.60  E(vib)   ...       0.22 
freq.     368.22  E(vib)   ...       0.21 
freq.     381.98  E(vib)   ...       0.21 
freq.     400.70  E(vib)   ...       0.19 
freq.     429.26  E(vib)   ...       0.18 
freq.     447.64  E(vib)   ...       0.17 
freq.     482.44  E(vib)   ...       0.15 
freq.     487.65  E(vib)   ...       0.15 
freq.     535.77  E(vib)   ...       0.12 
freq.     547.92  E(vib)   ...       0.12 
freq.     579.78  E(vib)   ...       0.11 
freq.     633.80  E(vib)   ...       0.09 
freq.     644.77  E(vib)   ...       0.09 
freq.     660.81  E(vib)   ...       0.08 
freq.     667.24  E(vib)   ...       0.08 
freq.     670.96  E(vib)   ...       0.08 
freq.     686.31  E(vib)   ...       0.07 
freq.     705.12  E(vib)   ...       0.07 
freq.     709.78  E(vib)   ...       0.07 
freq.     724.66  E(vib)   ...       0.06 
freq.     751.84  E(vib)   ...       0.06 
freq.     776.36  E(vib)   ...       0.05 
freq.     811.08  E(vib)   ...       0.05 
freq.     815.18  E(vib)   ...       0.05 
freq.     887.88  E(vib)   ...       0.04 
freq.     894.59  E(vib)   ...       0.03 
freq.     948.52  E(vib)   ...       0.03 
freq.    1046.21  E(vib)   ...       0.02 
freq.    1073.14  E(vib)   ...       0.02 
freq.    1100.81  E(vib)   ...       0.02 
freq.    1107.18  E(vib)   ...       0.02 
freq.    1577.21  E(vib)   ...       0.00 
freq.    1608.06  E(vib)   ...       0.00 
freq.    1645.22  E(vib)   ...       0.00 
freq.    1661.54  E(vib)   ...       0.00 
freq.    1702.81  E(vib)   ...       0.00 
freq.    1822.32  E(vib)   ...       0.00 
freq.    1829.05  E(vib)   ...       0.00 
freq.    1858.74  E(vib)   ...       0.00 
freq.    1861.83  E(vib)   ...       0.00 
freq.    1880.34  E(vib)   ...       0.00 
freq.    1886.86  E(vib)   ...       0.00 
freq.    1888.35  E(vib)   ...       0.00 
freq.    1892.92  E(vib)   ...       0.00 
freq.    1902.06  E(vib)   ...       0.00 
freq.    1906.66  E(vib)   ...       0.00 
freq.    1916.18  E(vib)   ...       0.00 
freq.    1933.64  E(vib)   ...       0.00 
freq.    1939.72  E(vib)   ...       0.00 

------------
INNER ENERGY
------------

The inner energy is: U= E(el) + E(ZPE) + E(vib) + E(rot) + E(trans)
    E(el)   - is the total energy from the electronic structure calculation
              = E(kin-el) + E(nuc-el) + E(el-el) + E(nuc-nuc)
    E(ZPE)  - the the zero temperature vibrational energy from the frequency calculation
    E(vib)  - the the finite temperature correction to E(ZPE) due to population
              of excited vibrational states
    E(rot)  - is the rotational thermal energy
    E(trans)- is the translational thermal energy

Summary of contributions to the inner energy U:
Electronic energy                ...  -1463.90304757 Eh
Zero point energy                ...      0.12915134 Eh      81.04 kcal/mol
Thermal vibrational correction   ...      0.01385996 Eh       8.70 kcal/mol
Thermal rotational correction    ...      0.00141627 Eh       0.89 kcal/mol
Thermal translational correction ...      0.00141627 Eh       0.89 kcal/mol
-----------------------------------------------------------------------
Total thermal energy                  -1463.75720372 Eh


Summary of corrections to the electronic energy:
(perhaps to be used in another calculation)
Total thermal correction                  0.01669250 Eh      10.47 kcal/mol
Non-thermal (ZPE) correction              0.12915134 Eh      81.04 kcal/mol
-----------------------------------------------------------------------
Total correction                          0.14584385 Eh      91.52 kcal/mol


--------
ENTHALPY
--------

The enthalpy is H = U + kB*T
                kB is Boltzmann's constant
Total thermal energy              ...  -1463.75720372 Eh 
Thermal Enthalpy correction       ...      0.00094421 Eh       0.59 kcal/mol
-----------------------------------------------------------------------
Total Enthalpy                    ...  -1463.75625951 Eh


Note: Only C1 symmetry has been detected, increase convergence thresholds 
      if your molecule has a higher symmetry. Symmetry factor of 1.0 is   
      used for the rotational entropy correction. 
 

Note: Rotational entropy computed according to Herzberg 
Infrared and Raman Spectra, Chapter V,1, Van Nostrand Reinhold, 1945 
Point Group:  C1, Symmetry Number:   1  
Rotational constants in cm-1:     0.030957     0.012927     0.011141 

Vibrational entropy computed according to the QRRHO of S. Grimme
Chem.Eur.J. 2012 18 9955 using a reference frequency of 100.0 cm-1


-------
ENTROPY
-------

The entropy contributions are T*S = T*(S(el)+S(vib)+S(rot)+S(trans))
     S(el)   - electronic entropy
     S(vib)  - vibrational entropy
     S(rot)  - rotational entropy
     S(trans)- translational entropy
The entropies will be listed as multiplied by the temperature to get
units of energy

Electronic entropy                ...      0.00000000 Eh      0.00 kcal/mol
Vibrational entropy               ...      0.02430173 Eh     15.25 kcal/mol
Rotational entropy                ...      0.01532731 Eh      9.62 kcal/mol
Translational entropy             ...      0.01970399 Eh     12.36 kcal/mol
-----------------------------------------------------------------------
Final entropy term                ...      0.05933303 Eh     37.23 kcal/mol

In case the symmetry of your molecule has not been determined correctly
or in case you have a reason to use a different symmetry number we print 
out the resulting rotational entropy values for sn=1,12:

 non-linear molecules -----------------------------------
|  sn= 1 | S(rot)=       0.01532731 Eh      9.62 kcal/mol|
|  sn= 2 | S(rot)=       0.01467286 Eh      9.21 kcal/mol|
|  sn= 3 | S(rot)=       0.01429003 Eh      8.97 kcal/mol|
|  sn= 4 | S(rot)=       0.01401840 Eh      8.80 kcal/mol|
|  sn= 5 | S(rot)=       0.01380771 Eh      8.66 kcal/mol|
|  sn= 6 | S(rot)=       0.01363557 Eh      8.56 kcal/mol|
|  sn= 7 | S(rot)=       0.01349002 Eh      8.47 kcal/mol|
|  sn= 8 | S(rot)=       0.01336395 Eh      8.39 kcal/mol|
|  sn= 9 | S(rot)=       0.01325274 Eh      8.32 kcal/mol|
|  sn=10 | S(rot)=       0.01315326 Eh      8.25 kcal/mol|
|  sn=11 | S(rot)=       0.01306327 Eh      8.20 kcal/mol|
|  sn=12 | S(rot)=       0.01298111 Eh      8.15 kcal/mol|
 linear molecules ---------------------------------------
|  Dinfh | S(rot)=       0.00957192 Eh      6.01 kcal/mol|
|  Cinfv | S(rot)=       0.01022637 Eh      6.42 kcal/mol|
 --------------------------------------------------------


-------------------
GIBBS FREE ENERGY
-------------------

The Gibbs free energy is G = H - T*S

Total enthalpy                    ...  -1463.75625951 Eh 
Total entropy correction          ...     -0.05933303 Eh    -37.23 kcal/mol
-----------------------------------------------------------------------
Final Gibbs free energy         ...  -1463.81559254 Eh

For completeness - the Gibbs free energy minus the electronic energy
G-E(el)                           ...      0.08745502 Eh     54.88 kcal/mol


Maximum memory used throughout the entire PROP-calculation: 30.4 MB

--------------------------------
SUGGESTED CITATIONS FOR THIS RUN
--------------------------------

Below you find a list of papers that are relevant to this ORCA run
We neither can nor want to force you to cite these papers, but we appreciate if you do
You receive ORCA, which is the product of decades of hard work by many enthusiastic individuals, for free
The only thing we kindly ask in return is that you cite our papers,
We deeply appreciate it, if you show your appreciation for ORCA by not just citing the generic ORCA reference.

Please note that relegating all ORCA citations to the supporting information does *not* help us.
SI sections are not indexed - citations you put there will not count into any citation statistics
But we need these citations in order to attract the funding resources that allow us to do what we are doing

Therefore, if you are a happy ORCA user, please consider citing a few of the papers listed below in the main body of your paper

In addition to the list printed below, the program has created the file run.bibtex that contains the list in bibtex format
You can import this file easily into all common literature databanks and citation aid programs


List of essential papers. We consider these as the minimum necessary citations

  1. Neese, F.
     Software update: the ORCA program system, version 6.0
     WIRES Comput. Molec. Sci. 2025 15(1), e70019
     doi.org/10.1002/wcms.7019

List of papers to cite with high priority. The work reported in these papers was absolutely
necessary for this run to complete.
Our perspective: the developers of density functionals and basis sets usually get cited in chemistry papers
Good! But without the algorithms to do something with them, the functionals or basis sets would not do anything.
Hence, in our opinion, the algorithm design and method developments papers are equally worthy of getting cited

  1. Neese, F.
     An improvement of the resolution of the identity approximation for the formation of the Coulomb matrix
     J. Comp. Chem. 2003 24(14), 1740-1747
     doi.org/10.1002/jcc.10318
  2. Grimme, S.; Antony, J.; Ehrlich, S.; Krieg, H.
     A consistent and accurate ab initio parametrization of density functional dispersion correction (DFT-D) for the 94 elements H-Pu
     J. Chem. Phys. 2010 132 , 154104
     doi.org/10.1063/1.3382344
  3. Grimme, S.; Ehrlich, S.; Goerigk, L.
     Effect of the damping function in dispersion corrected density functional theory
     J. Comput. Chem. 2011 32(7), 1456-1465
     doi.org/10.1002/jcc.21759
  4. Bykov, D.; Petrenko, T.; Izsak, R.; Kossmann, S.; Becker, U.; Valeev, E.; Neese, F.
     Efficient implementation of the analytic second derivatives of Hartree-Fock and hybrid DFT energies: a detailed analysis of different approximations
     Molec. Phys. 2015 113 , 1961-1977
     doi.org/10.1080/00268976.2015.1025114
  5. Neese, F.
     The SHARK Integral Generation and Digestion System
     J. Comp. Chem. 2022 44(3), 381
     doi.org/10.1002/jcc.26942

List of suggested additional citations. These are papers that are important in the 'surrounding' of 
of this run, or papers that preceded the highly important papers. If you like your results we are grateful for a citation.

  1. Neese, F.
     The ORCA program system
     WIRES Comput. Molec. Sci. 2012 2(1), 73-78
     doi.org/10.1002/wcms.81
  2. Neese, F.
     Software update: the ORCA program system, version 4.0
     WIRES Comput. Molec. Sci. 2018 8(1), 1-6
     doi.org/10.1002/wcms.1327
  3. Neese, F.; Wennmohs, F.; Becker, U.; Riplinger, C.
     The ORCA quantum chemistry program package
     J. Chem. Phys. 2020 152(22), 224108
     doi.org/10.1063/5.0004608
  4. Neese, F.
     Software update: The ORCA program system—Version 5.0
     WIRES Comput. Molec. Sci. 2022 12(1), e1606
     doi.org/10.1002/wcms.1606

List of optional additional citations

  1. Neese, F.
     Approximate second-order SCF convergence for spin unrestricted wavefunctions
     Chem. Phys. Lett. 2000 325(1-3), 93-98
     doi.org/10.1016/s0009-2614(00)00662-x

Timings for individual modules:

Sum of individual times          ...      247.091 sec (=   4.118 min)
Startup calculation              ...       57.568 sec (=   0.959 min)  23.3 %
SCF iterations                   ...       84.120 sec (=   1.402 min)  34.0 %
Property integrals               ...       31.009 sec (=   0.517 min)  12.5 %
SCF Response                     ...        7.755 sec (=   0.129 min)   3.1 %
Property calculations            ...       14.180 sec (=   0.236 min)   5.7 %
SCF Gradient evaluation          ...       51.300 sec (=   0.855 min)  20.8 %
Geometry relaxation              ...        1.159 sec (=   0.019 min)   0.5 %
                             ****ORCA TERMINATED NORMALLY****
TOTAL RUN TIME: 0 days 0 hours 4 minutes 26 seconds 886 msec
