
                                 *****************
                                 * O   R   C   A *
                                 *****************

                                            #,                                       
                                            ###                                      
                                            ####                                     
                                            #####                                    
                                            ######                                   
                                           ########,                                 
                                     ,,################,,,,,                         
                               ,,#################################,,                 
                          ,,##########################################,,             
                       ,#########################################, ''#####,          
                    ,#############################################,,   '####,        
                  ,##################################################,,,,####,       
                ,###########''''           ''''###############################       
              ,#####''   ,,,,##########,,,,          '''####'''          '####       
            ,##' ,,,,###########################,,,                        '##       
           ' ,,###''''                  '''############,,,                           
         ,,##''                                '''############,,,,        ,,,,,,###''
      ,#''                                            '''#######################'''  
     '                                                          ''''####''''         
             ,#######,   #######,   ,#######,      ##                                
            ,#'     '#,  ##    ##  ,#'     '#,    #''#        ,####,    ,#,          
            ##       ##  ##   ,#'  ##            #'  '#       #'       ,# #          
            ##       ##  #######   ##           ,######,      #####,      #          
            '#,     ,#'  ##    ##  '#,     ,#' ,#      #,     #,   #      #          
             '#######'   ##     ##  '#######'  #'      '#     '####' #    #          



                #########################################################
                #                        -***-                          #
                #          Department of theory and spectroscopy        #
                #                                                       #
                #                      Frank Neese                      #
                #                                                       #
                #     Directorship, Architecture, Infrastructure        #
                #                    SHARK, DRIVERS                     #
                #        Core code/Algorithms in most modules           #
                #                                                       #
                #        Max Planck Institute fuer Kohlenforschung      #
                #                Kaiser Wilhelm Platz 1                 #
                #                 D-45470 Muelheim/Ruhr                 #
                #                      Germany                          #
                #                                                       #
                #                  All rights reserved                  #
                #                        -***-                          #
                #########################################################


                         Program Version 6.1.0  -  RELEASE   -
                                (GIT: $679e74b$)
                          ($2025-06-10 18:02:51 +0200$)


 With contributions from (in alphabetic order):
[Max-Planck-Institut fuer Kohlenforschung]                               
  Daniel Aravena         : Magnetic Suceptibility                        
  Michael Atanasov       : Ab Initio Ligand Field Theory (pilot matlab implementation)
  Alexander A. Auer      : GIAO ZORA, VPT2 properties, NMR spectrum      
  Ute Becker             : All parallelization in ORCA, NUMFREQ, NUMCALC 
  Giovanni Bistoni       : ED, misc. LED, open-shell LED, HFLD           
  Dmytro Bykov           : pre 5.0 version of the SCF Hessian            
  Marcos Casanova-Páez   : Triplet and SCS-CIS(D). UHF-(DLPNO)-IP/EA/STEOM-CCSD. UHF-CVS-IP/STEOM-CCSD   
  Vijay G. Chilkuri      : MRCI spin determinant printing, contributions to CSF-ICE 
  Pauline Colinet        : FMM embedding                                 
  Dipayan Datta          : RHF DLPNO-CCSD density                        
  Achintya Kumar Dutta   : EOM-CC, STEOM-CC                              
  Nicolas Foglia         : Exact transition moments, OPA infrastructure, MCD improvements    
  Dmitry Ganyushin       : Spin-Orbit,Spin-Spin,Magnetic field MRCI      
  Miquel Garcia-Rates    : C-PCM and meta-GGA Hessian, CCSD/C-PCM, Gaussian charge scheme 
  Tiago L. C. Gouveia    : GS-ROHF, GS-ROCIS                             
  Yang Guo               : DLPNO-NEVPT2, F12-NEVPT2, CIM, IAO-localization        
  Andreas Hansen         : Spin unrestricted coupled pair/coupled cluster methods 
  Ingolf Harden          : AUTO-CI MPn and infrastructure                
  Benjamin Helmich-Paris : MC-RPA, TRAH-(SCF,CASSCF), AVAS, COSX integrals, SCF dyn. polar., MC-PDFT, srDFT 
  Lee Huntington         : MR-EOM, pCC                                   
  Robert Izsak           : Overlap fitted RIJCOSX, COSX-SCS-MP3, EOM     
  Riya Kayal             : Wick's Theorem for AUTO-CI, AUTO-CI UHF-CCSDT 
  Emily Kempfer          : AUTO-CI RHF CISDT and CCSDT, approximate NEVPT4
  Christian Kollmar      : KDIIS, OOCD, Brueckner-CCSD(T), CCSD density, CASPT2, CASPT2-K, improved NEVPT2 
  Axel Koslowski         : Symmetry handling                             
  Simone Kossmann        : meta-GGA functionals, TD-DFT gradient, OOMP2, (MP2 Hessian; deprecated post 5.0) 
  Lucas Lang             : DCDCAS, Hyperfine gauge corrections, ICE-SOC+SSC
  Marvin Lechner         : AUTO-CI (C++ implementation), FIC-MRCC        
  Spencer Leger          : CASSCF response                               
  Dagmar Lenk            : GEPOL surface, SMD, ORCA-2-JSON               
  Dimitrios Liakos       : Extrapolation schemes; Compound Job, Property file
  Dimitrios Manganas     : Further ROCIS development; embedding schemes. LFT, Crystal Embedding 
  Dimitrios Pantazis     : SARC Basis sets                               
  Anastasios Papadopoulos: AUTO-CI, single reference methods and gradients 
  Taras Petrenko         : pre 6.0 DFT Hessian and TD-DFT gradient,  ECA, NRVS 
  Petra Pikulova         : Analytic Raman intensities                    
  Peter Pinski           : DLPNO-MP2, DLPNO-MP2 Gradient                 
  Shashank Vittal Rao    : ES-AILFT, MagRelax                            
  Christoph Reimann      : Effective Core Potentials                     
  Marius Retegan         : Local ZFS, SOC                                
  Christoph Riplinger    : Optimizer, TS searches, QM/MM, DLPNO-CCSD(T), (RO)-DLPNO pert. Triples 
  Michael Roemelt        : Original ROCIS implementation, recursive CI coupling coefficients
  Masaaki Saitow         : Open-shell DLPNO-CCSD energy and density      
  Barbara Sandhoefer     : DKH picture change effects                    
  Yorick L. A. Schmerwitz: GMF and freeze-and-release deltaSCF, NEB S-IDPP initial path                    
  Kantharuban Sivalingam : CASSCF convergence/infrastructure, NEVPT2, NEVPT3, NEVPT4(SD), FIC-MRCI and CEPA variants
  Bernardo de Souza      : ESD, SOC TD-DFT                               
  Georgi L. Stoychev     : AutoAux, RI-MP2 NMR, DLPNO-MP2 response, X2C  
  Van Anh Tran           : RI-MP2 g-tensors                              
  Willem Van den Heuvel  : Paramagnetic NMR                              
  Zikuan Wang            : NOTCH, Electric field optimization            
  Frank Wennmohs         : Technical directorship and infrastructure     
  Hang Xu                : AUTO-CI-Response properties                   
                                                                         
[FACCTs GmbH]                                                            
  Markus Bursch, Nicolas Foglia, Miquel Garcia-Rates, Ingolf Harden, Hagen Neugebauer, Anastasios Papadopoulos, 
  Christoph Riplinger, Bernardo de Souza, Georgi L. Stoychev                                                    
                                                                 
  APM, various basis sets, CI-OPT, improved COSX, DLPNO-Multilevel,           
  DOCKER, DRACO, updates on ESD, Fragmentator, GOAT, IRC, LR-CPCM, L-BFGS, MBIS, meta-GGA TD-DFT gradient, ML-optimized integration grids, 
  MM, NACMEs, nearIR, NEB, NEB-TS, NL-DFT gradient (VV10), 2- and 3-layer-ONIOM, interface openCOSMO-RS, QMMM,   
  Crystal-QMMM, RESP, rigid body optimization, SF, symmetry and pop. for TD-DFT, various functionals, SOLVATOR                                   
                                                                         
[Other institutions]                                                     
  V. Asgeirsson          : NEB                                           
  Christoph Bannwarth    : sTDA-DFT, sTD-DFT, PBEh-3c, B97-3c, D3        
  Giovanni Bistoni       : ETS/NOCV, ADLD/ADEX, COVALED                  
  Martin Brehm           : Molecular dynamics                            
  Ronald Cardenas        : ETS/NOCV                                      
  Martina Colucci        : COVALED                                       
  Sebastian Ehlert       : rSCAN, r2SCAN, r2SCAN-3c, D4, dhf basis sets  
  Marvin Friede          : D4 for Fr, Ra, Ac-Lr                          
  Lars Goerigk           : TD-DFT with DH, B97 family of functionals     
  Stefan Grimme          : VdW corrections, initial TS optimization, DFT functionals, gCP, sTDA/sTD-DF 
  Waldemar Hujo          : DFT-NL                                        
  H. Jonsson             : NEB                                           
  Holger Kruse           : gCP                                           
  Marcel Mueller         : wB97X-3c, vDZP basis set                      
  Hagen Neugebauer       : wr2SCAN, Native XTB                           
  Gianluca Regni         : ADLD/ADEX                                     
  Tobias Risthaus        : pre 6.0 range-separated hybrid DFT and stability analysis
  Lukas Wittmann         : regularized MP2, r2SCAN double-hybrids, wr2SCAN        
                                                                         
We gratefully acknowledge several colleagues who have allowed us to      
interface, adapt or use parts of their codes:                            
  Ed Valeev, F. Pavosevic, A. Kumar             : LibInt (2-el integral package), F12 methods 
  Garnet Chan, S. Sharma, J. Yang, R. Olivares  : DMRG                   
  Ulf Ekstrom                                   : XCFun DFT Library      
  Mihaly Kallay                                 : mrcc  (arbitrary order and MRCC methods)
  Frank Weinhold                                : gennbo (NPA and NBO analysis)           
  Simon Mueller                                 : openCOSMO-RS                            
  Christopher J. Cramer and Donald G. Truhlar   : smd solvation model                     
  S Lehtola, MJT Oliveira, MAL Marques          : LibXC Library                           
  Liviu Ungur et al                             : ANISO software                          


 Your calculation uses the libint2 library for the computation of 2-el integrals
 For citations please refer to: http://libint.valeyev.net

 Your ORCA version has been built with support for libXC version: 7.0.0
 For citations please refer to: https://libxc.gitlab.io

 This ORCA versions uses:
   CBLAS   interface :  Fast vector & matrix operations
   LAPACKE interface :  Fast linear algebra routines
   SCALAPACK package :  Parallel linear algebra routines
   Shared memory     :  Shared parallel matrices
   BLAS/LAPACK       :  OpenBLAS 0.3.29  USE64BITINT DYNAMIC_ARCH NO_AFFINITY Prescott SINGLE_THREADED
        Core in use  :  Prescott
   Copyright (c) 2011-2014, The OpenBLAS Project


  ***********************************
  * Starting time: Fri Aug  8 15:34:27 2025
  * Host name:     cuda6
  * Process ID:    94034
  * Working dir.:  /local/scratch/mehlhorn/61793
  ***********************************



***************************************
The coordinates will be read from file: start.xyz
***************************************


Your calculation utilizes the geometrical counterpoise correction gCP
Please cite in your paper:
H.Kruse, S. Grimme J.Chem.Phys., 136, (2012), 154101 
   

Your calculation utilizes the atom-pairwise dispersion correction
with the Becke-Johnson damping scheme (D3BJ)


Warning: RI is on but no J-basis has been assigned. Assigning Def2/J (nothing to worry about!)
================================================================================

cite the ECPs for Zr [Def2-ECP] as follows:
Ce-Yb(ecp-28): M. Dolg, H. Stoll, H.Preuss, J. Chem. Phys., 1989, 90, 1730-1734.
Y-Cd(ecp-28), Hf-Hg(ecp-46): D. Andrae,U. Haeussermann, M. Dolg, H. Stoll, H. Preuss, Theor. Chim. Acta, 1990, 77, 123-141.
In-Sb(ecp-28), Tl-Bi(ecp-46): B. Metz, H. Stoll, M. Dolg, J. Chem. Phys., 2000, 113, 2563-2569.
Te-Xe(ecp-28), Po-Rn(ecp-46): K. A. Peterson, D. Figgen, E. Goll, H. Stoll, M. Dolg, J. Chem. Phys., 2003, 119, 11113-11123.
Rb(ecp-28), Cs(ecp-46): T. Leininger, A. Nicklass, W. Kuechle, H. Stoll, M. Dolg, A. Bergner, Chem. Phys. Lett., 1996, 255, 274-280.
Sr(ecp-28), Ba(ecp-46): M. Kaupp, P. V. Schleyer, H. Stoll and H. Preuss, J. Chem. Phys., 1991, 94, 1360-1366.
La(ecp-46): M. Dolg, H. Stoll, A. Savin, H. Preuss, Theor. Chim. Acta, 1989, 75, 173-194.
Lu(ecp-28): X. Cao, M. Dolg, J. Chem. Phys., 2001, 115, 7348-7355.

ECP parameters for Zr [Def2-ECP] have been obtained from:
TURBOMOLE (7.0.2)

----- Orbital basis set information -----
Your calculation utilizes the basis: def2-SV(P)
   F. Weigend and R. Ahlrichs, Phys. Chem. Chem. Phys. 7, 3297 (2005).

----- AuxJ basis set information -----
Your calculation utilizes the auxiliary basis: def2/J
   H-Rn: F. Weigend, Phys. Chem. Chem. Phys. 8, 1057 (2006).
   Fr-Lr: K. Eichkorn, F. Weigend, O. Treutler, R. Ahlrichs; Theor. Chem. Acc. 97, 119 (1997).

================================================================================
                                        WARNINGS
                       Please study these warnings very carefully!
================================================================================


WARNING: Gradients are needed
  ===> : At least TightSCF should be used for SCF convergence

WARNING: Geometry Optimization
  ===> : Switching off AutoStart
         For restart on a previous wavefunction, please use MOREAD

================================================================================
                                       INPUT FILE
================================================================================
NAME = run.inp
|  1> # Geometry optimization for (AlH3)n cluster
|  2> 
|  3> %pal nprocs 24  end
|  4> 
|  5> %geom MaxIter 500 end
|  6> 
|  7> 
|  8> ! PBE def2-SV(P)
|  9> ! RKS	# closed shell for AlH3
| 10> ! D3    #  dispersion correction
| 11> ! gCP(DFT/SV(P))
| 12> ! Freq 	# Frequency analysis to check the stabiltity of the structures
| 13> 
| 14> ! NoPop # population analysis not necessary	
| 15> 
| 16> ! DEFGRID2
| 17> ! NormalSCF
| 18> ! SloppyOpt
| 19> 
| 20> ! SmallPrint
| 21> 
| 22> 
| 23> * xyzFile 0 1 start.xyz # only maingroup elements H and Al so there should be no net spin
| 24> 
| 25>                          ****END OF INPUT****
================================================================================

                       *****************************
                       * Geometry Optimization Run *
                       *****************************

Geometry optimization settings:
Update method            Update   .... BFGS
Choice of coordinates    CoordSys .... (2022) Redundant Internals
Initial Hessian          InHess   .... Almloef's Model
Max. no of cycles        MaxIter  .... 500

Convergence Tolerances:
Energy Change            TolE     ....  8.0000e-05 Eh
Max. Gradient            TolMAXG  ....  5.0000e-03 Eh/bohr
RMS Gradient             TolRMSG  ....  1.0000e-03 Eh/bohr
Max. Displacement        TolMAXD  ....  3.0000e-02 bohr
RMS Displacement         TolRMSD  ....  2.0000e-02 bohr
Strict Convergence                .... False

------------------------------------------------------------------------------
                        ORCA OPTIMIZATION COORDINATE SETUP
------------------------------------------------------------------------------

The optimization will be done in redundant internal coordinates (2022)
Making redundant internal coordinates   ...  (2022 redundants) done
Evaluating the initial hessian          ...  (Almloef) done
Evaluating the coordinates              ...  done
Calculating the B-matrix                .... done
Calculating the G-matrix                .... done
The number of degrees of freedom        ....  621

    -----------------------------------------------------------------
                    Redundant Internal Coordinates


    -----------------------------------------------------------------
         Definition                    Initial Value    Approx d2E/dq
    -----------------------------------------------------------------
      1. B(Zr  2,Zr  1)                  3.4167         0.037369   
      2. B(Zr  3,Zr  0)                  3.3559         0.046721   
      3. B(Zr  4,Zr  1)                  3.3560         0.046698   
      4. B(Zr  4,Zr  3)                  3.4261         0.036102   
      5. B(Zr  5,Zr  0)                  3.4220         0.036656   
      6. B(Zr  5,Zr  2)                  3.4262         0.036094   
      7. B(O   6,Zr  0)                  2.1316         0.371325   
      8. B(O   6,Zr  3)                  2.0879         0.436076   
      9. B(O   6,Zr  5)                  2.1152         0.394436   
     10. B(O   7,Zr  2)                  2.1161         0.393203   
     11. B(O   7,Zr  4)                  2.0843         0.441854   
     12. B(O   7,Zr  1)                  2.1352         0.366481   
     13. B(O   8,Zr  5)                  2.1132         0.397339   
     14. B(O   8,Zr  2)                  2.0965         0.422506   
     15. B(O   8,Zr  1)                  2.1497         0.347479   
     16. B(O   9,Zr  4)                  2.1583         0.336748   
     17. B(O   9,Zr  3)                  2.1093         0.403045   
     18. B(O   9,Zr  0)                  2.1924         0.297044   
     19. B(O  10,Zr  1)                  2.1915         0.298036   
     20. B(O  10,Zr  4)                  2.1117         0.399528   
     21. B(O  10,Zr  3)                  2.1603         0.334185   
     22. B(O  11,Zr  2)                  2.1225         0.384037   
     23. B(O  11,Zr  5)                  2.0996         0.417689   
     24. B(O  11,Zr  0)                  2.1551         0.340687   
     25. B(O  12,Zr  0)                  1.9829         0.641328   
     26. B(O  13,Zr  0)                  1.9756         0.658628   
     27. B(O  14,Zr  0)                  2.0628         0.478100   
     28. B(O  15,Zr  0)                  2.0502         0.500779   
     29. B(O  16,Zr  1)                  2.0672         0.470578   
     30. B(O  17,Zr  1)                  2.0433         0.513723   
     31. B(O  18,Zr  1)                  1.9847         0.637086   
     32. B(O  19,Zr  1)                  1.9746         0.661111   
     33. B(O  20,Zr  2)                  1.9905         0.623540   
     34. B(O  21,Zr  2)                  2.0338         0.531952   
     35. B(O  22,Zr  2)                  1.9915         0.621319   
     36. B(O  23,Zr  2)                  2.0529         0.495852   
     37. B(O  24,Zr  3)                  2.0680         0.469210   
     38. B(O  25,Zr  3)                  1.9810         0.645711   
     39. B(O  26,Zr  3)                  1.9908         0.622969   
     40. B(O  27,Zr  3)                  1.9903         0.624031   
     41. B(O  28,Zr  4)                  1.9911         0.622267   
     42. B(O  29,Zr  4)                  1.9914         0.621565   
     43. B(O  30,Zr  4)                  1.9814         0.644744   
     44. B(O  31,Zr  4)                  2.0701         0.465549   
     45. B(O  32,Zr  5)                  2.0541         0.493740   
     46. B(O  33,Zr  5)                  1.9856         0.634909   
     47. B(O  34,Zr  5)                  2.0397         0.520461   
     48. B(O  35,Zr  5)                  1.9907         0.623281   
     49. B(C  36,O  33)                  1.3003         0.778122   
     50. B(C  36,O  12)                  1.3011         0.775785   
     51. B(C  37,O  25)                  1.2986         0.782867   
     52. B(C  37,O  13)                  1.2988         0.782348   
     53. B(C  38,O  21)                  1.3016         0.774342   
     54. B(C  38,O  14)                  1.2998         0.779381   
     55. B(C  39,O  29)                  1.2944         0.795137   
     56. B(C  39,O  15)                  1.2954         0.792169   
     57. B(C  40,O  34)                  1.3018         0.773630   
     58. B(C  40,O  16)                  1.2997         0.779771   
     59. B(C  41,O  26)                  1.2944         0.794965   
     60. B(C  41,O  17)                  1.2954         0.792114   
     61. B(C  42,O  22)                  1.3005         0.777415   
     62. B(C  42,O  18)                  1.3016         0.774409   
     63. B(C  43,O  19)                  1.2988         0.782355   
     64. B(C  43,O  30)                  1.2986         0.782785   
     65. B(C  44,O  35)                  1.3014         0.774801   
     66. B(C  44,O  20)                  1.3015         0.774660   
     67. B(C  45,O  31)                  1.2965         0.788829   
     68. B(C  45,O  23)                  1.2968         0.788050   
     69. B(C  46,O  32)                  1.2970         0.787608   
     70. B(C  46,O  24)                  1.2966         0.788687   
     71. B(C  47,O  28)                  1.3020         0.773129   
     72. B(C  47,O  27)                  1.3020         0.773201   
     73. B(H  48,C  41)                  1.0855         0.366071   
     74. B(H  49,C  42)                  1.0916         0.357952   
     75. B(H  50,C  38)                  1.0880         0.362805   
     76. B(H  51,C  37)                  1.0901         0.359989   
     77. B(H  52,C  43)                  1.0901         0.359996   
     78. B(H  53,C  47)                  1.0919         0.357648   
     79. B(H  54,C  39)                  1.0854         0.366215   
     80. B(H  55,C  45)                  1.0847         0.367167   
     81. B(H  56,C  40)                  1.0879         0.362847   
     82. B(H  57,C  46)                  1.0848         0.367022   
     83. B(H  58,C  36)                  1.0914         0.358194   
     84. B(H  59,C  44)                  1.0914         0.358252   
     85. B(Al 60,C  44)                  3.5965         0.010000   
     86. B(Al 60,C  38)                  3.5766         0.010000   
     87. B(Al 60,H  50)                  3.5424         0.010000   
     88. B(Al 60,O  33)                  3.5090         0.010000   
     89. B(Al 60,O  14)                  3.5663         0.010000   
     90. B(H  61,O  21)                  3.4046         0.010000   
     91. B(H  61,H  59)                  3.3321         0.010000   
     92. B(H  61,C  44)                  3.3308         0.010000   
     93. B(H  61,C  38)                  3.0882         0.010000   
     94. B(H  61,O  20)                  2.9056         0.010000   
     95. B(H  61,H  50)                  2.8847         0.010000   
     96. B(H  61,Al 60)                  1.5966         0.392480   
     97. B(H  62,O  20)                  3.5913         0.010000   
     98. B(H  62,C  36)                  3.3243         0.010000   
     99. B(H  62,H  58)                  3.3029         0.010000   
    100. B(H  62,O  35)                  3.2018         0.010000   
    101. B(H  62,C  44)                  3.0025         0.010000   
    102. B(H  62,H  59)                  2.9216         0.010000   
    103. B(H  62,O  33)                  2.7766         0.010000   
    104. B(H  62,Al 60)                  1.5965         0.392587   
    105. B(H  63,O  33)                  3.5395         0.010000   
    106. B(H  63,O  12)                  3.4718         0.010000   
    107. B(H  63,C  38)                  3.2865         0.010000   
    108. B(H  63,H  50)                  3.2261         0.010000   
    109. B(H  63,C  36)                  3.0796         0.010000   
    110. B(H  63,H  58)                  2.9405         0.010000   
    111. B(H  63,O  14)                  2.8299         0.010000   
    112. B(H  63,Al 60)                  1.5966         0.392372   
    113. A(Zr  5,Zr  0,O   9)           95.8787         0.316318   
    114. A(Zr  3,Zr  0,O   6)           36.8634         0.341594   
    115. A(O  11,Zr  0,O  14)           68.8325         0.463567   
    116. A(Zr  5,Zr  0,O   6)           36.1534         0.328097   
    117. A(O   6,Zr  0,O  15)          133.8120         0.474966   
    118. A(Zr  3,Zr  0,O  14)          164.1717         0.356465   
    119. A(Zr  5,Zr  0,O  13)          130.0841         0.361212   
    120. A(O  12,Zr  0,O  15)          140.7057         0.525783   
    121. A(O   6,Zr  0,O  13)          103.0449         0.499660   
    122. A(O  12,Zr  0,O  13)           82.3411         0.553727   
    123. A(O  12,Zr  0,O  14)           84.4253         0.521225   
    124. A(O  14,Zr  0,O  15)           73.1312         0.497689   
    125. A(Zr  3,Zr  0,O  11)           97.2862         0.336719   
    126. A(Zr  5,Zr  0,O  14)           97.5053         0.342173   
    127. A(Zr  3,Zr  0,O  13)           74.3418         0.376578   
    128. A(O   9,Zr  0,O  12)          140.6989         0.477084   
    129. A(Zr  5,Zr  0,O  15)          143.4019         0.344843   
    130. A(O  13,Zr  0,O  15)           82.1544         0.528422   
    131. A(Zr  5,Zr  0,O  12)           69.9720         0.359577   
    132. A(Zr  3,Zr  0,O   9)           37.8487         0.329151   
    133. A(O   6,Zr  0,O  14)          132.8019         0.470939   
    134. A(Zr  3,Zr  0,O  15)          106.7134         0.359286   
    135. A(O   9,Zr  0,O  15)           70.4453         0.455952   
    136. A(O   9,Zr  0,O  14)          134.6187         0.452123   
    137. A(Zr  5,Zr  0,O  11)           35.9113         0.323482   
    138. A(O   9,Zr  0,O  11)          100.5831         0.425314   
    139. A(O   6,Zr  0,O  11)           65.1053         0.442741   
    140. A(Zr  3,Zr  0,Zr  5)           72.9874         0.256436   
    141. A(O  11,Zr  0,O  13)          165.9513         0.491733   
    142. A(O  11,Zr  0,O  15)          111.3624         0.467516   
    143. A(O   6,Zr  0,O  12)           84.9263         0.497193   
    144. A(O  11,Zr  0,O  12)           88.8481         0.489314   
    145. A(O  13,Zr  0,O  14)          120.7722         0.523836   
    146. A(Zr  3,Zr  0,O  12)          103.4391         0.374851   
    147. A(O   9,Zr  0,O  13)           79.8839         0.479429   
    148. A(O   6,Zr  0,O   9)           65.6165         0.431934   
    149. A(O   8,Zr  1,O  16)           68.7963         0.463896   
    150. A(O  16,Zr  1,O  18)           83.6458         0.519030   
    151. A(O   7,Zr  1,O  18)           84.8858         0.495371   
    152. A(O  10,Zr  1,O  19)           79.6755         0.480057   
    153. A(O  16,Zr  1,O  17)           73.4330         0.498584   
    154. A(O  10,Zr  1,O  17)           70.8206         0.458357   
    155. A(O   8,Zr  1,O  18)           89.4587         0.490503   
    156. A(O   8,Zr  1,O  10)          100.1714         0.427076   
    157. A(O  10,Zr  1,O  18)          140.4780         0.476794   
    158. A(Zr  2,Zr  1,O   8)           35.8971         0.325562   
    159. A(O  10,Zr  1,O  16)          135.6060         0.451096   
    160. A(O   7,Zr  1,O  17)          133.8898         0.476050   
    161. A(O  17,Zr  1,O  18)          140.8088         0.527653   
    162. A(Zr  4,Zr  1,O  17)          107.3165         0.360821   
    163. A(O   8,Zr  1,O  19)          166.4020         0.493881   
    164. A(O   7,Zr  1,O  10)           65.6274         0.431174   
    165. A(Zr  4,Zr  1,O  10)           37.9046         0.329306   
    166. A(Zr  2,Zr  1,O  10)           96.1000         0.317485   
    167. A(O   7,Zr  1,O  19)          103.3091         0.498790   
    168. A(Zr  2,Zr  1,O  19)          130.5099         0.362635   
    169. A(O  17,Zr  1,O  19)           82.6188         0.531344   
    170. A(O  16,Zr  1,O  19)          120.7381         0.522648   
    171. A(Zr  2,Zr  1,Zr  4)           73.0871         0.257150   
    172. A(Zr  4,Zr  1,O  19)           74.4944         0.376792   
    173. A(Zr  2,Zr  1,O   7)           36.3255         0.328430   
    174. A(Zr  2,Zr  1,O  18)           69.9350         0.360352   
    175. A(Zr  2,Zr  1,O  16)           96.6838         0.342370   
    176. A(Zr  2,Zr  1,O  17)          142.7741         0.347451   
    177. A(Zr  4,Zr  1,O  18)          103.2056         0.374390   
    178. A(Zr  4,Zr  1,O  16)          164.3393         0.355478   
    179. A(O   7,Zr  1,O  16)          132.2598         0.468441   
    180. A(O   8,Zr  1,O  17)          110.3068         0.471414   
    181. A(O   7,Zr  1,O   8)           64.9088         0.443271   
    182. A(Zr  4,Zr  1,O   7)           36.7871         0.340817   
    183. A(Zr  4,Zr  1,O   8)           96.9158         0.337801   
    184. A(O  18,Zr  1,O  19)           82.4590         0.553425   
    185. A(O   7,Zr  2,O   8)           66.1644         0.465244   
    186. A(Zr  1,Zr  2,O  22)           74.0431         0.358818   
    187. A(Zr  5,Zr  2,O  20)           72.3080         0.356921   
    188. A(Zr  5,Zr  2,O   8)           35.6870         0.334329   
    189. A(O  11,Zr  2,O  20)           77.6139         0.497705   
    190. A(O  20,Zr  2,O  22)           81.8874         0.544723   
    191. A(Zr  5,Zr  2,O   7)           83.5307         0.330370   
    192. A(O  21,Zr  2,O  22)          136.5281         0.528628   
    193. A(O  20,Zr  2,O  23)          133.0998         0.522040   
    194. A(O   8,Zr  2,O  21)          140.9683         0.491882   
    195. A(Zr  1,Zr  2,Zr  5)           68.4178         0.247627   
    196. A(O  21,Zr  2,O  23)           79.5289         0.506747   
    197. A(O  11,Zr  2,O  23)          136.0800         0.477049   
    198. A(O  22,Zr  2,O  23)           80.1955         0.521691   
    199. A(O   8,Zr  2,O  11)           68.4849         0.463241   
    200. A(Zr  5,Zr  2,O  21)          107.0050         0.347459   
    201. A(Zr  5,Zr  2,O  23)          154.5923         0.343381   
    202. A(O  20,Zr  2,O  21)           84.6056         0.528983   
    203. A(O   8,Zr  2,O  20)           90.0230         0.506632   
    204. A(Zr  1,Zr  2,O   8)           36.9570         0.336265   
    205. A(O  11,Zr  2,O  22)          142.2369         0.497375   
    206. A(O   7,Zr  2,O  23)           71.2132         0.479126   
    207. A(Zr  1,Zr  2,O  21)          144.3355         0.349499   
    208. A(O  11,Zr  2,O  21)           72.6060         0.483270   
    209. A(Zr  5,Zr  2,O  22)          107.7599         0.356705   
    210. A(O   7,Zr  2,O  11)           86.3758         0.457202   
    211. A(Zr  1,Zr  2,O  11)           91.6839         0.330980   
    212. A(O   7,Zr  2,O  21)          108.8722         0.485381   
    213. A(O   8,Zr  2,O  22)           80.2521         0.506295   
    214. A(Zr  1,Zr  2,O   7)           36.7079         0.332275   
    215. A(O   7,Zr  2,O  22)          100.2358         0.499561   
    216. A(O   8,Zr  2,O  23)          128.4826         0.485525   
    217. A(O   7,Zr  2,O  20)          155.0696         0.499892   
    218. A(Zr  1,Zr  2,O  23)           91.7445         0.345388   
    219. A(Zr  1,Zr  2,O  20)          123.9374         0.359036   
    220. A(Zr  5,Zr  2,O  11)           35.5362         0.329085   
    221. A(O   6,Zr  3,O  10)           83.7252         0.454251   
    222. A(O   9,Zr  3,O  10)           69.5128         0.447797   
    223. A(Zr  4,Zr  3,O  10)           36.1976         0.321659   
    224. A(O   9,Zr  3,O  24)          126.9716         0.476442   
    225. A(O  24,Zr  3,O  25)           80.8736         0.520056   
    226. A(O  26,Zr  3,O  27)           85.6489         0.545078   
    227. A(O   9,Zr  3,O  25)           79.9696         0.505479   
    228. A(Zr  0,Zr  3,O  27)          129.2534         0.373087   
    229. A(O  25,Zr  3,O  27)           81.7033         0.548794   
    230. A(O  24,Zr  3,O  27)          132.6232         0.516737   
    231. A(O   9,Zr  3,O  27)           92.3726         0.502272   
    232. A(O   6,Zr  3,O  27)          156.7311         0.509706   
    233. A(Zr  4,Zr  3,O  27)           71.7627         0.356983   
    234. A(O  10,Zr  3,O  27)           77.6230         0.485113   
    235. A(O   9,Zr  3,O  26)          143.5850         0.502113   
    236. A(O  25,Zr  3,O  26)          135.2185         0.548617   
    237. A(O  24,Zr  3,O  26)           76.7649         0.516572   
    238. A(O  10,Zr  3,O  26)           74.5787         0.484961   
    239. A(O   6,Zr  3,O  26)          102.7828         0.509544   
    240. A(Zr  4,Zr  3,O  26)          109.5619         0.356880   
    241. A(Zr  0,Zr  3,O  26)          140.4568         0.372978   
    242. A(O   6,Zr  3,O   9)           67.8791         0.470073   
    243. A(O  10,Zr  3,O  25)          142.0065         0.488187   
    244. A(O   6,Zr  3,O  25)          105.6114         0.512970   
    245. A(Zr  4,Zr  3,O   9)           37.0906         0.331737   
    246. A(Zr  4,Zr  3,O  25)          106.7964         0.359063   
    247. A(O  10,Zr  3,O  24)          135.7879         0.460356   
    248. A(Zr  0,Zr  3,O   9)           39.6237         0.346324   
    249. A(Zr  4,Zr  3,O  24)          155.6134         0.340234   
    250. A(O   6,Zr  3,O  24)           70.6456         0.483411   
    251. A(Zr  0,Zr  3,O  24)           87.7057         0.355331   
    252. A(Zr  0,Zr  3,O  10)           93.4944         0.335641   
    253. A(Zr  0,Zr  3,Zr  4)           72.4603         0.255860   
    254. A(Zr  0,Zr  3,O   6)           37.7691         0.350953   
    255. A(Zr  0,Zr  3,O  25)           75.5527         0.375292   
    256. A(Zr  4,Zr  3,O   6)           84.9689         0.336104   
    257. A(Zr  1,Zr  4,Zr  3)           72.4140         0.255842   
    258. A(O   9,Zr  4,O  10)           69.5090         0.447705   
    259. A(O   7,Zr  4,O  10)           67.9561         0.470452   
    260. A(Zr  3,Zr  4,O  10)           37.1690         0.331256   
    261. A(O  10,Zr  4,O  28)           91.8504         0.501188   
    262. A(O   9,Zr  4,O  29)           74.5840         0.485443   
    263. A(O  28,Zr  4,O  30)           81.8103         0.548344   
    264. A(O  30,Zr  4,O  31)           80.8256         0.519147   
    265. A(O  29,Zr  4,O  31)           76.8849         0.515597   
    266. A(O   7,Zr  4,O  31)           70.5872         0.483887   
    267. A(O  28,Zr  4,O  31)          133.0310         0.515706   
    268. A(O  10,Zr  4,O  31)          127.1057         0.474989   
    269. A(O   9,Zr  4,O  31)          135.3022         0.460339   
    270. A(Zr  3,Zr  4,O  31)          155.4191         0.339789   
    271. A(Zr  1,Zr  4,O  31)           87.8381         0.354831   
    272. A(O  29,Zr  4,O  30)          134.9068         0.548226   
    273. A(O  10,Zr  4,O  30)           80.0151         0.504512   
    274. A(O   9,Zr  4,O  30)          142.4343         0.488742   
    275. A(O   7,Zr  4,O  30)          105.4133         0.514091   
    276. A(Zr  3,Zr  4,O  30)          107.2016         0.358971   
    277. A(Zr  1,Zr  4,O  30)           75.4136         0.375163   
    278. A(O  28,Zr  4,O  29)           85.5192         0.544553   
    279. A(O  10,Zr  4,O  29)          143.7199         0.501083   
    280. A(O   7,Zr  4,O  29)          103.3280         0.510583   
    281. A(Zr  3,Zr  4,O  29)          109.3380         0.356743   
    282. A(Zr  1,Zr  4,O  29)          141.0646         0.372802   
    283. A(O   9,Zr  4,O  28)           77.8701         0.485545   
    284. A(O   7,Zr  4,O  28)          156.3799         0.510691   
    285. A(Zr  3,Zr  4,O  28)           71.5462         0.356811   
    286. A(O   7,Zr  4,O   9)           83.3963         0.455975   
    287. A(Zr  1,Zr  4,O  28)          128.7209         0.372874   
    288. A(Zr  3,Zr  4,O   9)           36.1149         0.322062   
    289. A(Zr  1,Zr  4,O   9)           93.2801         0.336040   
    290. A(Zr  3,Zr  4,O   7)           84.8397         0.336841   
    291. A(Zr  1,Zr  4,O   7)           37.8409         0.351706   
    292. A(Zr  1,Zr  4,O  10)           39.6099         0.345786   
    293. A(O  11,Zr  5,O  35)           89.8668         0.505510   
    294. A(O  34,Zr  5,O  35)           83.4069         0.526773   
    295. A(O  33,Zr  5,O  35)           82.9348         0.546917   
    296. A(O  32,Zr  5,O  35)          133.3186         0.521582   
    297. A(O   8,Zr  5,O  35)           77.9586         0.500828   
    298. A(O   6,Zr  5,O  35)          155.0062         0.500145   
    299. A(Zr  2,Zr  5,O  35)           72.3287         0.356896   
    300. A(O  33,Zr  5,O  34)          135.9074         0.528608   
    301. A(O  32,Zr  5,O  34)           79.5289         0.504286   
    302. A(O  11,Zr  5,O  34)          141.0342         0.488857   
    303. A(Zr  0,Zr  5,O  35)          124.1388         0.357834   
    304. A(O  32,Zr  5,O  33)           80.0288         0.523395   
    305. A(O   6,Zr  5,O  34)          109.8386         0.483706   
    306. A(Zr  2,Zr  5,O  34)          106.4046         0.346185   
    307. A(Zr  0,Zr  5,O  34)          144.9021         0.347085   
    308. A(O  11,Zr  5,O  33)           80.5479         0.507256   
    309. A(O   8,Zr  5,O  33)          143.4102         0.502554   
    310. A(O   6,Zr  5,O  33)           99.7474         0.501869   
    311. A(Zr  0,Zr  5,O  33)           74.2974         0.358961   
    312. A(O  11,Zr  5,O  32)          128.9824         0.484115   
    313. A(O   8,Zr  5,O  32)          134.9070         0.479673   
    314. A(O   6,Zr  5,O  32)           71.2012         0.479026   
    315. A(Zr  2,Zr  5,O  32)          154.3194         0.343135   
    316. A(Zr  0,Zr  5,O  32)           92.1995         0.344025   
    317. A(Zr  2,Zr  5,O   6)           83.4190         0.330542   
    318. A(Zr  0,Zr  5,O   6)           36.4794         0.331387   
    319. A(Zr  0,Zr  5,Zr  2)           68.3567         0.246936   
    320. A(O   8,Zr  5,O  34)           72.4592         0.484362   
    321. A(O   8,Zr  5,O  11)           68.6011         0.465159   
    322. A(O   6,Zr  5,O  11)           66.3592         0.464535   
    323. A(Zr  2,Zr  5,O  11)           35.9831         0.333693   
    324. A(Zr  0,Zr  5,O  11)           37.0152         0.334550   
    325. A(O   6,Zr  5,O   8)           85.8311         0.460314   
    326. A(Zr  2,Zr  5,O  33)          108.8810         0.358019   
    327. A(Zr  2,Zr  5,O   8)           35.3621         0.330943   
    328. A(Zr  0,Zr  5,O   8)           91.0911         0.331790   
    329. A(Zr  3,O   6,Zr  5)          147.1305         0.468215   
    330. A(Zr  0,O   6,Zr  5)          107.3671         0.454667   
    331. A(Zr  0,O   6,Zr  3)          105.3675         0.463068   
    332. A(Zr  2,O   7,Zr  4)          147.5431         0.469077   
    333. A(Zr  1,O   7,Zr  4)          105.3721         0.463070   
    334. A(Zr  1,O   7,Zr  2)          106.9666         0.453323   
    335. A(Zr  1,O   8,Zr  2)          107.1459         0.454863   
    336. A(Zr  2,O   8,Zr  5)          108.9509         0.466136   
    337. A(Zr  1,O   8,Zr  5)          128.9662         0.449812   
    338. A(Zr  3,O   9,Zr  4)          106.7945         0.448418   
    339. A(Zr  0,O   9,Zr  4)          134.2667         0.424430   
    340. A(Zr  0,O   9,Zr  3)          102.5277         0.438356   
    341. A(Zr  3,O  10,Zr  4)          106.6334         0.447086   
    342. A(Zr  1,O  10,Zr  4)          102.4855         0.437927   
    343. A(Zr  1,O  10,Zr  3)          134.0496         0.424104   
    344. A(Zr  2,O  11,Zr  5)          108.4807         0.462271   
    345. A(Zr  0,O  11,Zr  5)          107.0735         0.452288   
    346. A(Zr  0,O  11,Zr  2)          128.1464         0.445446   
    347. A(Zr  0,O  12,C  36)          130.8842         0.505569   
    348. A(Zr  0,O  13,C  37)          132.2708         0.508886   
    349. A(Zr  0,O  14,C  38)          126.4356         0.479184   
    350. A(C  38,O  14,Al 60)           79.9637         0.189816   
    351. A(Zr  0,O  14,Al 60)          124.6288         0.193495   
    352. A(Zr  0,O  15,C  39)          141.7393         0.484754   
    353. A(Zr  1,O  16,C  40)          126.5569         0.477831   
    354. A(Zr  1,O  17,C  41)          141.6278         0.487040   
    355. A(Zr  1,O  18,C  42)          129.8702         0.504777   
    356. A(Zr  1,O  19,C  43)          132.1086         0.509245   
    357. A(Zr  2,O  20,C  44)          127.8830         0.502790   
    358. A(Zr  2,O  21,C  38)          136.9649         0.488139   
    359. A(Zr  2,O  22,C  42)          125.7049         0.502788   
    360. A(Zr  2,O  23,C  45)          140.2349         0.483404   
    361. A(Zr  3,O  24,C  46)          135.6992         0.478576   
    362. A(Zr  3,O  25,C  37)          130.2529         0.507071   
    363. A(Zr  3,O  26,C  41)          137.9682         0.505134   
    364. A(Zr  3,O  27,C  47)          127.1655         0.502687   
    365. A(Zr  4,O  28,C  47)          127.3683         0.502413   
    366. A(Zr  4,O  29,C  39)          137.7980         0.504942   
    367. A(Zr  4,O  30,C  43)          130.4484         0.506919   
    368. A(Zr  4,O  31,C  45)          136.3866         0.477901   
    369. A(Zr  5,O  32,C  46)          140.4216         0.482973   
    370. A(Zr  5,O  33,C  36)          126.0046         0.504905   
    371. A(C  36,O  33,Al 60)           85.0031         0.194697   
    372. A(Zr  5,O  33,Al 60)          120.0920         0.205861   
    373. A(Zr  5,O  34,C  40)          136.2575         0.486088   
    374. A(Zr  5,O  35,C  44)          128.5414         0.502768   
    375. A(O  12,C  36,O  33)          126.9616         0.464914   
    376. A(O  33,C  36,H  58)          116.4759         0.364216   
    377. A(O  12,C  36,H  58)          116.5593         0.364029   
    378. A(O  13,C  37,O  25)          127.4885         0.466150   
    379. A(O  25,C  37,H  51)          116.2636         0.364907   
    380. A(O  13,C  37,H  51)          116.2478         0.364866   
    381. A(O  14,C  38,O  21)          129.6390         0.464893   
    382. A(H  50,C  38,Al 60)           79.4331         0.164627   
    383. A(O  21,C  38,Al 60)          110.7031         0.191956   
    384. A(O  14,C  38,Al 60)           79.0675         0.192108   
    385. A(O  21,C  38,H  50)          115.2226         0.364710   
    386. A(O  14,C  38,H  50)          115.1356         0.365115   
    387. A(O  15,C  39,O  29)          129.0385         0.468550   
    388. A(O  29,C  39,H  54)          115.4684         0.366956   
    389. A(O  15,C  39,H  54)          115.4890         0.366721   
    390. A(O  16,C  40,O  34)          129.6974         0.464858   
    391. A(O  34,C  40,H  56)          115.2028         0.364660   
    392. A(O  16,C  40,H  56)          115.0949         0.365153   
    393. A(O  17,C  41,O  26)          129.0612         0.468526   
    394. A(O  26,C  41,H  48)          115.4587         0.366918   
    395. A(O  17,C  41,H  48)          115.4761         0.366692   
    396. A(O  18,C  42,O  22)          126.8847         0.464686   
    397. A(O  22,C  42,H  49)          116.5090         0.364117   
    398. A(O  18,C  42,H  49)          116.6011         0.363876   
    399. A(O  30,C  43,H  52)          116.2752         0.364902   
    400. A(O  19,C  43,H  52)          116.2284         0.364867   
    401. A(O  19,C  43,O  30)          127.4963         0.466142   
    402. A(O  35,C  44,Al 60)          105.0922         0.190279   
    403. A(O  20,C  44,Al 60)           80.3951         0.190275   
    404. A(H  59,C  44,Al 60)           83.7004         0.163173   
    405. A(O  35,C  44,H  59)          116.1753         0.363960   
    406. A(O  20,C  44,H  59)          116.1908         0.363948   
    407. A(O  20,C  44,O  35)          127.6335         0.464427   
    408. A(O  31,C  45,H  55)          114.9454         0.366619   
    409. A(O  23,C  45,H  55)          114.9779         0.366557   
    410. A(O  23,C  45,O  31)          130.0690         0.467420   
    411. A(O  32,C  46,H  57)          114.9454         0.366497   
    412. A(O  24,C  46,H  57)          115.0149         0.366583   
    413. A(O  24,C  46,O  32)          130.0316         0.467357   
    414. A(O  28,C  47,H  53)          116.4323         0.363720   
    415. A(O  27,C  47,H  53)          116.4407         0.363726   
    416. A(O  27,C  47,O  28)          127.1270         0.464084   
    417. A(C  38,Al 60,C  44)           74.0488         0.116777   
    418. A(O  14,Al 60,C  44)           80.2679         0.116160   
    419. A(O  33,Al 60,C  44)           56.1522         0.117485   
    420. A(C  44,Al 60,H  63)          124.9072         0.178426   
    421. A(C  44,Al 60,H  62)           55.7147         0.178437   
    422. A(C  44,Al 60,H  61)           67.5277         0.178432   
    423. A(O  14,Al 60,C  38)           20.9688         0.116613   
    424. A(O  33,Al 60,C  38)           76.7977         0.117961   
    425. A(C  38,Al 60,H  63)           66.5769         0.179919   
    426. A(C  38,Al 60,H  62)          120.4343         0.179931   
    427. A(C  38,Al 60,H  61)           59.4541         0.179925   
    428. A(O  14,Al 60,O  33)           63.0903         0.117317   
    429. A(O  14,Al 60,H  63)           50.3997         0.177898   
    430. A(O  14,Al 60,H  62)          112.4040         0.177909   
    431. A(O  14,Al 60,H  61)           80.4087         0.177904   
    432. A(O  33,Al 60,H  63)           77.9776         0.182236   
    433. A(O  33,Al 60,H  62)           50.3300         0.182248   
    434. A(O  33,Al 60,H  61)          115.7909         0.182242   
    435. A(H  62,Al 60,H  63)          116.9028         0.381744   
    436. A(H  61,Al 60,H  63)          117.1710         0.381726   
    437. A(H  61,Al 60,H  62)          116.7473         0.381762   
    438. D(Zr  5,Zr  2,Zr  1,Zr  4)    107.3813         0.010000   
    439. D(O   7,Zr  2,Zr  1,Zr  4)     -1.7561         0.010000   
    440. D(Zr  5,Zr  2,Zr  1,O   7)    109.1374         0.010000   
    441. D(O   6,Zr  3,Zr  0,Zr  5)      1.8606         0.010000   
    442. D(Zr  4,Zr  3,Zr  0,Zr  5)   -103.0761         0.010000   
    443. D(Zr  4,Zr  3,Zr  0,O   6)   -104.9367         0.010000   
    444. D(Zr  3,Zr  4,Zr  1,Zr  2)   -102.9897         0.010000   
    445. D(Zr  3,Zr  4,Zr  1,O   7)   -104.7267         0.010000   
    446. D(Zr  1,Zr  4,Zr  3,Zr  0)     99.5636         0.010000   
    447. D(O   7,Zr  4,Zr  3,Zr  0)     62.9987         0.010000   
    448. D(O   7,Zr  4,Zr  1,Zr  2)      1.7371         0.010000   
    449. D(Zr  1,Zr  4,Zr  3,O   6)     63.1169         0.010000   
    450. D(Zr  2,Zr  5,Zr  0,O   6)    109.2238         0.010000   
    451. D(O   6,Zr  5,Zr  0,Zr  3)     -1.8921         0.010000   
    452. D(Zr  2,Zr  5,Zr  0,Zr  3)    107.3318         0.010000   
    453. D(O   6,Zr  5,Zr  2,Zr  1)    -69.3391         0.010000   
    454. D(Zr  0,Zr  5,Zr  2,O   7)    -69.1155         0.010000   
    455. D(Zr  0,Zr  5,Zr  2,Zr  1)   -103.7487         0.010000   
    456. D(Zr  0,O   6,Zr  3,O   9)     33.6025         0.010000   
    457. D(Zr  0,O   6,Zr  5,Zr  2)    -62.0663         0.010000   
    458. D(Zr  5,O   6,Zr  3,Zr  0)   -174.6898         0.010000   
    459. D(Zr  3,O   6,Zr  0,Zr  5)   -176.9833         0.010000   
    460. D(Zr  0,O   6,Zr  3,Zr  4)     67.6463         0.010000   
    461. D(Zr  5,O   6,Zr  0,Zr  3)    176.9833         0.010000   
    462. D(Zr  3,O   6,Zr  5,Zr  0)    174.6349         0.010000   
    463. D(Zr  0,O   6,Zr  5,O   8)    -97.5097         0.010000   
    464. D(Zr  3,O   6,Zr  0,O   9)    -32.7907         0.010000   
    465. D(Zr  1,O   7,Zr  2,Zr  5)    -62.1447         0.010000   
    466. D(Zr  2,O   7,Zr  1,O   8)     29.1733         0.010000   
    467. D(Zr  4,O   7,Zr  1,Zr  2)   -177.1937         0.010000   
    468. D(Zr  2,O   7,Zr  1,Zr  4)    177.1937         0.010000   
    469. D(Zr  2,O   7,Zr  4,Zr  1)   -174.9941         0.010000   
    470. D(Zr  1,O   7,Zr  4,O   9)    104.0589         0.010000   
    471. D(Zr  1,O   7,Zr  4,Zr  3)     67.7742         0.010000   
    472. D(Zr  4,O   7,Zr  2,Zr  1)    174.9535         0.010000   
    473. D(Zr  1,O   7,Zr  2,O   8)    -29.6610         0.010000   
    474. D(Zr  2,O   8,Zr  5,Zr  0)     48.3757         0.010000   
    475. D(Zr  1,O   8,Zr  5,Zr  2)   -132.7353         0.010000   
    476. D(Zr  1,O   8,Zr  5,Zr  0)    -84.3596         0.010000   
    477. D(Zr  5,O   8,Zr  2,Zr  1)   -143.2986         0.010000   
    478. D(Zr  1,O   8,Zr  2,O   7)     29.4723         0.010000   
    479. D(Zr  1,O   8,Zr  2,Zr  5)    143.2986         0.010000   
    480. D(Zr  5,O   8,Zr  1,Zr  2)    133.3650         0.010000   
    481. D(Zr  2,O   8,Zr  1,O   7)    -29.5033         0.010000   
    482. D(Zr  2,O   8,Zr  1,Zr  4)    -48.1349         0.010000   
    483. D(Zr  3,O   9,Zr  4,Zr  1)    -53.7007         0.010000   
    484. D(Zr  0,O   9,Zr  4,Zr  3)    127.6320         0.010000   
    485. D(Zr  0,O   9,Zr  4,Zr  1)     73.9314         0.010000   
    486. D(Zr  4,O   9,Zr  3,Zr  0)    144.4830         0.010000   
    487. D(Zr  0,O   9,Zr  3,O   6)    -32.1073         0.010000   
    488. D(Zr  0,O   9,Zr  3,Zr  4)   -144.4830         0.010000   
    489. D(Zr  4,O   9,Zr  0,Zr  3)   -129.0442         0.010000   
    490. D(Zr  3,O   9,Zr  0,O   6)     31.9721         0.010000   
    491. D(Zr  3,O   9,Zr  0,Zr  5)     52.2750         0.010000   
    492. D(Zr  1,O  10,Zr  4,O   7)    -32.1062         0.010000   
    493. D(Zr  1,O  10,Zr  4,Zr  3)   -144.0348         0.010000   
    494. D(Zr  4,O  10,Zr  3,Zr  0)    -53.5095         0.010000   
    495. D(Zr  1,O  10,Zr  3,Zr  4)    127.0801         0.010000   
    496. D(Zr  1,O  10,Zr  3,Zr  0)     73.5705         0.010000   
    497. D(Zr  4,O  10,Zr  1,Zr  2)     52.1576         0.010000   
    498. D(Zr  3,O  10,Zr  1,Zr  4)   -128.4707         0.010000   
    499. D(Zr  3,O  10,Zr  4,Zr  1)    144.0348         0.010000   
    500. D(Zr  3,O  10,Zr  1,Zr  2)    -76.3131         0.010000   
    501. D(Zr  2,O  11,Zr  5,Zr  0)   -141.6220         0.010000   
    502. D(Zr  0,O  11,Zr  5,Zr  2)    141.6220         0.010000   
    503. D(Zr  5,O  11,Zr  2,Zr  1)     47.5998         0.010000   
    504. D(Zr  0,O  11,Zr  2,Zr  5)   -131.0050         0.010000   
    505. D(Zr  0,O  11,Zr  2,Zr  1)    -83.4052         0.010000   
    506. D(Zr  5,O  11,Zr  0,Zr  3)    -47.1994         0.010000   
    507. D(Zr  0,O  11,Zr  5,O   6)     28.6715         0.010000   
    508. D(Zr  2,O  11,Zr  0,Zr  5)    131.5193         0.010000   
    509. D(Zr  2,O  11,Zr  0,Zr  3)     84.3199         0.010000   
    510. D(C  36,O  12,Zr  0,Zr  5)     31.3935         0.010000   
    511. D(C  36,O  12,Zr  0,Zr  3)     97.3591         0.010000   
    512. D(C  37,O  13,Zr  0,Zr  5)    -52.7921         0.010000   
    513. D(C  37,O  13,Zr  0,Zr  3)     -2.0676         0.010000   
    514. D(Al 60,O  14,Zr  0,Zr  3)    -80.6308         0.010000   
    515. D(C  38,O  14,Zr  0,Zr  5)     75.5278         0.010000   
    516. D(C  38,O  14,Zr  0,Zr  3)     23.6435         0.010000   
    517. D(C  39,O  15,Zr  0,Zr  5)     50.0652         0.010000   
    518. D(C  39,O  15,Zr  0,Zr  3)    -33.7318         0.010000   
    519. D(C  40,O  16,Zr  1,Zr  4)     27.0019         0.010000   
    520. D(C  40,O  16,Zr  1,Zr  2)     75.1600         0.010000   
    521. D(C  41,O  17,Zr  1,Zr  4)    -33.1486         0.010000   
    522. D(C  41,O  17,Zr  1,Zr  2)     51.4952         0.010000   
    523. D(C  42,O  18,Zr  1,Zr  4)     99.9660         0.010000   
    524. D(C  42,O  18,Zr  1,Zr  2)     33.7842         0.010000   
    525. D(C  43,O  19,Zr  1,Zr  4)     -0.9291         0.010000   
    526. D(C  43,O  19,Zr  1,Zr  2)    -51.5744         0.010000   
    527. D(C  44,O  20,Zr  2,Zr  1)    -18.4540         0.010000   
    528. D(C  44,O  20,Zr  2,Zr  5)     28.7003         0.010000   
    529. D(C  38,O  21,Zr  2,Zr  5)     -0.1245         0.010000   
    530. D(C  38,O  21,Zr  2,Zr  1)     76.3676         0.010000   
    531. D(C  42,O  22,Zr  2,Zr  5)     86.3272         0.010000   
    532. D(C  42,O  22,Zr  2,Zr  1)     25.8851         0.010000   
    533. D(C  45,O  23,Zr  2,Zr  5)      1.0606         0.010000   
    534. D(C  45,O  23,Zr  2,Zr  1)     38.5386         0.010000   
    535. D(C  46,O  24,Zr  3,Zr  4)    -32.7385         0.010000   
    536. D(C  46,O  24,Zr  3,Zr  0)    -67.7680         0.010000   
    537. D(C  37,O  25,Zr  3,Zr  4)    -69.1709         0.010000   
    538. D(C  37,O  25,Zr  3,Zr  0)     -2.9270         0.010000   
    539. D(C  41,O  26,Zr  3,Zr  4)     28.5554         0.010000   
    540. D(C  41,O  26,Zr  3,Zr  0)    -57.3181         0.010000   
    541. D(C  47,O  27,Zr  3,Zr  4)    -31.3865         0.010000   
    542. D(C  47,O  27,Zr  3,Zr  0)     15.8467         0.010000   
    543. D(C  47,O  28,Zr  4,Zr  3)    -31.6682         0.010000   
    544. D(C  47,O  28,Zr  4,Zr  1)     15.8162         0.010000   
    545. D(C  39,O  29,Zr  4,Zr  3)     28.3882         0.010000   
    546. D(C  39,O  29,Zr  4,Zr  1)    -57.3024         0.010000   
    547. D(C  43,O  30,Zr  4,Zr  3)    -67.9567         0.010000   
    548. D(C  43,O  30,Zr  4,Zr  1)     -1.9971         0.010000   
    549. D(C  45,O  31,Zr  4,Zr  3)    -29.5291         0.010000   
    550. D(C  45,O  31,Zr  4,Zr  1)    -65.4941         0.010000   
    551. D(C  46,O  32,Zr  5,Zr  2)     -3.3614         0.010000   
    552. D(C  46,O  32,Zr  5,Zr  0)     36.1181         0.010000   
    553. D(Al 60,O  33,Zr  5,Zr  0)    -82.2976         0.010000   
    554. D(C  36,O  33,Zr  5,Zr  2)     84.8889         0.010000   
    555. D(C  36,O  33,Zr  5,Zr  0)     24.9592         0.010000   
    556. D(C  40,O  34,Zr  5,Zr  2)      0.6096         0.010000   
    557. D(C  40,O  34,Zr  5,Zr  0)     76.1464         0.010000   
    558. D(C  44,O  35,Zr  5,Zr  2)     26.2947         0.010000   
    559. D(C  44,O  35,Zr  5,Zr  0)    -20.5720         0.010000   
    560. D(H  58,C  36,O  33,Zr  5)    164.4858         0.068101   
    561. D(O  12,C  36,O  33,Al 60)    109.1219         0.068101   
    562. D(O  12,C  36,O  33,Zr  5)    -14.8384         0.068101   
    563. D(H  58,C  36,O  12,Zr  0)    153.9325         0.059742   
    564. D(O  33,C  36,O  12,Zr  0)    -26.7439         0.059742   
    565. D(H  51,C  37,O  25,Zr  3)   -177.3116         0.046997   
    566. D(O  13,C  37,O  25,Zr  3)      2.7895         0.046997   
    567. D(H  51,C  37,O  13,Zr  0)   -179.0678         0.046927   
    568. D(O  25,C  37,O  13,Zr  0)      0.8311         0.046927   
    569. D(H  50,C  38,O  21,Zr  2)    149.0736         0.063520   
    570. D(O  14,C  38,O  21,Zr  2)    -31.5646         0.063520   
    571. D(H  50,C  38,O  14,Zr  0)    161.3540         0.068350   
    572. D(O  21,C  38,O  14,Al 60)    107.9115         0.068350   
    573. D(O  21,C  38,O  14,Zr  0)    -18.0083         0.068350   
    574. D(H  54,C  39,O  29,Zr  4)   -173.0816         0.048658   
    575. D(O  15,C  39,O  29,Zr  4)      7.6914         0.048658   
    576. D(H  54,C  39,O  15,Zr  0)    176.3379         0.048253   
    577. D(O  29,C  39,O  15,Zr  0)     -4.4352         0.048253   
    578. D(H  56,C  40,O  34,Zr  5)    146.2997         0.045770   
    579. D(O  16,C  40,O  34,Zr  5)    -34.5550         0.045770   
    580. D(H  56,C  40,O  16,Zr  1)    163.7121         0.046583   
    581. D(O  34,C  40,O  16,Zr  1)    -15.4341         0.046583   
    582. D(H  48,C  41,O  26,Zr  3)   -174.0185         0.048634   
    583. D(O  17,C  41,O  26,Zr  3)      6.7500         0.048634   
    584. D(H  48,C  41,O  17,Zr  1)    176.7557         0.048245   
    585. D(O  26,C  41,O  17,Zr  1)     -4.0129         0.048245   
    586. D(H  49,C  42,O  22,Zr  2)    164.8259         0.046270   
    587. D(O  18,C  42,O  22,Zr  2)    -14.3107         0.046270   
    588. D(H  49,C  42,O  18,Zr  1)    151.2769         0.045872   
    589. D(O  22,C  42,O  18,Zr  1)    -29.5871         0.045872   
    590. D(H  52,C  43,O  30,Zr  4)   -177.8618         0.046986   
    591. D(O  19,C  43,O  30,Zr  4)      2.2452         0.046986   
    592. D(H  52,C  43,O  19,Zr  1)    179.9789         0.046928   
    593. D(O  30,C  43,O  19,Zr  1)     -0.1281         0.046928   
    594. D(H  59,C  44,O  35,Zr  5)    162.3599         0.063604   
    595. D(O  20,C  44,O  35,Zr  5)    -17.3896         0.063604   
    596. D(H  59,C  44,O  20,Zr  2)    157.2925         0.067421   
    597. D(O  35,C  44,O  20,Zr  2)    -22.9580         0.067421   
    598. D(H  55,C  45,O  31,Zr  4)   -165.1414         0.047799   
    599. D(O  23,C  45,O  31,Zr  4)     15.9381         0.047799   
    600. D(H  55,C  45,O  23,Zr  2)   -176.1782         0.047694   
    601. D(O  31,C  45,O  23,Zr  2)      2.7421         0.047694   
    602. D(H  57,C  46,O  32,Zr  5)   -174.8291         0.047634   
    603. D(O  24,C  46,O  32,Zr  5)      4.0687         0.047634   
    604. D(H  57,C  46,O  24,Zr  3)   -163.2182         0.047780   
    605. D(O  32,C  46,O  24,Zr  3)     17.8847         0.047780   
    606. D(H  53,C  47,O  28,Zr  4)   -156.6580         0.045704   
    607. D(O  27,C  47,O  28,Zr  4)     23.3562         0.045704   
    608. D(H  53,C  47,O  27,Zr  3)   -157.1639         0.045713   
    609. D(O  28,C  47,O  27,Zr  3)     22.8220         0.045713   
    610. D(H  62,Al 60,C  44,O  20)    172.9971         0.010000   
    611. D(H  61,Al 60,C  44,O  20)    -36.3721         0.010000   
    612. D(H  62,Al 60,C  38,O  14)     72.6780         0.010000   
    613. D(H  61,Al 60,C  38,O  21)     49.2794         0.010000   
    614. D(H  61,Al 60,C  38,O  14)    177.7120         0.010000   
    615. D(H  62,Al 60,O  33,Zr  5)    -96.7693         0.010000   
    616. D(H  61,Al 60,O  33,C  36)   -121.5228         0.010000   
    617. D(H  61,Al 60,O  33,Zr  5)      7.6267         0.010000   
    618. D(H  62,Al 60,O  14,Zr  0)     10.5576         0.010000   
    619. D(H  61,Al 60,C  44,O  35)   -162.9401         0.010000   
    620. D(H  61,Al 60,O  14,C  38)     -1.9983         0.010000   
    621. D(H  61,Al 60,O  14,Zr  0)    125.6474         0.010000   
    -----------------------------------------------------------------

Number of atoms                         .... 64
Number of degrees of freedom            .... 621


         *************************************************************
         *                GEOMETRY OPTIMIZATION CYCLE   1            *
         *************************************************************
---------------------------------
CARTESIAN COORDINATES (ANGSTROEM)
---------------------------------
  Zr    -0.410239    1.999594    1.524803
  Zr     0.499585   -2.012510   -1.460664
  Zr     1.807705   -1.143378    1.573686
  Zr    -1.715188    1.326177   -1.492767
  Zr     1.692772    1.108986   -1.769791
  Zr    -1.617187   -1.200094    1.647353
  O     -1.429594    0.500423    0.403506
  O      1.515247   -0.457866   -0.406782
  O      0.097386   -1.928104    0.649401
  O      0.089127    1.969623   -0.609759
  O     -0.091355    0.014236   -2.048652
  O      0.072167   -0.028096    2.072662
  O     -1.978363    1.911189    2.735186
  O     -1.289241    3.669244    0.939311
  O      0.687160    1.940670    3.270533
  O      1.283360    3.108677    1.200618
  O     -0.487919   -3.711493   -0.819220
  O     -1.249620   -2.101967   -2.512940
  O      2.127325   -3.085307   -1.088383
  O      1.286889   -1.925039   -3.269428
  O      1.253294   -1.965717    3.299568
  O      2.401694    0.420578    2.730201
  O      2.438436   -2.998323    1.216604
  O      3.638020   -0.735509    0.738177
  O     -3.546911    1.104093   -0.559010
  O     -2.143902    3.235428   -1.183785
  O     -2.562386   -0.167174   -2.500454
  O     -1.189190    2.031227   -3.278168
  O      1.055873    2.573784   -2.958581
  O      2.535429    2.558686   -0.695539
  O      2.085534    0.249862   -3.511563
  O      3.571217    0.348887   -1.346765
  O     -3.491639   -0.599855    1.059645
  O     -2.238486   -0.326984    3.318996
  O     -2.190697   -2.811123    0.535508
  O     -0.962470   -2.593487    2.909309
  C     -2.414579    0.949232    3.494901
  C     -1.916506    3.990131   -0.151751
  C      1.830309    1.346854    3.444106
  C      2.259181    3.253442    0.361061
  C     -1.591473   -3.753222   -0.133939
  C     -2.270494   -1.379013   -2.849452
  C      2.589223   -3.535809    0.042000
  C      1.869269   -0.963691   -3.920186
  C      0.168196   -2.638465    3.552177
  C      4.151091   -0.208696   -0.329973
  C     -4.066334    0.259251    0.276207
  C     -0.082167    2.642855   -3.587337
  H     -2.987249   -1.860655   -3.507208
  H      3.176423   -4.455027   -0.001458
  H      2.397764    1.680851    4.310191
  H     -2.294261    5.011111   -0.208179
  H      2.214834   -1.203003   -4.925963
  H     -0.111347    3.284157   -4.470534
  H      2.947766    4.063314    0.580348
  H      5.233153   -0.255586   -0.389436
  H     -2.095906   -4.717134   -0.129854
  H     -5.148840    0.285688    0.341852
  H     -2.999649    1.243936    4.367881
  H      0.210054   -3.317384    4.405683
  Al    -0.094697   -0.101417    6.087795
  H      1.413968   -0.559933    5.837387
  H     -1.234025   -1.172346    5.765595
  H     -0.445871    1.431746    5.813318

----------------------------
CARTESIAN COORDINATES (A.U.)
----------------------------
  NO LB      ZA    FRAG     MASS         X           Y           Z
   0 Zr   12.0000*   0    91.220   -0.775240    3.778686    2.881460
   1 Zr   12.0000*   0    91.220    0.944078   -3.803094   -2.760255
   2 Zr   12.0000*   0    91.220    3.416067   -2.160672    2.973835
   3 Zr   12.0000*   0    91.220   -3.241235    2.506111   -2.820920
   4 Zr   12.0000*   0    91.220    3.198876    2.095679   -3.344421
   5 Zr   12.0000*   0    91.220   -3.056041   -2.267850    3.113045
   6 O     8.0000    0    15.999   -2.701541    0.945662    0.762515
   7 O     8.0000    0    15.999    2.863402   -0.865241   -0.768706
   8 O     8.0000    0    15.999    0.184032   -3.643589    1.227189
   9 O     8.0000    0    15.999    0.168426    3.722048   -1.152278
  10 O     8.0000    0    15.999   -0.172636    0.026902   -3.871391
  11 O     8.0000    0    15.999    0.136376   -0.053093    3.916764
  12 O     8.0000    0    15.999   -3.738565    3.611623    5.168753
  13 O     8.0000    0    15.999   -2.436312    6.933867    1.775040
  14 O     8.0000    0    15.999    1.298545    3.667335    6.180412
  15 O     8.0000    0    15.999    2.425200    5.874548    2.268839
  16 O     8.0000    0    15.999   -0.922034   -7.013706   -1.548101
  17 O     8.0000    0    15.999   -2.361439   -3.972143   -4.748769
  18 O     8.0000    0    15.999    4.020062   -5.830386   -2.056746
  19 O     8.0000    0    15.999    2.431868   -3.637796   -6.178324
  20 O     8.0000    0    15.999    2.368382   -3.714667    6.235280
  21 O     8.0000    0    15.999    4.538544    0.794777    5.159331
  22 O     8.0000    0    15.999    4.607977   -5.666009    2.299048
  23 O     8.0000    0    15.999    6.874861   -1.389911    1.394952
  24 O     8.0000    0    15.999   -6.702691    2.086433   -1.056376
  25 O     8.0000    0    15.999   -4.051388    6.114073   -2.237029
  26 O     8.0000    0    15.999   -4.842208   -0.315912   -4.725173
  27 O     8.0000    0    15.999   -2.247244    3.838463   -6.194840
  28 O     8.0000    0    15.999    1.995310    4.863747   -5.590908
  29 O     8.0000    0    15.999    4.791267    4.835216   -1.314379
  30 O     8.0000    0    15.999    3.941087    0.472170   -6.635893
  31 O     8.0000    0    15.999    6.748623    0.659301   -2.545017
  32 O     8.0000    0    15.999   -6.598242   -1.133562    2.002440
  33 O     8.0000    0    15.999   -4.230125   -0.617910    6.271993
  34 O     8.0000    0    15.999   -4.139817   -5.312252    1.011964
  35 O     8.0000    0    15.999   -1.818805   -4.900980    5.497798
  36 C     6.0000    0    12.011   -4.562893    1.793789    6.604405
  37 C     6.0000    0    12.011   -3.621672    7.540255   -0.286768
  38 C     6.0000    0    12.011    3.458783    2.545184    6.508417
  39 C     6.0000    0    12.011    4.269232    6.148114    0.682306
  40 C     6.0000    0    12.011   -3.007447   -7.092562   -0.253108
  41 C     6.0000    0    12.011   -4.290611   -2.605956   -5.384684
  42 C     6.0000    0    12.011    4.892922   -6.681711    0.079368
  43 C     6.0000    0    12.011    3.532406   -1.821111   -7.408078
  44 C     6.0000    0    12.011    0.317845   -4.985975    6.712641
  45 C     6.0000    0    12.011    7.844424   -0.394379   -0.623558
  46 C     6.0000    0    12.011   -7.684258    0.489913    0.521956
  47 C     6.0000    0    12.011   -0.155273    4.994271   -6.779084
  48 H     1.0000    0     1.008   -5.645083   -3.516127   -6.627663
  49 H     1.0000    0     1.008    6.002570   -8.418780   -0.002754
  50 H     1.0000    0     1.008    4.531118    3.176349    8.145081
  51 H     1.0000    0     1.008   -4.335526    9.469627   -0.393401
  52 H     1.0000    0     1.008    4.185430   -2.273346   -9.308720
  53 H     1.0000    0     1.008   -0.210415    6.206157   -8.448086
  54 H     1.0000    0     1.008    5.570470    7.678550    1.096699
  55 H     1.0000    0     1.008    9.889227   -0.482988   -0.735928
  56 H     1.0000    0     1.008   -3.960689   -8.914091   -0.245388
  57 H     1.0000    0     1.008   -9.729898    0.539872    0.646007
  58 H     1.0000    0     1.008   -5.668515    2.350698    8.254099
  59 H     1.0000    0     1.008    0.396944   -6.268947    8.325534
  60 Al   13.0000    0    26.982   -0.178951   -0.191649   11.504266
  61 H     1.0000    0     1.008    2.672012   -1.058121   11.031062
  62 H     1.0000    0     1.008   -2.331970   -2.215413   10.895396
  63 H     1.0000    0     1.008   -0.842574    2.705608   10.985580
* core charge reduced due to ECP

--------------------------------
INTERNAL COORDINATES (ANGSTROEM)
--------------------------------
 Zr     0   0   0     0.000000000000     0.00000000     0.00000000
 Zr     1   0   0     5.083087364257     0.00000000     0.00000000
 Zr     2   1   0     3.416701283888    49.16674383     0.00000000
 Zr     1   2   3     3.355906644906    51.90947591   177.96292268
 Zr     2   1   3     3.356038295751    51.94585914   259.15224308
 Zr     1   2   3     3.421951266171    49.16578667   278.68606766
 O      4   1   2     2.087889449898    37.76911130    52.88483789
 O      5   2   1     2.084306423432    37.84086716    52.69546164
 O      3   2   1     2.096494861115    36.95697226    75.46904483
 O      4   1   2     2.109330767844    39.62365506   286.39048252
 O      5   2   1     2.111717009578    39.60988998   286.11613279
 O      6   1   2     2.099616041830    37.01524529    76.47119363
 O      1   2   3     1.982890980542   117.70220812   263.48761059
 O      1   2   3     1.975645619398   124.93391622   162.93522518
 O      1   2   3     2.062845320794   112.28897463   359.03366390
 O      1   2   3     2.050229379811   100.73419303    75.05899721
 O      2   1   3     2.067161657295   112.39358102    79.06451294
 O      2   1   3     2.043282994428   100.59116328   155.37314509
 O      2   1   3     1.984697545256   117.59863331   344.45716559
 O      2   1   3     1.974621227089   125.05774693   243.74261895
 O      3   2   1     1.990548117083   123.93743748   102.14149188
 O      3   2   1     2.033791346232   144.33548756   324.12467584
 O      3   2   1     1.991519100656    74.04312022   170.46775011
 O      3   2   1     2.052920883792    91.74454926   249.75400189
 O      4   1   2     2.067954207751    87.70571848   113.55607573
 O      4   1   2     1.981037151595    75.55271328   194.72037727
 O      4   1   2     1.990797175456   140.45681916    47.66184553
 O      4   1   2     1.990333657503   129.25338397   260.95732152
 O      5   2   1     1.991104136987   128.72087174   260.79059528
 O      5   2   1     1.991411584505   141.06458908    47.20164095
 O      5   2   1     1.981445026120    75.41360621   194.20009493
 O      5   2   1     2.070086418780    87.83808033   113.11942212
 O      6   1   2     2.054082688699    92.19948777   250.60756137
 O      6   1   2     1.985629418303    74.29744700   171.60682379
 O      6   1   2     2.039735705922   144.90207014   325.43874746
 O      6   1   2     1.990660926567   124.13883433   101.78797523
 C     34   6   1     1.300261497927   126.00462668    24.95922628
 C     26   4   1     1.298606620630   130.25288797   357.07302683
 C     15   1   2     1.299821191083   126.43560977    26.73443690
 C     30   5   2     1.294373232615   137.79797580   302.69763367
 C     17   2   1     1.299685131198   126.55687732    26.74599034
 C     27   4   1     1.294432120502   137.96816562   302.68192261
 C     23   3   2     1.300508696527   125.70487058    25.88513772
 C     31   5   2     1.298634917883   130.44838384   358.00291674
 C     36   6   1     1.301425686615   128.54135155   339.42803989
 C     32   5   2     1.296541156888   136.38656300   294.50590875
 C     25   4   1     1.296590184445   135.69923838   292.23195988
 C     28   4   1     1.301988281810   127.16547971    15.84666880
 H     42  27   4     1.085523275770   115.45870837   185.98152404
 H     43  23   3     1.091628829425   116.50899174   164.82592732
 H     39  15   1     1.087963018706   115.13564890   161.35397214
 H     38  26   4     1.090083695699   116.26362623   182.68835494
 H     44  31   5     1.090078919797   116.27515639   182.13815385
 H     48  28   4     1.091859881990   116.44066483   202.83614252
 H     40  30   5     1.085416601752   115.46844726   186.91843511
 H     46  32   5     1.084709318973   114.94536234   194.85861302
 H     41  17   2     1.087931631252   115.09494412   163.71207658
 H     47  25   4     1.084817021318   115.01490956   196.78180701
 H     37  34   6     1.091444705093   116.47591668   164.48575064
 H     45  36   6     1.091400550835   116.17527385   162.35993591
 Al    34   6   1     3.508983053535   120.09203144   277.70237466
 H     61  34   6     1.596561969970   115.79093134     7.62672192
 H     61  34   6     1.596487562075    50.32996263   263.23067515
 H     61  34   6     1.596636475961    77.97759436   122.18581276

---------------------------
INTERNAL COORDINATES (A.U.)
---------------------------
 Zr     0   0   0     0.000000000000     0.00000000     0.00000000
 Zr     1   0   0     9.605643033241     0.00000000     0.00000000
 Zr     2   1   0     6.456629707966    49.16674383     0.00000000
 Zr     1   2   3     6.341744489879    51.90947591   177.96292268
 Zr     2   1   3     6.341993273921    51.94585914   259.15224308
 Zr     1   2   3     6.466550736689    49.16578667   278.68606766
 O      4   1   2     3.945539258211    37.76911130    52.88483789
 O      5   2   1     3.938768319460    37.84086716    52.69546164
 O      3   2   1     3.961801128681    36.95697226    75.46904483
 O      4   1   2     3.986057477078    39.62365506   286.39048252
 O      5   2   1     3.990566820446    39.60988998   286.11613279
 O      6   1   2     3.967699305447    37.01524529    76.47119363
 O      1   2   3     3.747120906648   117.70220812   263.48761059
 O      1   2   3     3.733429158343   124.93391622   162.93522518
 O      1   2   3     3.898212712941   112.28897463   359.03366390
 O      1   2   3     3.874372039561   100.73419303    75.05899721
 O      2   1   3     3.906369406831   112.39358102    79.06451294
 O      2   1   3     3.861245273568   100.59116328   155.37314509
 O      2   1   3     3.750534819200   117.59863331   344.45716559
 O      2   1   3     3.731493337426   125.05774693   243.74261895
 O      3   2   1     3.761590797679   123.93743748   102.14149188
 O      3   2   1     3.843308657917   144.33548756   324.12467584
 O      3   2   1     3.763425690712    74.04312022   170.46775011
 O      3   2   1     3.879458244975    91.74454926   249.75400189
 O      4   1   2     3.907867110139    87.70571848   113.55607573
 O      4   1   2     3.743617677637    75.55271328   194.72037727
 O      4   1   2     3.762061449796   140.45681916    47.66184553
 O      4   1   2     3.761185527807   129.25338397   260.95732152
 O      5   2   1     3.762641523024   128.72087174   260.79059528
 O      5   2   1     3.763222514633   141.06458908    47.20164095
 O      5   2   1     3.744388448787    75.41360621   194.20009493
 O      5   2   1     3.911896405045    87.83808033   113.11942212
 O      6   1   2     3.881653738070    92.19948777   250.60756137
 O      6   1   2     3.752295804050    74.29744700   171.60682379
 O      6   1   2     3.854541869774   144.90207014   325.43874746
 O      6   1   2     3.761803976709   124.13883433   101.78797523
 C     34   6   1     2.457138133565   126.00462668    24.95922628
 C     26   4   1     2.454010868688   130.25288797   357.07302683
 C     15   1   2     2.456306074214   126.43560977    26.73443690
 C     30   5   2     2.446010924720   137.79797580   302.69763367
 C     17   2   1     2.456048958293   126.55687732    26.74599034
 C     27   4   1     2.446122206700   137.96816562   302.68192261
 C     23   3   2     2.457605271220   125.70487058    25.88513772
 C     31   5   2     2.454064342747   130.44838384   358.00291674
 C     36   6   1     2.459338131353   128.54135155   339.42803989
 C     32   5   2     2.450107707875   136.38656300   294.50590875
 C     25   4   1     2.450200356531   135.69923838   292.23195988
 C     28   4   1     2.460401282196   127.16547971    15.84666880
 H     42  27   4     2.051341703202   115.45870837   185.98152404
 H     43  23   3     2.062879527505   116.50899174   164.82592732
 H     39  15   1     2.055952149188   115.13564890   161.35397214
 H     38  26   4     2.059959647924   116.26362623   182.68835494
 H     44  31   5     2.059950622776   116.27515639   182.13815385
 H     48  28   4     2.063316153576   116.44066483   202.83614252
 H     40  30   5     2.051140118523   115.46844726   186.91843511
 H     46  32   5     2.049803547772   114.94536234   194.85861302
 H     41  17   2     2.055892835496   115.09494412   163.71207658
 H     47  25   4     2.050007075707   115.01490956   196.78180701
 H     37  34   6     2.062531582944   116.47591668   164.48575064
 H     45  36   6     2.062448143489   116.17527385   162.35993591
 Al    34   6   1     6.631016979752   120.09203144   277.70237466
 H     61  34   6     3.017064879077   115.79093134     7.62672192
 H     61  34   6     3.016924268533    50.32996263   263.23067515
 H     61  34   6     3.017205674995    77.97759436   122.18581276

---------------------
BASIS SET INFORMATION
---------------------
There are 5 groups of distinct atoms

 Group   1 Type Zr  : 7s6p5d contracted to 5s3p2d pattern {31111/411/41}
 Group   2 Type O   : 7s4p1d contracted to 3s2p1d pattern {511/31/1}
 Group   3 Type C   : 7s4p1d contracted to 3s2p1d pattern {511/31/1}
 Group   4 Type H   : 4s contracted to 2s pattern {31}
 Group   5 Type Al  : 10s7p1d contracted to 4s3p1d pattern {5311/511/1}

Atom   0Zr   basis set group =>   1
Atom   1Zr   basis set group =>   1
Atom   2Zr   basis set group =>   1
Atom   3Zr   basis set group =>   1
Atom   4Zr   basis set group =>   1
Atom   5Zr   basis set group =>   1
Atom   6O    basis set group =>   2
Atom   7O    basis set group =>   2
Atom   8O    basis set group =>   2
Atom   9O    basis set group =>   2
Atom  10O    basis set group =>   2
Atom  11O    basis set group =>   2
Atom  12O    basis set group =>   2
Atom  13O    basis set group =>   2
Atom  14O    basis set group =>   2
Atom  15O    basis set group =>   2
Atom  16O    basis set group =>   2
Atom  17O    basis set group =>   2
Atom  18O    basis set group =>   2
Atom  19O    basis set group =>   2
Atom  20O    basis set group =>   2
Atom  21O    basis set group =>   2
Atom  22O    basis set group =>   2
Atom  23O    basis set group =>   2
Atom  24O    basis set group =>   2
Atom  25O    basis set group =>   2
Atom  26O    basis set group =>   2
Atom  27O    basis set group =>   2
Atom  28O    basis set group =>   2
Atom  29O    basis set group =>   2
Atom  30O    basis set group =>   2
Atom  31O    basis set group =>   2
Atom  32O    basis set group =>   2
Atom  33O    basis set group =>   2
Atom  34O    basis set group =>   2
Atom  35O    basis set group =>   2
Atom  36C    basis set group =>   3
Atom  37C    basis set group =>   3
Atom  38C    basis set group =>   3
Atom  39C    basis set group =>   3
Atom  40C    basis set group =>   3
Atom  41C    basis set group =>   3
Atom  42C    basis set group =>   3
Atom  43C    basis set group =>   3
Atom  44C    basis set group =>   3
Atom  45C    basis set group =>   3
Atom  46C    basis set group =>   3
Atom  47C    basis set group =>   3
Atom  48H    basis set group =>   4
Atom  49H    basis set group =>   4
Atom  50H    basis set group =>   4
Atom  51H    basis set group =>   4
Atom  52H    basis set group =>   4
Atom  53H    basis set group =>   4
Atom  54H    basis set group =>   4
Atom  55H    basis set group =>   4
Atom  56H    basis set group =>   4
Atom  57H    basis set group =>   4
Atom  58H    basis set group =>   4
Atom  59H    basis set group =>   4
Atom  60Al   basis set group =>   5
Atom  61H    basis set group =>   4
Atom  62H    basis set group =>   4
Atom  63H    basis set group =>   4
---------------------------------
AUXILIARY/J BASIS SET INFORMATION
---------------------------------
There are 5 groups of distinct atoms

 Group   1 Type Zr  : 11s5p5d3f3g contracted to 8s5p5d2f3g pattern {41111111/11111/11111/21/111}
 Group   2 Type O   : 12s5p4d2f1g contracted to 6s4p3d1f1g pattern {711111/2111/211/2/1}
 Group   3 Type C   : 12s5p4d2f1g contracted to 6s4p3d1f1g pattern {711111/2111/211/2/1}
 Group   4 Type H   : 5s2p1d contracted to 3s1p1d pattern {311/2/1}
 Group   5 Type Al  : 14s5p5d2f1g contracted to 8s4p3d1f1g pattern {71111111/2111/311/2/1}

Atom   0Zr   basis set group =>   1
Atom   1Zr   basis set group =>   1
Atom   2Zr   basis set group =>   1
Atom   3Zr   basis set group =>   1
Atom   4Zr   basis set group =>   1
[...]
176:   1637.51   0.089236  450.96  0.017006  (-0.123146 -0.026406 -0.033818)
177:   1855.43   0.001763    8.91  0.000297  (-0.016100  0.005824 -0.001845)
178:   1873.08   0.034142  172.54  0.005688  (-0.073585  0.005983  0.015416)
179:   1880.31   0.033555  169.58  0.005569  (-0.007456 -0.074233 -0.001672)
180:   2883.19   0.026997  136.43  0.002922  ( 0.053899 -0.001941 -0.003627)
181:   2884.12   0.014784   74.71  0.001600  ( 0.039753 -0.003980 -0.001858)
182:   2890.40   0.020427  103.23  0.002205  (-0.022706 -0.040631  0.006241)
183:   2893.78   0.022217  112.28  0.002396  (-0.025661 -0.041243 -0.006035)
184:   2894.88   0.019500   98.55  0.002102  (-0.024394 -0.013465 -0.036410)
185:   2907.54   0.017078   86.31  0.001833  (-0.019201  0.013919  0.035645)
186:   2908.48   0.014834   74.97  0.001592  (-0.026042  0.030161  0.001929)
187:   2909.26   0.019286   97.46  0.002069  (-0.011977 -0.015417 -0.041080)
188:   2910.09   0.038555  194.84  0.004134  (-0.019075  0.054221 -0.028821)
189:   2910.74   0.012634   63.84  0.001354  (-0.022608  0.005298  0.028553)
190:   2917.57   0.009712   49.08  0.001039  ( 0.012960 -0.027056  0.011782)
191:   2918.79   0.023807  120.31  0.002545  (-0.015015 -0.002675  0.048091)

* The epsilon (eps) is given for a Dirac delta lineshape.
** The dipole moment derivative (T) already includes vibrational overlap.

The first frequency considered to be a vibration is 8
The total number of vibrations considered is 184


--------------------------
THERMOCHEMISTRY AT 298.15K
--------------------------

Temperature         ...   298.15 K
Pressure            ...     1.00 atm
Total Mass          ...  1213.52 AMU
Quasi RRHO          ...     True
Cut-Off Frequency   ...     1.00 cm^-1

Throughout the following assumptions are being made:
  (1) The electronic state is orbitally nondegenerate
  (2) There are no thermally accessible electronically excited states
  (3) Hindered rotations indicated by low frequency modes are not
      treated as such but are treated as vibrations and this may
      cause some error
  (4) All equations used are the standard statistical mechanics
      equations for an ideal gas
  (5) All vibrations are strictly harmonic

freq.      17.87  E(vib)   ...       0.57 
freq.      29.96  E(vib)   ...       0.55 
freq.      34.95  E(vib)   ...       0.54 
freq.      40.86  E(vib)   ...       0.54 
freq.      47.87  E(vib)   ...       0.53 
freq.      49.89  E(vib)   ...       0.52 
freq.      61.01  E(vib)   ...       0.51 
freq.      67.95  E(vib)   ...       0.50 
freq.      79.65  E(vib)   ...       0.49 
freq.      81.51  E(vib)   ...       0.48 
freq.      91.66  E(vib)   ...       0.47 
freq.      95.39  E(vib)   ...       0.47 
freq.      97.61  E(vib)   ...       0.46 
freq.     100.65  E(vib)   ...       0.46 
freq.     104.95  E(vib)   ...       0.46 
freq.     106.95  E(vib)   ...       0.45 
freq.     112.43  E(vib)   ...       0.45 
freq.     114.00  E(vib)   ...       0.44 
freq.     115.75  E(vib)   ...       0.44 
freq.     119.62  E(vib)   ...       0.44 
freq.     133.27  E(vib)   ...       0.42 
freq.     139.99  E(vib)   ...       0.41 
freq.     148.49  E(vib)   ...       0.41 
freq.     149.68  E(vib)   ...       0.40 
freq.     150.99  E(vib)   ...       0.40 
freq.     152.00  E(vib)   ...       0.40 
freq.     154.75  E(vib)   ...       0.40 
freq.     155.36  E(vib)   ...       0.40 
freq.     157.86  E(vib)   ...       0.40 
freq.     161.41  E(vib)   ...       0.39 
freq.     164.91  E(vib)   ...       0.39 
freq.     166.11  E(vib)   ...       0.39 
freq.     166.77  E(vib)   ...       0.39 
freq.     167.80  E(vib)   ...       0.38 
freq.     172.17  E(vib)   ...       0.38 
freq.     178.21  E(vib)   ...       0.37 
freq.     183.39  E(vib)   ...       0.37 
freq.     185.85  E(vib)   ...       0.37 
freq.     188.54  E(vib)   ...       0.36 
freq.     189.74  E(vib)   ...       0.36 
freq.     195.31  E(vib)   ...       0.36 
freq.     197.82  E(vib)   ...       0.35 
freq.     201.11  E(vib)   ...       0.35 
freq.     205.04  E(vib)   ...       0.35 
freq.     212.00  E(vib)   ...       0.34 
freq.     214.28  E(vib)   ...       0.34 
freq.     216.99  E(vib)   ...       0.34 
freq.     229.06  E(vib)   ...       0.32 
freq.     232.41  E(vib)   ...       0.32 
freq.     234.75  E(vib)   ...       0.32 
freq.     239.95  E(vib)   ...       0.31 
freq.     244.47  E(vib)   ...       0.31 
freq.     261.91  E(vib)   ...       0.29 
freq.     262.53  E(vib)   ...       0.29 
freq.     264.27  E(vib)   ...       0.29 
freq.     266.50  E(vib)   ...       0.29 
freq.     266.63  E(vib)   ...       0.29 
freq.     270.86  E(vib)   ...       0.29 
freq.     273.21  E(vib)   ...       0.29 
freq.     275.43  E(vib)   ...       0.28 
freq.     275.96  E(vib)   ...       0.28 
freq.     278.16  E(vib)   ...       0.28 
freq.     280.06  E(vib)   ...       0.28 
freq.     281.73  E(vib)   ...       0.28 
freq.     281.98  E(vib)   ...       0.28 
freq.     285.44  E(vib)   ...       0.28 
freq.     291.14  E(vib)   ...       0.27 
freq.     294.12  E(vib)   ...       0.27 
freq.     296.90  E(vib)   ...       0.27 
freq.     296.97  E(vib)   ...       0.27 
freq.     302.08  E(vib)   ...       0.26 
freq.     305.10  E(vib)   ...       0.26 
freq.     311.82  E(vib)   ...       0.25 
freq.     312.99  E(vib)   ...       0.25 
freq.     314.94  E(vib)   ...       0.25 
freq.     318.01  E(vib)   ...       0.25 
freq.     318.36  E(vib)   ...       0.25 
freq.     321.11  E(vib)   ...       0.25 
freq.     325.75  E(vib)   ...       0.24 
freq.     327.73  E(vib)   ...       0.24 
freq.     331.18  E(vib)   ...       0.24 
freq.     341.12  E(vib)   ...       0.23 
freq.     343.86  E(vib)   ...       0.23 
freq.     353.61  E(vib)   ...       0.22 
freq.     354.42  E(vib)   ...       0.22 
freq.     364.36  E(vib)   ...       0.22 
freq.     371.77  E(vib)   ...       0.21 
freq.     389.58  E(vib)   ...       0.20 
freq.     396.68  E(vib)   ...       0.20 
freq.     402.19  E(vib)   ...       0.19 
freq.     404.16  E(vib)   ...       0.19 
freq.     405.18  E(vib)   ...       0.19 
freq.     416.31  E(vib)   ...       0.18 
freq.     419.28  E(vib)   ...       0.18 
freq.     422.49  E(vib)   ...       0.18 
freq.     423.04  E(vib)   ...       0.18 
freq.     476.22  E(vib)   ...       0.15 
freq.     479.19  E(vib)   ...       0.15 
freq.     483.09  E(vib)   ...       0.15 
freq.     527.78  E(vib)   ...       0.13 
freq.     540.47  E(vib)   ...       0.12 
freq.     626.07  E(vib)   ...       0.09 
freq.     673.41  E(vib)   ...       0.08 
freq.     678.47  E(vib)   ...       0.08 
freq.     684.53  E(vib)   ...       0.07 
freq.     690.83  E(vib)   ...       0.07 
freq.     693.71  E(vib)   ...       0.07 
freq.     733.88  E(vib)   ...       0.06 
freq.     734.29  E(vib)   ...       0.06 
freq.     735.20  E(vib)   ...       0.06 
freq.     736.36  E(vib)   ...       0.06 
freq.     736.61  E(vib)   ...       0.06 
freq.     738.37  E(vib)   ...       0.06 
freq.     739.24  E(vib)   ...       0.06 
freq.     739.90  E(vib)   ...       0.06 
freq.     740.06  E(vib)   ...       0.06 
freq.     740.58  E(vib)   ...       0.06 
freq.     742.12  E(vib)   ...       0.06 
freq.     742.35  E(vib)   ...       0.06 
freq.     748.02  E(vib)   ...       0.06 
freq.     757.98  E(vib)   ...       0.06 
freq.     998.48  E(vib)   ...       0.02 
freq.     999.41  E(vib)   ...       0.02 
freq.     999.70  E(vib)   ...       0.02 
freq.     999.88  E(vib)   ...       0.02 
freq.    1001.44  E(vib)   ...       0.02 
freq.    1001.57  E(vib)   ...       0.02 
freq.    1002.74  E(vib)   ...       0.02 
freq.    1003.46  E(vib)   ...       0.02 
freq.    1004.18  E(vib)   ...       0.02 
freq.    1005.01  E(vib)   ...       0.02 
freq.    1005.83  E(vib)   ...       0.02 
freq.    1006.13  E(vib)   ...       0.02 
freq.    1345.04  E(vib)   ...       0.01 
freq.    1347.87  E(vib)   ...       0.01 
freq.    1349.51  E(vib)   ...       0.01 
freq.    1350.93  E(vib)   ...       0.01 
freq.    1351.63  E(vib)   ...       0.01 
freq.    1351.86  E(vib)   ...       0.01 
freq.    1352.85  E(vib)   ...       0.01 
freq.    1353.10  E(vib)   ...       0.01 
freq.    1354.26  E(vib)   ...       0.01 
freq.    1354.68  E(vib)   ...       0.01 
freq.    1354.93  E(vib)   ...       0.01 
freq.    1355.39  E(vib)   ...       0.01 
freq.    1359.72  E(vib)   ...       0.01 
freq.    1361.85  E(vib)   ...       0.01 
freq.    1363.35  E(vib)   ...       0.01 
freq.    1364.09  E(vib)   ...       0.01 
freq.    1364.96  E(vib)   ...       0.01 
freq.    1365.16  E(vib)   ...       0.01 
freq.    1365.48  E(vib)   ...       0.01 
freq.    1368.59  E(vib)   ...       0.01 
freq.    1368.94  E(vib)   ...       0.01 
freq.    1372.23  E(vib)   ...       0.01 
freq.    1373.87  E(vib)   ...       0.01 
freq.    1381.42  E(vib)   ...       0.01 
freq.    1537.64  E(vib)   ...       0.00 
freq.    1546.90  E(vib)   ...       0.00 
freq.    1559.43  E(vib)   ...       0.00 
freq.    1561.40  E(vib)   ...       0.00 
freq.    1566.42  E(vib)   ...       0.00 
freq.    1574.30  E(vib)   ...       0.00 
freq.    1575.04  E(vib)   ...       0.00 
freq.    1625.71  E(vib)   ...       0.00 
freq.    1629.00  E(vib)   ...       0.00 
freq.    1633.54  E(vib)   ...       0.00 
freq.    1636.89  E(vib)   ...       0.00 
freq.    1637.51  E(vib)   ...       0.00 
freq.    1855.43  E(vib)   ...       0.00 
freq.    1873.08  E(vib)   ...       0.00 
freq.    1880.31  E(vib)   ...       0.00 
freq.    2883.19  E(vib)   ...       0.00 
freq.    2884.12  E(vib)   ...       0.00 
freq.    2890.40  E(vib)   ...       0.00 
freq.    2893.78  E(vib)   ...       0.00 
freq.    2894.88  E(vib)   ...       0.00 
freq.    2907.54  E(vib)   ...       0.00 
freq.    2908.48  E(vib)   ...       0.00 
freq.    2909.26  E(vib)   ...       0.00 
freq.    2910.09  E(vib)   ...       0.00 
freq.    2910.74  E(vib)   ...       0.00 
freq.    2917.57  E(vib)   ...       0.00 
freq.    2918.79  E(vib)   ...       0.00 

------------
INNER ENERGY
------------

The inner energy is: U= E(el) + E(ZPE) + E(vib) + E(rot) + E(trans)
    E(el)   - is the total energy from the electronic structure calculation
              = E(kin-el) + E(nuc-el) + E(el-el) + E(nuc-nuc)
    E(ZPE)  - the the zero temperature vibrational energy from the frequency calculation
    E(vib)  - the the finite temperature correction to E(ZPE) due to population
              of excited vibrational states
    E(rot)  - is the rotational thermal energy
    E(trans)- is the translational thermal energy

Summary of contributions to the inner energy U:
Electronic energy                ...  -3244.51481320 Eh
Zero point energy                ...      0.32546279 Eh     204.23 kcal/mol
Thermal vibrational correction   ...      0.05560902 Eh      34.90 kcal/mol
Thermal rotational correction    ...      0.00141627 Eh       0.89 kcal/mol
Thermal translational correction ...      0.00141627 Eh       0.89 kcal/mol
-----------------------------------------------------------------------
Total thermal energy                  -3244.13090885 Eh


Summary of corrections to the electronic energy:
(perhaps to be used in another calculation)
Total thermal correction                  0.05844157 Eh      36.67 kcal/mol
Non-thermal (ZPE) correction              0.32546279 Eh     204.23 kcal/mol
-----------------------------------------------------------------------
Total correction                          0.38390436 Eh     240.90 kcal/mol


--------
ENTHALPY
--------

The enthalpy is H = U + kB*T
                kB is Boltzmann's constant
Total thermal energy              ...  -3244.13090885 Eh 
Thermal Enthalpy correction       ...      0.00094421 Eh       0.59 kcal/mol
-----------------------------------------------------------------------
Total Enthalpy                    ...  -3244.12996464 Eh


Note: Only C1 symmetry has been detected, increase convergence thresholds 
      if your molecule has a higher symmetry. Symmetry factor of 1.0 is   
      used for the rotational entropy correction. 
 

Note: Rotational entropy computed according to Herzberg 
Infrared and Raman Spectra, Chapter V,1, Van Nostrand Reinhold, 1945 
Point Group:  C1, Symmetry Number:   1  
Rotational constants in cm-1:     0.001865     0.001671     0.001601 

Vibrational entropy computed according to the QRRHO of S. Grimme
Chem.Eur.J. 2012 18 9955 using a reference frequency of 100.0 cm-1


-------
ENTROPY
-------

The entropy contributions are T*S = T*(S(el)+S(vib)+S(rot)+S(trans))
     S(el)   - electronic entropy
     S(vib)  - vibrational entropy
     S(rot)  - rotational entropy
     S(trans)- translational entropy
The entropies will be listed as multiplied by the temperature to get
units of energy

Electronic entropy                ...      0.00000000 Eh      0.00 kcal/mol
Vibrational entropy               ...      0.09996697 Eh     62.73 kcal/mol
Rotational entropy                ...      0.01853531 Eh     11.63 kcal/mol
Translational entropy             ...      0.02240642 Eh     14.06 kcal/mol
-----------------------------------------------------------------------
Final entropy term                ...      0.14090869 Eh     88.42 kcal/mol

In case the symmetry of your molecule has not been determined correctly
or in case you have a reason to use a different symmetry number we print 
out the resulting rotational entropy values for sn=1,12:

 non-linear molecules -----------------------------------
|  sn= 1 | S(rot)=       0.01853531 Eh     11.63 kcal/mol|
|  sn= 2 | S(rot)=       0.01788085 Eh     11.22 kcal/mol|
|  sn= 3 | S(rot)=       0.01749802 Eh     10.98 kcal/mol|
|  sn= 4 | S(rot)=       0.01722639 Eh     10.81 kcal/mol|
|  sn= 5 | S(rot)=       0.01701571 Eh     10.68 kcal/mol|
|  sn= 6 | S(rot)=       0.01684356 Eh     10.57 kcal/mol|
|  sn= 7 | S(rot)=       0.01669801 Eh     10.48 kcal/mol|
|  sn= 8 | S(rot)=       0.01657194 Eh     10.40 kcal/mol|
|  sn= 9 | S(rot)=       0.01646073 Eh     10.33 kcal/mol|
|  sn=10 | S(rot)=       0.01636125 Eh     10.27 kcal/mol|
|  sn=11 | S(rot)=       0.01627126 Eh     10.21 kcal/mol|
|  sn=12 | S(rot)=       0.01618910 Eh     10.16 kcal/mol|
 linear molecules ---------------------------------------
|  Dinfh | S(rot)=       0.01140376 Eh      7.16 kcal/mol|
|  Cinfv | S(rot)=       0.01205821 Eh      7.57 kcal/mol|
 --------------------------------------------------------


-------------------
GIBBS FREE ENERGY
-------------------

The Gibbs free energy is G = H - T*S

Total enthalpy                    ...  -3244.12996464 Eh 
Total entropy correction          ...     -0.14090869 Eh    -88.42 kcal/mol
-----------------------------------------------------------------------
Final Gibbs free energy         ...  -3244.27087333 Eh

For completeness - the Gibbs free energy minus the electronic energy
G-E(el)                           ...      0.24393987 Eh    153.07 kcal/mol


Maximum memory used throughout the entire PROP-calculation: 131.9 MB

--------------------------------
SUGGESTED CITATIONS FOR THIS RUN
--------------------------------

Below you find a list of papers that are relevant to this ORCA run
We neither can nor want to force you to cite these papers, but we appreciate if you do
You receive ORCA, which is the product of decades of hard work by many enthusiastic individuals, for free
The only thing we kindly ask in return is that you cite our papers,
We deeply appreciate it, if you show your appreciation for ORCA by not just citing the generic ORCA reference.

Please note that relegating all ORCA citations to the supporting information does *not* help us.
SI sections are not indexed - citations you put there will not count into any citation statistics
But we need these citations in order to attract the funding resources that allow us to do what we are doing

Therefore, if you are a happy ORCA user, please consider citing a few of the papers listed below in the main body of your paper

In addition to the list printed below, the program has created the file run.bibtex that contains the list in bibtex format
You can import this file easily into all common literature databanks and citation aid programs


List of essential papers. We consider these as the minimum necessary citations

  1. Neese, F.
     Software update: the ORCA program system, version 6.0
     WIRES Comput. Molec. Sci. 2025 15(1), e70019
     doi.org/10.1002/wcms.7019

List of papers to cite with high priority. The work reported in these papers was absolutely
necessary for this run to complete.
Our perspective: the developers of density functionals and basis sets usually get cited in chemistry papers
Good! But without the algorithms to do something with them, the functionals or basis sets would not do anything.
Hence, in our opinion, the algorithm design and method developments papers are equally worthy of getting cited

  1. Neese, F.
     An improvement of the resolution of the identity approximation for the formation of the Coulomb matrix
     J. Comp. Chem. 2003 24(14), 1740-1747
     doi.org/10.1002/jcc.10318
  2. Grimme, S.; Antony, J.; Ehrlich, S.; Krieg, H.
     A consistent and accurate ab initio parametrization of density functional dispersion correction (DFT-D) for the 94 elements H-Pu
     J. Chem. Phys. 2010 132 , 154104
     doi.org/10.1063/1.3382344
  3. Grimme, S.; Ehrlich, S.; Goerigk, L.
     Effect of the damping function in dispersion corrected density functional theory
     J. Comput. Chem. 2011 32(7), 1456-1465
     doi.org/10.1002/jcc.21759
  4. Bykov, D.; Petrenko, T.; Izsak, R.; Kossmann, S.; Becker, U.; Valeev, E.; Neese, F.
     Efficient implementation of the analytic second derivatives of Hartree-Fock and hybrid DFT energies: a detailed analysis of different approximations
     Molec. Phys. 2015 113 , 1961-1977
     doi.org/10.1080/00268976.2015.1025114
  5. Neese, F.
     The SHARK Integral Generation and Digestion System
     J. Comp. Chem. 2022 44(3), 381
     doi.org/10.1002/jcc.26942

List of suggested additional citations. These are papers that are important in the 'surrounding' of 
of this run, or papers that preceded the highly important papers. If you like your results we are grateful for a citation.

  1. Neese, F.
     The ORCA program system
     WIRES Comput. Molec. Sci. 2012 2(1), 73-78
     doi.org/10.1002/wcms.81
  2. Neese, F.
     Software update: the ORCA program system, version 4.0
     WIRES Comput. Molec. Sci. 2018 8(1), 1-6
     doi.org/10.1002/wcms.1327
  3. Neese, F.; Wennmohs, F.; Becker, U.; Riplinger, C.
     The ORCA quantum chemistry program package
     J. Chem. Phys. 2020 152(22), 224108
     doi.org/10.1063/5.0004608
  4. Neese, F.
     Software update: The ORCA program system—Version 5.0
     WIRES Comput. Molec. Sci. 2022 12(1), e1606
     doi.org/10.1002/wcms.1606

List of optional additional citations

  1. Neese, F.
     Approximate second-order SCF convergence for spin unrestricted wavefunctions
     Chem. Phys. Lett. 2000 325(1-3), 93-98
     doi.org/10.1016/s0009-2614(00)00662-x

Timings for individual modules:

Sum of individual times          ...     5786.110 sec (=  96.435 min)
Startup calculation              ...      278.624 sec (=   4.644 min)   4.8 %
SCF iterations                   ...     1415.431 sec (=  23.591 min)  24.5 %
Property integrals               ...     1260.792 sec (=  21.013 min)  21.8 %
SCF Response                     ...     1052.936 sec (=  17.549 min)  18.2 %
Property calculations            ...     1083.617 sec (=  18.060 min)  18.7 %
SCF Gradient evaluation          ...      681.345 sec (=  11.356 min)  11.8 %
Geometry relaxation              ...       13.366 sec (=   0.223 min)   0.2 %
                             ****ORCA TERMINATED NORMALLY****
TOTAL RUN TIME: 0 days 1 hours 36 minutes 55 seconds 686 msec
