
                                 *****************
                                 * O   R   C   A *
                                 *****************

                                            #,                                       
                                            ###                                      
                                            ####                                     
                                            #####                                    
                                            ######                                   
                                           ########,                                 
                                     ,,################,,,,,                         
                               ,,#################################,,                 
                          ,,##########################################,,             
                       ,#########################################, ''#####,          
                    ,#############################################,,   '####,        
                  ,##################################################,,,,####,       
                ,###########''''           ''''###############################       
              ,#####''   ,,,,##########,,,,          '''####'''          '####       
            ,##' ,,,,###########################,,,                        '##       
           ' ,,###''''                  '''############,,,                           
         ,,##''                                '''############,,,,        ,,,,,,###''
      ,#''                                            '''#######################'''  
     '                                                          ''''####''''         
             ,#######,   #######,   ,#######,      ##                                
            ,#'     '#,  ##    ##  ,#'     '#,    #''#        ,####,    ,#,          
            ##       ##  ##   ,#'  ##            #'  '#       #'       ,# #          
            ##       ##  #######   ##           ,######,      #####,      #          
            '#,     ,#'  ##    ##  '#,     ,#' ,#      #,     #,   #      #          
             '#######'   ##     ##  '#######'  #'      '#     '####' #    #          



                #########################################################
                #                        -***-                          #
                #          Department of theory and spectroscopy        #
                #                                                       #
                #                      Frank Neese                      #
                #                                                       #
                #     Directorship, Architecture, Infrastructure        #
                #                    SHARK, DRIVERS                     #
                #        Core code/Algorithms in most modules           #
                #                                                       #
                #        Max Planck Institute fuer Kohlenforschung      #
                #                Kaiser Wilhelm Platz 1                 #
                #                 D-45470 Muelheim/Ruhr                 #
                #                      Germany                          #
                #                                                       #
                #                  All rights reserved                  #
                #                        -***-                          #
                #########################################################


                         Program Version 6.1.0  -  RELEASE   -
                                (GIT: $679e74b$)
                          ($2025-06-10 18:02:51 +0200$)


 With contributions from (in alphabetic order):
[Max-Planck-Institut fuer Kohlenforschung]                               
  Daniel Aravena         : Magnetic Suceptibility                        
  Michael Atanasov       : Ab Initio Ligand Field Theory (pilot matlab implementation)
  Alexander A. Auer      : GIAO ZORA, VPT2 properties, NMR spectrum      
  Ute Becker             : All parallelization in ORCA, NUMFREQ, NUMCALC 
  Giovanni Bistoni       : ED, misc. LED, open-shell LED, HFLD           
  Dmytro Bykov           : pre 5.0 version of the SCF Hessian            
  Marcos Casanova-Páez   : Triplet and SCS-CIS(D). UHF-(DLPNO)-IP/EA/STEOM-CCSD. UHF-CVS-IP/STEOM-CCSD   
  Vijay G. Chilkuri      : MRCI spin determinant printing, contributions to CSF-ICE 
  Pauline Colinet        : FMM embedding                                 
  Dipayan Datta          : RHF DLPNO-CCSD density                        
  Achintya Kumar Dutta   : EOM-CC, STEOM-CC                              
  Nicolas Foglia         : Exact transition moments, OPA infrastructure, MCD improvements    
  Dmitry Ganyushin       : Spin-Orbit,Spin-Spin,Magnetic field MRCI      
  Miquel Garcia-Rates    : C-PCM and meta-GGA Hessian, CCSD/C-PCM, Gaussian charge scheme 
  Tiago L. C. Gouveia    : GS-ROHF, GS-ROCIS                             
  Yang Guo               : DLPNO-NEVPT2, F12-NEVPT2, CIM, IAO-localization        
  Andreas Hansen         : Spin unrestricted coupled pair/coupled cluster methods 
  Ingolf Harden          : AUTO-CI MPn and infrastructure                
  Benjamin Helmich-Paris : MC-RPA, TRAH-(SCF,CASSCF), AVAS, COSX integrals, SCF dyn. polar., MC-PDFT, srDFT 
  Lee Huntington         : MR-EOM, pCC                                   
  Robert Izsak           : Overlap fitted RIJCOSX, COSX-SCS-MP3, EOM     
  Riya Kayal             : Wick's Theorem for AUTO-CI, AUTO-CI UHF-CCSDT 
  Emily Kempfer          : AUTO-CI RHF CISDT and CCSDT, approximate NEVPT4
  Christian Kollmar      : KDIIS, OOCD, Brueckner-CCSD(T), CCSD density, CASPT2, CASPT2-K, improved NEVPT2 
  Axel Koslowski         : Symmetry handling                             
  Simone Kossmann        : meta-GGA functionals, TD-DFT gradient, OOMP2, (MP2 Hessian; deprecated post 5.0) 
  Lucas Lang             : DCDCAS, Hyperfine gauge corrections, ICE-SOC+SSC
  Marvin Lechner         : AUTO-CI (C++ implementation), FIC-MRCC        
  Spencer Leger          : CASSCF response                               
  Dagmar Lenk            : GEPOL surface, SMD, ORCA-2-JSON               
  Dimitrios Liakos       : Extrapolation schemes; Compound Job, Property file
  Dimitrios Manganas     : Further ROCIS development; embedding schemes. LFT, Crystal Embedding 
  Dimitrios Pantazis     : SARC Basis sets                               
  Anastasios Papadopoulos: AUTO-CI, single reference methods and gradients 
  Taras Petrenko         : pre 6.0 DFT Hessian and TD-DFT gradient,  ECA, NRVS 
  Petra Pikulova         : Analytic Raman intensities                    
  Peter Pinski           : DLPNO-MP2, DLPNO-MP2 Gradient                 
  Shashank Vittal Rao    : ES-AILFT, MagRelax                            
  Christoph Reimann      : Effective Core Potentials                     
  Marius Retegan         : Local ZFS, SOC                                
  Christoph Riplinger    : Optimizer, TS searches, QM/MM, DLPNO-CCSD(T), (RO)-DLPNO pert. Triples 
  Michael Roemelt        : Original ROCIS implementation, recursive CI coupling coefficients
  Masaaki Saitow         : Open-shell DLPNO-CCSD energy and density      
  Barbara Sandhoefer     : DKH picture change effects                    
  Yorick L. A. Schmerwitz: GMF and freeze-and-release deltaSCF, NEB S-IDPP initial path                    
  Kantharuban Sivalingam : CASSCF convergence/infrastructure, NEVPT2, NEVPT3, NEVPT4(SD), FIC-MRCI and CEPA variants
  Bernardo de Souza      : ESD, SOC TD-DFT                               
  Georgi L. Stoychev     : AutoAux, RI-MP2 NMR, DLPNO-MP2 response, X2C  
  Van Anh Tran           : RI-MP2 g-tensors                              
  Willem Van den Heuvel  : Paramagnetic NMR                              
  Zikuan Wang            : NOTCH, Electric field optimization            
  Frank Wennmohs         : Technical directorship and infrastructure     
  Hang Xu                : AUTO-CI-Response properties                   
                                                                         
[FACCTs GmbH]                                                            
  Markus Bursch, Nicolas Foglia, Miquel Garcia-Rates, Ingolf Harden, Hagen Neugebauer, Anastasios Papadopoulos, 
  Christoph Riplinger, Bernardo de Souza, Georgi L. Stoychev                                                    
                                                                 
  APM, various basis sets, CI-OPT, improved COSX, DLPNO-Multilevel,           
  DOCKER, DRACO, updates on ESD, Fragmentator, GOAT, IRC, LR-CPCM, L-BFGS, MBIS, meta-GGA TD-DFT gradient, ML-optimized integration grids, 
  MM, NACMEs, nearIR, NEB, NEB-TS, NL-DFT gradient (VV10), 2- and 3-layer-ONIOM, interface openCOSMO-RS, QMMM,   
  Crystal-QMMM, RESP, rigid body optimization, SF, symmetry and pop. for TD-DFT, various functionals, SOLVATOR                                   
                                                                         
[Other institutions]                                                     
  V. Asgeirsson          : NEB                                           
  Christoph Bannwarth    : sTDA-DFT, sTD-DFT, PBEh-3c, B97-3c, D3        
  Giovanni Bistoni       : ETS/NOCV, ADLD/ADEX, COVALED                  
  Martin Brehm           : Molecular dynamics                            
  Ronald Cardenas        : ETS/NOCV                                      
  Martina Colucci        : COVALED                                       
  Sebastian Ehlert       : rSCAN, r2SCAN, r2SCAN-3c, D4, dhf basis sets  
  Marvin Friede          : D4 for Fr, Ra, Ac-Lr                          
  Lars Goerigk           : TD-DFT with DH, B97 family of functionals     
  Stefan Grimme          : VdW corrections, initial TS optimization, DFT functionals, gCP, sTDA/sTD-DF 
  Waldemar Hujo          : DFT-NL                                        
  H. Jonsson             : NEB                                           
  Holger Kruse           : gCP                                           
  Marcel Mueller         : wB97X-3c, vDZP basis set                      
  Hagen Neugebauer       : wr2SCAN, Native XTB                           
  Gianluca Regni         : ADLD/ADEX                                     
  Tobias Risthaus        : pre 6.0 range-separated hybrid DFT and stability analysis
  Lukas Wittmann         : regularized MP2, r2SCAN double-hybrids, wr2SCAN        
                                                                         
We gratefully acknowledge several colleagues who have allowed us to      
interface, adapt or use parts of their codes:                            
  Ed Valeev, F. Pavosevic, A. Kumar             : LibInt (2-el integral package), F12 methods 
  Garnet Chan, S. Sharma, J. Yang, R. Olivares  : DMRG                   
  Ulf Ekstrom                                   : XCFun DFT Library      
  Mihaly Kallay                                 : mrcc  (arbitrary order and MRCC methods)
  Frank Weinhold                                : gennbo (NPA and NBO analysis)           
  Simon Mueller                                 : openCOSMO-RS                            
  Christopher J. Cramer and Donald G. Truhlar   : smd solvation model                     
  S Lehtola, MJT Oliveira, MAL Marques          : LibXC Library                           
  Liviu Ungur et al                             : ANISO software                          


 Your calculation uses the libint2 library for the computation of 2-el integrals
 For citations please refer to: http://libint.valeyev.net

 Your ORCA version has been built with support for libXC version: 7.0.0
 For citations please refer to: https://libxc.gitlab.io

 This ORCA versions uses:
   CBLAS   interface :  Fast vector & matrix operations
   LAPACKE interface :  Fast linear algebra routines
   SCALAPACK package :  Parallel linear algebra routines
   Shared memory     :  Shared parallel matrices
   BLAS/LAPACK       :  OpenBLAS 0.3.29  USE64BITINT DYNAMIC_ARCH NO_AFFINITY Bulldozer SINGLE_THREADED
        Core in use  :  Bulldozer
   Copyright (c) 2011-2014, The OpenBLAS Project


  ***********************************
  * Starting time: Sun Aug 17 23:00:54 2025
  * Host name:     chromium07
  * Process ID:    412155
  * Working dir.:  /local/scratch/mehlhorn/62113
  ***********************************



***************************************
The coordinates will be read from file: start.xyz
***************************************


Your calculation utilizes the geometrical counterpoise correction gCP
Please cite in your paper:
H.Kruse, S. Grimme J.Chem.Phys., 136, (2012), 154101 
   

Your calculation utilizes the atom-pairwise dispersion correction
with the Becke-Johnson damping scheme (D3BJ)


Your calculation employs the composite approach PBEh-3c.
Please cite in your paper:
Grimme, S.; Brandenburg, J. G.; Bannwarth, C.; Hansen A. J. Chem. Phys. 2015, 143, 054107 
   

================================================================================

----- Orbital basis set information -----
Your calculation utilizes the basis: def2-mSVP

----- AuxJ basis set information -----
Your calculation utilizes the auxiliary basis: def2-mSVP/J
================================================================================
                                        WARNINGS
                       Please study these warnings very carefully!
================================================================================


WARNING: Geometry Optimization
  ===> : Switching off AutoStart
         For restart on a previous wavefunction, please use MOREAD

================================================================================
                                       INPUT FILE
================================================================================
NAME = run.inp
|  1> # Geometry optimization for (AlH3)n cluster
|  2> 
|  3> %pal nprocs 24  end
|  4> 
|  5> %geom MaxIter 500 end
|  6> 
|  7> %cpcm
|  8> 	epsilon 1.95778548766667
|  9> end
| 10> 
| 11> %elprop Polar 1 end # invoke raman
| 12> 
| 13> ! PBEh-3c
| 14> ! RKS	# closed shell for AlH3
| 15> ! Freq 	# Frequency analysis to check the stabiltity of the structures
| 16> 
| 17> 
| 18> ! NoPop # population analysis not necessary	
| 19> 
| 20> ! DEFGRID3
| 21> ! ExtremeSCF
| 22> ! VeryTightOpt
| 23> 
| 24> 
| 25> ! SmallPrint
| 26> 
| 27> 
| 28> * xyzFile 0 1 start.xyz # only maingroup elements H and Al so there should be no net spin
| 29> 
| 30>                          ****END OF INPUT****
================================================================================

                       *****************************
                       * Geometry Optimization Run *
                       *****************************

Geometry optimization settings:
Update method            Update   .... BFGS
Choice of coordinates    CoordSys .... (2022) Redundant Internals
Initial Hessian          InHess   .... Almloef's Model
Max. no of cycles        MaxIter  .... 500

Convergence Tolerances:
Energy Change            TolE     ....  2.0000e-07 Eh
Max. Gradient            TolMAXG  ....  3.0000e-05 Eh/bohr
RMS Gradient             TolRMSG  ....  8.0000e-06 Eh/bohr
Max. Displacement        TolMAXD  ....  2.0000e-04 bohr
RMS Displacement         TolRMSD  ....  1.0000e-04 bohr
Strict Convergence                .... False

------------------------------------------------------------------------------
                        ORCA OPTIMIZATION COORDINATE SETUP
------------------------------------------------------------------------------

The optimization will be done in redundant internal coordinates (2022)
Making redundant internal coordinates   ...  (2022 redundants) done
Evaluating the initial hessian          ...  (Almloef) done
Evaluating the coordinates              ...  done
Calculating the B-matrix                .... done
Calculating the G-matrix                .... done
The number of degrees of freedom        ....  117

    -----------------------------------------------------------------
                    Redundant Internal Coordinates


    -----------------------------------------------------------------
         Definition                    Initial Value    Approx d2E/dq
    -----------------------------------------------------------------
      1. B(Al  1,Al  0)                  3.0616         0.066058   
      2. B(H   2,Al  1)                  1.7224         0.247245   
      3. B(H   3,Al  1)                  1.5866         0.407158   
      4. B(H   4,Al  1)                  1.7225         0.247142   
      5. B(H   4,Al  0)                  1.7218         0.247735   
      6. B(H   5,Al  0)                  1.5870         0.406573   
      7. B(H   6,Al  0)                  1.7157         0.253384   
      8. B(H   7,Al  1)                  1.5865         0.407188   
      9. B(Al  8,H   6)                  1.7157         0.253334   
     10. B(Al  8,H   2)                  1.7218         0.247752   
     11. B(Al  8,Al  1)                  3.0654         0.065149   
     12. B(Al  8,Al  0)                  3.0731         0.063328   
     13. B(H   9,Al  8)                  1.5870         0.406573   
     14. B(H  10,Al  8)                  1.5876         0.405682   
     15. B(H  11,Al  0)                  1.5876         0.405618   
     16. A(H   4,Al  0,H   6)           98.0673         0.327917   
     17. A(Al  1,Al  0,H   4)           27.2699         0.303977   
     18. A(Al  1,Al  0,Al  8)           59.9571         0.281576   
     19. A(Al  8,Al  0,H  11)          103.5571         0.327072   
     20. A(H   4,Al  0,H   5)          104.3939         0.354905   
     21. A(H   6,Al  0,H  11)          106.7636         0.356123   
     22. A(Al  1,Al  0,H   5)          131.4941         0.329485   
     23. A(Al  1,Al  0,H  11)           88.7691         0.329357   
     24. A(H   5,Al  0,H  11)          128.9146         0.386298   
     25. A(H   5,Al  0,H   6)          105.8749         0.356266   
     26. A(H   4,Al  0,Al  8)           74.2282         0.301933   
     27. A(Al  1,Al  0,H   6)           86.3707         0.305076   
     28. A(H   5,Al  0,Al  8)          122.4920         0.327198   
     29. A(H   4,Al  0,H  11)          108.6299         0.354764   
     30. A(H   6,Al  0,Al  8)           26.4167         0.303022   
     31. A(H   2,Al  1,H   7)          104.7519         0.354877   
     32. A(H   3,Al  1,H   4)          104.7520         0.354847   
     33. A(Al  0,Al  1,H   3)          127.3488         0.329563   
     34. A(H   2,Al  1,H   4)           95.8559         0.326465   
     35. A(H   4,Al  1,Al  8)           74.4479         0.303187   
     36. A(H   3,Al  1,Al  8)           98.6262         0.328809   
     37. A(H   2,Al  1,H   3)          109.3825         0.354872   
     38. A(H   2,Al  1,Al  8)           27.1180         0.303207   
     39. A(Al  0,Al  1,Al  8)           60.2074         0.282816   
     40. A(H   7,Al  1,Al  8)          127.3317         0.328814   
     41. A(Al  0,Al  1,H   4)           27.2587         0.303860   
     42. A(H   4,Al  1,H   7)          109.3707         0.354852   
     43. A(Al  0,Al  1,H   7)           98.6932         0.329567   
     44. A(Al  0,Al  1,H   2)           74.2402         0.303880   
     45. A(H   3,Al  1,H   7)          128.1011         0.386655   
     46. A(Al  1,H   2,Al  8)          125.7546         0.326598   
     47. A(Al  0,H   4,Al  1)          125.4713         0.326572   
     48. A(Al  0,H   6,Al  8)          127.1675         0.329128   
     49. A(Al  1,Al  8,H   2)           27.1275         0.303306   
     50. A(Al  0,Al  8,H   2)           73.9095         0.301936   
     51. A(Al  0,Al  8,Al  1)           59.8354         0.280973   
     52. A(H   6,Al  8,H  10)          106.6762         0.356121   
     53. A(H   2,Al  8,H  10)          108.6570         0.354777   
     54. A(Al  1,Al  8,H  10)           89.0462         0.328612   
     55. A(Al  0,Al  8,H  10)          104.3229         0.327080   
     56. A(H   6,Al  8,H   9)          105.9639         0.356253   
     57. A(H   9,Al  8,H  10)          128.8994         0.386309   
     58. A(H   2,Al  8,H   9)          104.3568         0.354909   
     59. A(Al  1,Al  8,H   9)          131.2887         0.328731   
     60. A(Al  0,Al  8,H   9)          121.8595         0.327198   
     61. A(H   2,Al  8,H   6)           98.1108         0.327909   
     62. A(Al  1,Al  8,H   6)           86.2481         0.304390   
     63. A(Al  0,Al  8,H   6)           26.4158         0.303012   
     64. D(H   2,Al  1,Al  0,H   4)   -141.1883         0.010000   
     65. D(H   3,Al  1,Al  0,H   6)     76.8919         0.010000   
     66. D(H   3,Al  1,Al  0,H   5)    -31.1567         0.010000   
     67. D(H   3,Al  1,Al  0,Al  8)     77.3195         0.010000   
     68. D(H   2,Al  1,Al  0,Al  8)    -25.2962         0.010000   
     69. D(H   3,Al  1,Al  0,H   4)    -38.5726         0.010000   
     70. D(H   2,Al  1,Al  0,H   6)    -25.7238         0.010000   
     71. D(H   2,Al  1,Al  0,H   5)   -133.7723         0.010000   
     72. D(H   2,Al  1,Al  0,H  11)     81.1601         0.010000   
     73. D(H   3,Al  1,Al  0,H  11)   -176.2242         0.010000   
     74. D(Al  8,H   2,Al  1,H   7)    149.4950         0.010000   
     75. D(Al  8,H   2,Al  1,H   3)    -70.2357         0.010000   
     76. D(Al  8,H   2,Al  1,Al  0)     54.4413         0.010000   
     77. D(Al  8,H   2,Al  1,H   4)     37.6689         0.010000   
     78. D(Al  1,H   4,Al  0,H   5)   -174.2717         0.010000   
     79. D(Al  0,H   4,Al  1,H   7)    -70.5746         0.010000   
     80. D(Al  0,H   4,Al  1,Al  8)     54.1337         0.010000   
     81. D(Al  0,H   4,Al  1,H   3)    149.1658         0.010000   
     82. D(Al  0,H   4,Al  1,H   2)     37.3273         0.010000   
     83. D(Al  1,H   4,Al  0,H  11)     45.2937         0.010000   
     84. D(Al  1,H   4,Al  0,Al  8)    -54.0199         0.010000   
     85. D(Al  1,H   4,Al  0,H   6)    -65.5119         0.010000   
     86. D(Al  8,H   6,Al  0,H   4)     25.5282         0.010000   
     87. D(Al  8,H   6,Al  0,Al  1)      0.8320         0.010000   
     88. D(Al  8,H   6,Al  0,H   5)    133.0660         0.010000   
     89. D(Al  8,H   6,Al  0,H  11)    -86.7846         0.010000   
     90. D(Al  1,Al  8,Al  0,H  11)    -80.5036         0.010000   
     91. D(Al  1,Al  8,Al  0,H   6)    179.0408         0.010000   
     92. D(Al  1,Al  8,Al  0,H   5)    122.6207         0.010000   
     93. D(H   2,Al  8,Al  0,Al  1)     25.3496         0.010000   
     94. D(Al  1,Al  8,Al  0,H   4)     25.3607         0.010000   
     95. D(H   9,Al  8,H   6,Al  0)    131.1617         0.010000   
     96. D(H   2,Al  8,H   6,Al  0)     23.6272         0.010000   
     97. D(Al  1,Al  8,H   6,Al  0)     -0.8311         0.010000   
     98. D(H  10,Al  8,H   2,Al  1)     45.7677         0.010000   
     99. D(H   9,Al  8,H   2,Al  1)   -173.8271         0.010000   
    100. D(H   6,Al  8,H   2,Al  1)    -64.9680         0.010000   
    101. D(H   6,Al  8,Al  1,H   2)    115.9816         0.010000   
    102. D(H   6,Al  8,Al  1,Al  0)      0.4276         0.010000   
    103. D(H   2,Al  8,Al  1,H   7)    -38.1231         0.010000   
    104. D(H   2,Al  8,Al  1,H   4)   -140.8752         0.010000   
    105. D(H   2,Al  8,Al  1,H   3)    116.1151         0.010000   
    106. D(H   2,Al  8,Al  1,Al  0)   -115.5539         0.010000   
    107. D(Al  0,Al  8,Al  1,H   7)     77.4308         0.010000   
    108. D(Al  0,Al  8,Al  1,H   4)    -25.3212         0.010000   
    109. D(Al  0,Al  8,H   2,Al  1)    -54.2736         0.010000   
    110. D(Al  0,Al  8,Al  1,H   3)   -128.3310         0.010000   
    111. D(Al  0,Al  8,Al  1,H   2)    115.5539         0.010000   
    112. D(H   6,Al  8,Al  0,Al  1)   -179.0408         0.010000   
    113. D(H   2,Al  8,Al  0,H  11)    -55.1540         0.010000   
    114. D(H   2,Al  8,Al  0,H   6)   -155.6096         0.010000   
    115. D(H   2,Al  8,Al  0,H   5)    147.9703         0.010000   
    116. D(H  10,Al  8,H   6,Al  0)    -88.7073         0.010000   
    117. D(H   2,Al  8,Al  0,H   4)     50.7103         0.010000   
    -----------------------------------------------------------------

Number of atoms                         .... 12
Number of degrees of freedom            .... 117


         *************************************************************
         *                GEOMETRY OPTIMIZATION CYCLE   1            *
         *************************************************************
---------------------------------
CARTESIAN COORDINATES (ANGSTROEM)
---------------------------------
  Al    -0.229336    1.518703    2.565116
  Al     0.000112   -0.000504   -0.083076
  H      0.872647   -0.936119    1.070095
  H     -1.104359   -0.908608   -0.770597
  H     -0.863311    0.941431    1.071975
  H     -1.473730    2.184180    3.291105
  H      0.004026    0.001019    3.330439
  H      1.099008    0.904057   -0.784024
  Al     0.255504   -1.515923    2.569274
  H      1.513503   -2.162228    3.289111
  H     -1.181016   -2.143499    2.318487
  H      1.213893    2.125802    2.302455

----------------------------
CARTESIAN COORDINATES (A.U.)
----------------------------
  NO LB      ZA    FRAG     MASS         X           Y           Z
   0 Al   13.0000    0    26.982   -0.433383    2.869932    4.847367
   1 Al   13.0000    0    26.982    0.000213   -0.000953   -0.156991
   2 H     1.0000    0     1.008    1.649064   -1.769008    2.022187
   3 H     1.0000    0     1.008   -2.086937   -1.717021   -1.456217
   4 H     1.0000    0     1.008   -1.631422    1.779047    2.025739
   5 H     1.0000    0     1.008   -2.784947    4.127502    6.219287
   6 H     1.0000    0     1.008    0.007608    0.001925    6.293617
   7 H     1.0000    0     1.008    2.076824    1.708421   -1.481591
   8 Al   13.0000    0    26.982    0.482833   -2.864680    4.855224
   9 H     1.0000    0     1.008    2.860107   -4.086019    6.215520
  10 H     1.0000    0     1.008   -2.231796   -4.050626    4.381305
  11 H     1.0000    0     1.008    2.293925    4.017183    4.351009

--------------------------------
INTERNAL COORDINATES (ANGSTROEM)
--------------------------------
 Al     0   0   0     0.000000000000     0.00000000     0.00000000
 Al     1   0   0     3.061626664413     0.00000000     0.00000000
 H      2   1   0     1.722351193348    74.24023321     0.00000000
 H      2   1   3     1.586567350603   127.34882232   102.61565028
 H      1   2   3     1.721812237687    27.26993737   218.81172661
 H      1   2   3     1.586958318248   131.49411502   226.22768752
 H      1   2   3     1.715675058198    86.37074864   334.27621942
 H      2   1   3     1.586547067194    98.69322919   257.02628612
 Al     7   1   2     1.715729209230   127.16748732     0.83198618
 H      9   7   1     1.586958575288   105.96385021   131.16165909
 H      9   7   1     1.587555950282   106.67618388   271.29272972
 H      1   2   3     1.587599103362    88.76907786    81.16010090

---------------------------
INTERNAL COORDINATES (A.U.)
---------------------------
 Al     0   0   0     0.000000000000     0.00000000     0.00000000
 Al     1   0   0     5.785635920052     0.00000000     0.00000000
 H      2   1   0     3.254772061860    74.24023321     0.00000000
 H      2   1   3     2.998177785661   127.34882232   102.61565028
 H      1   2   3     3.253753583262    27.26993737   218.81172661
 H      1   2   3     2.998916607437   131.49411502   226.22768752
 H      1   2   3     3.242155994795    86.37074864   334.27621942
 H      2   1   3     2.998139455573    98.69322919   257.02628612
 Al     7   1   2     3.242258325415   127.16748732     0.83198618
 H      9   7   1     2.998917093172   105.96385021   131.16165909
 H      9   7   1     3.000045968310   106.67618388   271.29272972
 H      1   2   3     3.000127515814    88.76907786    81.16010090

---------------------
BASIS SET INFORMATION
---------------------
There are 2 groups of distinct atoms

 Group   1 Type Al  : 10s7p1d contracted to 4s3p1d pattern {5311/511/1}
 Group   2 Type H   : 4s contracted to 2s pattern {31}

Atom   0Al   basis set group =>   1
Atom   1Al   basis set group =>   1
Atom   2H    basis set group =>   2
Atom   3H    basis set group =>   2
Atom   4H    basis set group =>   2
Atom   5H    basis set group =>   2
Atom   6H    basis set group =>   2
Atom   7H    basis set group =>   2
Atom   8Al   basis set group =>   1
Atom   9H    basis set group =>   2
Atom  10H    basis set group =>   2
Atom  11H    basis set group =>   2
---------------------------------
AUXILIARY/J BASIS SET INFORMATION
---------------------------------
There are 2 groups of distinct atoms

 Group   1 Type Al  : 14s5p5d2f1g contracted to 8s4p3d1f1g pattern {71111111/2111/311/2/1}
 Group   2 Type H   : 5s2p1d contracted to 3s1p1d pattern {311/2/1}

Atom   0Al   basis set group =>   1
Atom   1Al   basis set group =>   1
Atom   2H    basis set group =>   2
Atom   3H    basis set group =>   2
Atom   4H    basis set group =>   2
Atom   5H    basis set group =>   2
Atom   6H    basis set group =>   2
Atom   7H    basis set group =>   2
Atom   8Al   basis set group =>   1
Atom   9H    basis set group =>   2
Atom  10H    basis set group =>   2
Atom  11H    basis set group =>   2


           ************************************************************
           *        Program running with 24 parallel MPI-processes    *
           *              working on a common directory               *
           ************************************************************
------------------------------------------------------------------------------
                             ORCA STARTUP CALCULATIONS
                           -- RI-GTO INTEGRALS CHOSEN --
------------------------------------------------------------------------------
------------------------------------------------------------------------------
                   ___                                                        
                  /   \      - P O W E R E D   B Y -                         
                 /     \                                                     
                 |  |  |   _    _      __       _____    __    __             
                 |  |  |  | |  | |    /  \     |  _  \  |  |  /  |          
                  \  \/   | |  | |   /    \    | | | |  |  | /  /          
                 / \  \   | |__| |  /  /\  \   | |_| |  |  |/  /          
                |  |  |   |  __  | /  /__\  \  |    /   |      \           
                |  |  |   | |  | | |   __   |  |    \   |  |\   \          
                \     /   | |  | | |  |  |  |  | |\  \  |  | \   \       
                 \___/    |_|  |_| |__|  |__|  |_| \__\ |__|  \__/        
                                                                              
                      - O R C A' S   B I G   F R I E N D -                    
                                      &                                       
                       - I N T E G R A L  F E E D E R -                       
                                                                              
 v1 FN, 2020, v2 2021, v3 2022-2024                                           
------------------------------------------------------------------------------


----------------------
SHARK INTEGRAL PACKAGE
----------------------

Number of atoms                             ...     12
Number of basis functions                   ...     72
Number of shells                            ...     42
Maximum angular momentum                    ...      2
Integral batch strategy                     ... SHARK/LIBINT Hybrid
RI-J (if used) integral strategy            ... SPLIT-RIJ (Revised 2003 algorithm where possible)
Printlevel                                  ...      1
Contraction scheme used                     ... SEGMENTED contraction
Prescreening option                         ... SCHWARTZ
   Thresh                                   ... 3.000e-16
   Tcut                                     ... 3.000e-16
   Tpresel                                  ... 3.000e-16 
Coulomb Range Separation                    ... NOT USED
Exchange Range Separation                   ... NOT USED
Multipole approximations                    ... NOT USED
Finite Nucleus Model                        ... NOT USED
CABS basis                                  ... NOT available
Auxiliary Coulomb fitting basis             ... AVAILABLE
   # of basis functions in Aux-J            ...    252
   # of shells in Aux-J                     ...     96
   Maximum angular momentum in Aux-J        ...      4
Auxiliary J/K fitting basis                 ... NOT available
Auxiliary Correlation fitting basis         ... NOT available
Auxiliary 'external' fitting basis          ... NOT available

Checking pre-screening integrals            ... done (  0.0 sec) Dimension = 42
   => SHARK Basis and OBASIS are compatible. Storing Pre-screening
Shell pair information
Shell pair cut-off parameter TPreSel        ...   3.0e-16
Total number of shell pairs                 ...       903
Shell pairs after pre-screening             ...       882
Total number of primitive shell pairs       ...      4191
Primitive shell pairs kept                  ...      3043
          la=0 lb=0:    450 shell pairs
          la=1 lb=0:    264 shell pairs
          la=1 lb=1:     45 shell pairs
          la=2 lb=0:     90 shell pairs
          la=2 lb=1:     27 shell pairs
          la=2 lb=2:      6 shell pairs

Checking whether 4 symmetric matrices of dimension 72 fit in memory
:Max Core in MB      =   4096.00
 MB in use           =      4.47
 MB left             =   4091.53
 MB needed           =      0.08
 Data fit in memory  = YES
Calculating RI/J V-Matrix + Cholesky decomp.... done (  0.0 sec)
Calculating Nuclear repulsion               ... done (  0.0 sec) ENN=    170.946225274334 Eh

Diagonalization of the overlap matrix:
Smallest eigenvalue                        ... 1.082e-02
Time for diagonalization                   ...    0.002 sec
Threshold for overlap eigenvalues          ... 1.000e-07
Number of eigenvalues below threshold      ... 0
Time for construction of square roots      ...    0.001 sec
Total time needed                          ...    0.004 sec

-------------------
DFT GRID GENERATION
-------------------

General Integration Accuracy     IntAcc      ... 4.959
Radial Grid Type                 RadialGrid  ... OptM3 with GC (2021)
Angular Grid (max. ang.)         AngularGrid ... 6 (Lebedev-590)
Angular grid pruning method      GridPruning ... 4 (adaptive)
Weight generation scheme         WeightScheme... mBecke (2022)
Basis function cutoff            BFCut       ... 3.0000e-16
Integration weight cutoff        WCut        ... 1.0000e-14
Partially contracted basis set               ... off
Rotationally invariant grid construction     ... off
Angular grids for H and He will be reduced by one unit

Total number of grid points                  ...   128061
Total number of batches                      ...     2007
Average number of points per batch           ...       63
Average number of grid points per atom       ...    10672

--------------------
COSX GRID GENERATION
--------------------

GRIDX 1
-------
General Integration Accuracy     IntAcc      ... 4.020
Radial Grid Type                 RadialGrid  ... OptM3 with GC (2021)
Angular Grid (max. ang.)         AngularGrid ... 2 (Lebedev-110)
Angular grid pruning method      GridPruning ... 4 (adaptive)
Weight generation scheme         WeightScheme... mBecke (2022)
Basis function cutoff            BFCut       ... 3.0000e-16
Integration weight cutoff        WCut        ... 1.0000e-14
Partially contracted basis set               ... on
Rotationally invariant grid construction     ... off
Angular grids for H and He will be reduced by one unit

Total number of grid points                  ...    12853
Total number of batches                      ...      106
Average number of points per batch           ...      121
Average number of grid points per atom       ...     1071
UseSFitting                                  ... on

GRIDX 2
-------
General Integration Accuracy     IntAcc      ... 4.338
Radial Grid Type                 RadialGrid  ... OptM3 with GC (2021)
Angular Grid (max. ang.)         AngularGrid ... 3 (Lebedev-194)
Angular grid pruning method      GridPruning ... 4 (adaptive)
Weight generation scheme         WeightScheme... mBecke (2022)
Basis function cutoff            BFCut       ... 3.0000e-16
Integration weight cutoff        WCut        ... 1.0000e-14
Partially contracted basis set               ... on
Rotationally invariant grid construction     ... off
Angular grids for H and He will be reduced by one unit

Total number of grid points                  ...    29704
Total number of batches                      ...      238
Average number of points per batch           ...      124
Average number of grid points per atom       ...     2475
UseSFitting                                  ... on

GRIDX 3
-------
General Integration Accuracy     IntAcc      ... 4.871
Radial Grid Type                 RadialGrid  ... OptM3 with GC (2021)
Angular Grid (max. ang.)         AngularGrid ... 4 (Lebedev-302)
Angular grid pruning method      GridPruning ... 4 (adaptive)
Weight generation scheme         WeightScheme... mBecke (2022)
Basis function cutoff            BFCut       ... 3.0000e-16
Integration weight cutoff        WCut        ... 1.0000e-14
Partially contracted basis set               ... on
Rotationally invariant grid construction     ... off
Angular grids for H and He will be reduced by one unit

Total number of grid points                  ...    59620
Total number of batches                      ...      469
Average number of points per batch           ...      127
Average number of grid points per atom       ...     4968
UseSFitting                                  ... on
Grids setup in   4.2 sec
Initializing property integral containers    ... done (  0.0 sec)

SHARK setup successfully completed in   4.4 seconds

Maximum memory used throughout the entire STARTUP-calculation: 26.0 MB


           ************************************************************
           *        Program running with 24 parallel MPI-processes    *
           *              working on a common directory               *
           ************************************************************
-------------------------------------------------------------------------------
                                 ORCA GUESS
                   Start orbitals & Density for SCF / CASSCF
-------------------------------------------------------------------------------

------------
SCF SETTINGS
------------
Hamiltonian:
 Density Functional     Method          .... DFT(GTOs)
 Exchange Functional    Exchange        .... PBE
   PBE kappa parameter   XKappa         ....  1.024500
   PBE mue parameter    XMuePBE         ....  0.123457
 Correlation Functional Correlation     .... PBE
   PBE beta parameter  CBetaPBE         ....  0.030000
 LDA part of GGA corr.  LDAOpt          .... PW91-LDA
 Gradients option       PostSCFGGA      .... off
 Hybrid DFT is turned on
   Fraction HF Exchange ScalHFX         ....  0.420000
   Scaling of DF-GGA-X  ScalDFX         ....  0.580000
   Scaling of DF-GGA-C  ScalDFC         ....  1.000000
   Scaling of DF-LDA-C  ScalLDAC        ....  1.000000
   Perturbative correction              ....  0.000000
 RI-approximation to the Coulomb term is turned on
   Number of AuxJ basis functions       .... 252
   RIJ-COSX (HFX calculated with COS-X)).... on


General Settings:
 Integral files         IntName         .... run
 Hartree-Fock type      HFTyp           .... RHF
 Total Charge           Charge          ....    0
 Multiplicity           Mult            ....    1
 Number of Electrons    NEL             ....   48
 Basis Dimension        Dim             ....   72
 Nuclear Repulsion      ENuc            ....    170.9462252743 Eh

Convergence Acceleration:
 AO-DIIS                CNVDIIS         .... on
   Start iteration      DIISMaxIt       ....    12
   Startup error        DIISStart       ....  0.200000
   # of expansion vecs  DIISMaxEq       ....     5
   Bias factor          DIISBfac        ....   1.050
   Max. coefficient     DIISMaxC        ....  10.000
 MO-DIIS                CNVKDIIS        .... off
 Trust-Rad. Augm. Hess. CNVTRAH         .... auto
   Auto Start mean grad. ratio tolernc. ....  1.125000
   Auto Start start iteration           ....    50
   Auto Start num. interpolation iter.  ....    10
   Max. Number of Micro iterations      ....    24
   Max. Number of Macro iterations      .... Maxiter - #DIIS iter
   Number of Davidson start vectors     ....     2
   Converg. threshold    (grad. norm)   ....   1.000e-09
   Grad. Scal. Fac. for Micro threshold ....   0.100
   Minimum threshold for Micro iter.    ....   1.000e-02
   NR start threshold (gradient norm)   ....   1.000e-04
   Initial trust radius                 ....   0.400
   Minimum AH scaling param. (alpha)    ....   1.000
   Maximum AH scaling param. (alpha)    .... 1000.000
   Quad. conv. algorithm                .... NR
   White noise on init. David. guess    .... on
   Maximum white noise                  ....   0.010
   Pseudo random numbers                .... off
   Inactive MOs                         .... canonical
   Orbital update algorithm             .... Taylor
   Preconditioner                       .... Diag
   Full preconditioner red. dimension   ....   250
 SOSCF                 CNVSOSCF           .... on
   Start iteration     SOSCFMaxIt         ....   150
   Startup grad/error  SOSCFStart         ....  0.003300
   Hessian update      SOSCFHessUp        .... L-BFGS
   Autom. constraints  SOSCFAutoConstrain .... off
 Level Shifting         CNVShift        .... on
   Level shift para.    LevelShift      ....    0.2500
   Turn off err/grad.   ShiftErr        ....    0.0010
 Zerner damping         CNVZerner       .... off
 Static damping         CNVDamp         .... on
   Fraction old density DampFac         ....    0.7000
   Max. Damping (<1)    DampMax         ....    0.9800
   Min. Damping (>=0)   DampMin         ....    0.0000
   Turn off err/grad.   DampErr         ....    0.1000

SCF Procedure:
 Maximum # iterations   MaxIter         ....   125
 SCF integral mode      SCFMode         .... Direct
   Integral package                     .... SHARK and LIBINT hybrid scheme
 Reset frequency        DirectResetFreq ....    20
 Integral Threshold     Thresh          ....  3.000e-16 Eh
 Primitive CutOff       TCut            ....  3.000e-16 Eh

Convergence Tolerance:
 Convergence Check Mode ConvCheckMode   .... All-Criteria
 Convergence forced     ConvForced      .... 0
 Energy Change          TolE            ....  1.000e-14 Eh
 Max Density Change     TolMaxP         ....  1.000e-14
 RMS Density Change     TolRMSP         ....  1.000e-14
 Orbital Gradient       TolG            ....  1.000e-09
 Orbital Rotation angle TolX            ....  1.000e-09
 DIIS Error             TolErr          ....  1.000e-14

--------------------------------
INITIAL GUESS: MINIMAL BASIS EHT
--------------------------------
The minimal basis has 36 functions
EHT matrix was diagonalized
Basis set overlap was calculated now projecting the orbitals
Using GuessMode=FMatrix for the initial guess
C*T matrix was formed
Effective Fockian was calculated
Effective Fockian was diagonalized
Initial density was built
                      ------------------
                      INITIAL GUESS DONE
                      ------------------
             **** ENERGY FILE WAS UPDATED (run.en.tmp) ****
Finished Guess after   0.7 sec
Maximum memory used throughout the entire GUESS-calculation: 6.7 MB


           ************************************************************
           *        Program running with 24 parallel MPI-processes    *
           *              working on a common directory               *
           ************************************************************

-------------------------------------------------------------------------------------------
                                      ORCA LEAN-SCF
                              memory conserving SCF solver
-------------------------------------------------------------------------------------------

--------------------
CPCM SOLVATION MODEL
--------------------
CPCM parameters:
  Epsilon                                         ...       1.9578
  Refrac                                          ...       1.0000
  Rsolv                                           ...       1.3000
  Surface type                                    ... GAUSSIAN VDW
  Discretization scheme                           ... Constant charge density
    Threshold for H atoms                         ...       5.0000 (charges/Ang^2)
    Threshold for non-H atoms                     ...       5.0000 (charges/Ang^2)
  Epsilon function type                           ...         CPCM
Solvent:                                          ... CUSTOM
Radii:
  Scheme                                          ... Element-dependent radii
  Radius for Al used is    4.1725 Bohr (=   2.2080 Ang.)
  Radius for H  used is    2.4944 Bohr (=   1.3200 Ang.)
Calculating surface                               ...        done! (  0.0s)
Cavity surface points                             ...         1106
Cavity Volume                                     ...     921.1174
Cavity Surface-area                               ...     550.4684
Calculating surface distance matrix               ...        done! (  0.0s)
Performing Cholesky decomposition & store         ...        done! (  0.1s)
Overall time for CPCM initialization              ...                 0.1s

----------------------------------------D-I-I-S--------------------------------------------
Iteration    Energy (Eh)           Delta-E    RMSDP     MaxDP     DIISErr   Damp  Time(sec)
-------------------------------------------------------------------------------------------
               ***  Starting incremental Fock matrix formation  ***
    1    -730.6586498462319241     0.00e+00  4.92e-02  9.37e-02  3.40e-01  0.700   0.6
    2    -730.9802616505047581    -3.22e-01  4.09e-02  7.44e-02  2.43e-01  0.700   0.4
                               ***Turning on AO-DIIS***
    3    -731.2052381583173428    -2.25e-01  2.90e-02  4.90e-02  1.69e-01  0.700   0.4
    4    -731.3586571150318605    -1.53e-01  2.08e-02  3.36e-02  1.18e-01  0.700   0.4
    5    -731.4643930588447347    -1.06e-01  1.48e-02  2.35e-02  8.23e-02  0.700   0.4
    6    -731.5377296170501040    -7.33e-02  3.51e-02  5.50e-02  5.75e-02  0.000   0.4
                              *** Initializing SOSCF ***
---------------------------------------S-O-S-C-F--------------------------------------
Iteration    Energy (Eh)           Delta-E    RMSDP     MaxDP     MaxGrad    Time(sec)
--------------------------------------------------------------------------------------
    7    -731.7069157725455852    -1.69e-01  7.93e-04  1.58e-03  7.19e-04     0.5
               *** Restarting incremental Fock matrix formation ***
    8    -731.7069214456677173    -5.67e-06  5.43e-04  1.43e-03  2.93e-04     0.5
    9    -731.7069244459964921    -3.00e-06  1.39e-04  3.65e-04  5.71e-05     0.5
   10    -731.7069245736811354    -1.28e-07  5.83e-06  1.37e-05  3.36e-06     0.5
   11    -731.7069245741590748    -4.78e-10  1.48e-06  2.39e-06  1.02e-06     0.5
   12    -731.7069245742042085    -4.51e-11  2.63e-07  6.08e-07  1.26e-07     0.5
   13    -731.7069245741962504     7.96e-12  3.34e-08  6.05e-08  1.92e-08     0.5
   14    -731.7069245741964778    -2.27e-13  3.53e-09  3.83e-09  3.24e-09     0.4
   15    -731.7069245741965915    -1.14e-13  0.00e+00  0.00e+00  9.82e-10     0.4
                           ***RMSP convergence achieved***
                           ***MAXP convergence achieved***
                       ***Gradient convergence achieved***
                    ***Orbital Rotation convergence achieved***
   16    -731.7069245741965915     0.00e+00  0.00e+00  0.00e+00  9.82e-10     0.2
                          ***Energy convergence achieved***

               *****************************************************
               *                     SUCCESS                       *
               *           SCF CONVERGED AFTER  16 CYCLES          *
               *****************************************************

Recomputing exchange energy using gridx3       ... done (    0.507 sec)
Old exchange energy                            :    -24.168182673 Eh
New exchange energy                            :    -24.168178916 Eh
Exchange energy change after final integration :      0.000003757 Eh
Total energy after final integration           :   -731.706920817 Eh
             **** ENERGY FILE WAS UPDATED (run.en.tmp) ****

----------------
TOTAL SCF ENERGY
----------------

Total Energy       :       -731.70692081707568 Eh          -19910.75756 eV

Components:
Nuclear Repulsion  :        170.94622527433378 Eh            4651.68328 eV
Electronic Energy  :       -902.64854756484101 Eh          -24562.31570 eV
One Electron Energy:      -1356.03095309672881 Eh          -36899.47817 eV
Two Electron Energy:        453.38240553188780 Eh           12337.16246 eV
CPCM Dielectric    :         -0.00460228368932 Eh              -0.12523 eV

Virial components:
Potential Energy   :      -1461.73073777149966 Eh          -39775.71553 eV
Kinetic Energy     :        730.02381695442386 Eh           19864.95797 eV
Virial Ratio       :          2.00230554650898

DFT components:
N(Alpha)           :       24.000002608465 electrons
N(Beta)            :       24.000002608465 electrons
N(Total)           :       48.000005216931 electrons
E(X)               :      -32.144986895020 Eh       
E(C)               :       -2.217598416249 Eh       
E(XC)              :      -34.362585311269 Eh       

CPCM Solvation Model Properties:
Surface-charge          :         -0.05404040176465
Corrected charge        :          0.00000000000000
Outlying charge corr.   :          0.00011143343466 Eh               0.00303 eV
Free-energy (cav+disp)  :  This term is not implemented in the current solvation scheme

---------------
SCF CONVERGENCE
---------------

  Last Energy change         ...    0.0000e+00  Tolerance :   1.0000e-14
  Last MAX-Density change    ...    0.0000e+00  Tolerance :   1.0000e-14
  Last RMS-Density change    ...    0.0000e+00  Tolerance :   1.0000e-14
  Last DIIS Error            ...    7.1935e-04  Tolerance :   1.0000e-14
  Last Orbital Gradient      ...    9.8194e-10  Tolerance :   1.0000e-09
  Last Orbital Rotation      ...    0.0000e+00  Tolerance :   1.0000e-09


----------------
ORBITAL ENERGIES
----------------

  NO   OCC          E(Eh)            E(eV) 
   0   2.0000     -56.620575     -1540.7242 
   1   2.0000     -56.620543     -1540.7233 
   2   2.0000     -56.619952     -1540.7072 
   3   2.0000      -4.361321      -118.6776 
   4   2.0000      -4.361314      -118.6774 
   5   2.0000      -4.360635      -118.6589 
   6   2.0000      -2.852130       -77.6104 
   7   2.0000      -2.852082       -77.6091 
   8   2.0000      -2.851561       -77.5949 
   9   2.0000      -2.850656       -77.5703 
  10   2.0000      -2.850606       -77.5689 
  11   2.0000      -2.849817       -77.5475 
  12   2.0000      -2.846075       -77.4456 
  13   2.0000      -2.846065       -77.4454 
  14   2.0000      -2.845340       -77.4257 
  15   2.0000      -0.590828       -16.0772 
  16   2.0000      -0.488427       -13.2908 
  17   2.0000      -0.485753       -13.2180 
  18   2.0000      -0.394799       -10.7430 
  19   2.0000      -0.387801       -10.5526 
  20   2.0000      -0.376297       -10.2396 
  21   2.0000      -0.369364       -10.0509 
  22   2.0000      -0.357548        -9.7294 
  23   2.0000      -0.350945        -9.5497 
  24   0.0000      -0.001593        -0.0434 
  25   0.0000       0.003816         0.1038 
  26   0.0000       0.005363         0.1459 
  27   0.0000       0.024808         0.6751 
  28   0.0000       0.053103         1.4450 
  29   0.0000       0.069145         1.8815 
  30   0.0000       0.071277         1.9396 
  31   0.0000       0.101962         2.7745 
  32   0.0000       0.105814         2.8793 
  33   0.0000       0.115707         3.1486 
  34   0.0000       0.164471         4.4755 
*Only the first 10 virtual orbitals were printed.
-------
TIMINGS
-------

Total SCF time: 0 days 0 hours 0 min 8 sec 

Total time                  ....       8.814 sec
Sum of individual times     ....       8.487 sec  ( 96.3%)

SCF preparation             ....       0.828 sec  (  9.4%)
Fock matrix formation       ....       7.234 sec  ( 82.1%)
  Startup                   ....       0.010 sec  (  0.1% of F)
  Split-RI-J                ....       0.280 sec  (  3.9% of F)
  Chain of spheres X        ....       4.120 sec  ( 57.0% of F)
  XC integration            ....       1.828 sec  ( 25.3% of F)
    XC Preparation          ....       0.000 sec  (  0.0% of XC)
    Basis function eval.    ....       0.462 sec  ( 25.3% of XC)
    Density eval.           ....       0.210 sec  ( 11.5% of XC)
    XC-Functional eval.     ....       0.111 sec  (  6.1% of XC)
    XC-Potential eval.      ....       0.210 sec  ( 11.5% of XC)
  CPCM terms                ....       0.970 sec  ( 13.4% of F)
Diagonalization             ....       0.000 sec  (  0.0%)
Density matrix formation    ....       0.060 sec  (  0.7%)
Total Energy calculation    ....       0.050 sec  (  0.6%)
Population analysis         ....       0.000 sec  (  0.0%)
Orbital Transformation      ....       0.041 sec  (  0.5%)
Orbital Orthonormalization  ....       0.000 sec  (  0.0%)
DIIS solution               ....       0.153 sec  (  1.7%)
SOSCF solution              ....       0.122 sec  (  1.4%)
Finished LeanSCF after   8.9 sec

Maximum memory used throughout the entire LEANSCF-calculation: 7.8 MB


           ************************************************************
           *        Program running with 24 parallel MPI-processes    *
           *              working on a common directory               *
           ************************************************************

------------------------------------------------------------------------------
                         ORCA PROPERTY INTEGRAL CALCULATIONS
------------------------------------------------------------------------------

GBWName                                   ... run.gbw
Number of atoms                           ...     12
Number of basis functions                 ...     72
Max core memory                           ...   4096 MB

Dipole integrals                          ... YES
Quadrupole integrals                      ...  NO
Linear momentum integrals                 ...  NO
Angular momentum integrals                ...  NO
Higher moments length integrals           ...  NO
Higher moments velocity integrals         ...  NO
Kinetic energy integrals                  ...  NO
GIAO right hand sides                     ...  NO
GIAO dipole derivative integrals          ...  NO
SOC integrals                             ...  NO
EPR diamagnetic integrals (GIAO)          ...  NO
EPR gauge integrals                       ...  NO
Field gradient integrals                  ...  NO (   0 nuclei)
Spin-dipole/Fermi contact integrals       ...  NO (   0 nuclei)
Contact density integrals                 ...  NO (   0 nuclei)
Nucleus-orbit integrals                   ...  NO (   0 nuclei)
Geometric perturbations                   ...  NO (  12 nuclei)

Choice of electric origin   ... Center of mass
Position of electric origin ... (  0.0166,  0.0014,  3.1811) 
Choice of magnetic origin   ... GIAO
Position of magnetic origin ... (  0.0000,  0.0000,  0.0000) 

Calculating integrals                     ... Electric Dipole (Length)     done (  0.0 sec)

Property integrals calculated in   0.0 sec

Maximum memory used throughout the entire PROPINT-calculation: 6.8 MB


-------------------------------------------------------------------------------
                          DFT DISPERSION CORRECTION                            
                                                                               
                              DFTD3 V3.1  Rev 1                                
                          USING Becke-Johnson damping                          
-------------------------------------------------------------------------------
The PBEh-3c composite method is recognized
Using three-body term ABC
Active option DFTDOPT                   ...         4   

molecular C6(AA) [au] = 2779.581980 


            DFT-D V3
 parameters
 s6 scaling factor         :     1.0000 
 a1 scaling factor         :     0.4860 
 s8 scaling factor         :     0.0000 
 a2 scaling factor         :     4.5000 
 Damping factor alpha9(ATM):    16.0000 
 ad hoc parameters k1-k3   :    16.0000     1.3333    -4.0000 

 Edisp/kcal,au: -2.732125298640  -0.004353918339 
 E6   /kcal   :  -2.740934024 
 E8   /kcal   :  -0.000000000 
 E6(ABC)      :   0.008808725 
 % E8         :   0.000000000 
 % E6(ABC)    :  -0.322412936 

-------------------------   ----------------
Dispersion correction           -0.004353918
-------------------------   ----------------

------------------   -----------------
gCP correction             0.020331721
------------------   -----------------

-------------------------   --------------------
FINAL SINGLE POINT ENERGY      -731.690943014215
-------------------------   --------------------



           ************************************************************
           *        Program running with 24 parallel MPI-processes    *
           *              working on a common directory               *
           ************************************************************
------------------------------------------------------------------------------
                         ORCA SCF GRADIENT CALCULATION
------------------------------------------------------------------------------

Nuc. rep. gradient        (SHARK) ... done (  0.0 sec)
HCore & Overlap gradient  (SHARK) ... done (  0.0 sec)
Split-RIJ-J gradient      (SHARK) ... done (  0.2 sec)
done (  2.4 sec)
XC gradient                       ... done (  0.7 sec)
CPCM gradient                     ... done (  0.2 sec)
Dispersion correction             ... done (  0.1 sec)

-------------------
DISPERSION GRADIENT
-------------------

   1   Al  :   -0.000017449    0.000115335    0.000068131
   2   Al  :   -0.000000659   -0.000000011   -0.000135240
   3   H   :    0.000035991   -0.000042794   -0.000026844
   4   H   :   -0.000034547   -0.000019896   -0.000080095
   5   H   :   -0.000036387    0.000042885   -0.000026732
   6   H   :   -0.000040101    0.000056652    0.000040019
   7   H   :   -0.000000224    0.000000019    0.000067160
   8   H   :    0.000033758    0.000019664   -0.000080445
   9   Al  :    0.000018068   -0.000115290    0.000068544
  10   H   :    0.000040800   -0.000056476    0.000040019
  11   H   :   -0.000040542   -0.000081302    0.000032982
  12   H   :    0.000041292    0.000081212    0.000032499

Difference to translation invariance:
           :    0.0000000000    0.0000000000    0.0000000000

Difference to rotation invariance:
           :    0.0000000000   -0.0000000000   -0.0000000000

Norm of the Dispersion gradient    ...    0.0003386238
RMS gradient                       ...    0.0000564373
MAX gradient                       ...    0.0001352402
gCP correction                   ... done

------------------
CARTESIAN GRADIENT
------------------

   1   Al  :    0.001949483   -0.000188748   -0.000967345
   2   Al  :   -0.000007194   -0.000006471    0.000348726
   3   H   :    0.004425403   -0.001182379   -0.001108804
   4   H   :   -0.002949251   -0.002305531   -0.001818284
   5   H   :   -0.004439468    0.001209656   -0.001081802
   6   H   :   -0.003467852    0.001492656    0.001781735
   7   H   :   -0.000055136   -0.000000151    0.004604465
   8   H   :    0.002937957    0.002299921   -0.001840636
   9   Al  :   -0.001914221    0.000178722   -0.000939133
  10   H   :    0.003499354   -0.001446073    0.001754619
  11   H   :   -0.003627730   -0.001870154   -0.000349130
  12   H   :    0.003648656    0.001818552   -0.000384411

Difference to translation invariance:
           :    0.0000000000    0.0000000000   -0.0000000000

Difference to rotation invariance:
           :    0.0000155246    0.0000085914   -0.0002895351

Norm of the Cartesian gradient     ...    0.0133510341
RMS gradient                       ...    0.0022251723
MAX gradient                       ...    0.0046044647

-------
TIMINGS
-------

Total SCF gradient time     ....        3.745 sec

Densities                   ....       0.000 sec  (  0.0%)
One electron gradient       ....       0.031 sec  (  0.8%)
RI-J Coulomb gradient       ....       0.221 sec  (  5.9%)
COSX gradient               ....       2.410 sec  ( 64.3%)
XC gradient                 ....       0.723 sec  ( 19.3%)
CPCM gradient               ....       0.227 sec  (  6.1%)
   A-Matrix (El+Nuc)        ....       0.006 sec  (  0.1%)
   Potential                ....       0.222 sec  (  5.9%)

Maximum memory used throughout the entire SCFGRAD-calculation: 26.5 MB
------------------------------------------------------------------------------
                         ORCA GEOMETRY RELAXATION STEP
------------------------------------------------------------------------------

Reading the OPT-File                    .... done
Getting information on internals        .... done
Copying old internal coords+grads       .... done
Making the new internal coordinates     .... (2022 redundants) done
Validating the new internal coordinates .... (2022 redundants) done
Calculating the B-matrix                .... done
Calculating the G,G- and P matrices     .... done
Transforming gradient to internals      .... done
Projecting the internal gradient        .... done
Number of atoms                         ....  12
Number of internal coordinates          .... 117
Current Energy                          ....  -731.690943014 Eh
Current gradient norm                   ....     0.013351034 Eh/bohr
Maximum allowed component of the step   ....  0.300
Current trust radius                    ....  0.300
Evaluating the initial hessian          ....  (Almloef) done
Projecting the Hessian                  .... done
Forming the augmented Hessian           .... done
Diagonalizing the augmented Hessian     .... done
Last element of RFO vector              ....  0.999002730
Lowest eigenvalues of augmented Hessian:
 -0.000504931  0.018991497  0.022459754  0.032513128  0.059310621
Length of the computed step             ....  0.044693716
The final length of the internal step   ....  0.044693716
Converting the step to Cartesian space:
 Initial RMS(Int)=    0.0041319355
Transforming coordinates:
 Iter   0:  RMS(Cart)=    0.0074191074 RMS(Int)=    0.0041327314
done
Storing new coordinates                 .... done

                                .--------------------.
          ----------------------|Geometry convergence|-------------------------
          Item                value                   Tolerance       Converged
          ---------------------------------------------------------------------
          RMS gradient        0.0011493354            0.0000080000      NO
          MAX gradient        0.0041647223            0.0000300000      NO
          RMS step            0.0041319355            0.0001000000      NO
          MAX step            0.0116797474            0.0002000000      NO
          -------------------------------------------------------------------------
          ........................................................
          Max(Bonds)      0.0062      Max(Angles)    0.29
          Max(Dihed)        0.29      Max(Improp)    0.00
          ---------------------------------------------------------------------

The optimization has not yet converged - more geometry cycles are needed


    ---------------------------------------------------------------------------
                         Redundant Internal Coordinates
                            (Angstroem and degrees)

        Definition                    Value    dE/dq     Step     New-Value
    ----------------------------------------------------------------------------
     1. B(Al  1,Al  0)                3.0616  0.001479 -0.0060    3.0556   
     2. B(H   2,Al  1)                1.7224  0.001700 -0.0055    1.7169   
     3. B(H   3,Al  1)                1.5866  0.004161 -0.0054    1.5812   
     4. B(H   4,Al  1)                1.7225  0.001852 -0.0055    1.7170   
     5. B(H   4,Al  0)                1.7218  0.002039 -0.0057    1.7161   
     6. B(H   5,Al  0)                1.5870  0.004165 -0.0054    1.5815   
     7. B(H   6,Al  0)                1.7157  0.002152 -0.0054    1.7102   
     8. B(H   7,Al  1)                1.5865  0.004159 -0.0054    1.5811   
     9. B(Al  8,H   6)                1.7157  0.002125 -0.0054    1.7103   
    10. B(Al  8,H   2)                1.7218  0.001885 -0.0057    1.7161   
    11. B(Al  8,Al  1)                3.0654  0.001528 -0.0061    3.0593   
    12. B(Al  8,Al  0)                3.0731  0.001488 -0.0062    3.0669   
    13. B(H   9,Al  8)                1.5870  0.004163 -0.0054    1.5815   
    14. B(H  10,Al  8)                1.5876  0.004071 -0.0053    1.5823   
    15. B(H  11,Al  0)                1.5876  0.004070 -0.0053    1.5823   
    16. A(H   4,Al  0,H   6)           98.07  0.000974   -0.14     97.93   
    17. A(Al  1,Al  0,H   4)           27.27  0.000649   -0.14     27.13   
    18. A(Al  1,Al  0,Al  8)           59.96  0.000009   -0.00     59.96   
    19. A(Al  8,Al  0,H  11)          103.56  0.000214   -0.04    103.51   
    20. A(H   4,Al  0,H   5)          104.39 -0.000833    0.16    104.55   
    21. A(H   6,Al  0,H  11)          106.76  0.000199   -0.05    106.72   
    22. A(Al  1,Al  0,H   5)          131.49 -0.000192    0.01    131.51   
    23. A(Al  1,Al  0,H  11)           88.77  0.000182   -0.02     88.75   
    24. A(H   5,Al  0,H  11)          128.91  0.000002    0.02    128.93   
    25. A(H   5,Al  0,H   6)          105.87 -0.000664    0.11    105.98   
    26. A(H   4,Al  0,Al  8)           74.23  0.000360   -0.05     74.18   
    27. A(Al  1,Al  0,H   6)           86.37  0.000819   -0.13     86.24   
    28. A(H   5,Al  0,Al  8)          122.49 -0.000181    0.02    122.51   
    29. A(H   4,Al  0,H  11)          108.63  0.000610   -0.14    108.49   
    30. A(H   6,Al  0,Al  8)           26.42  0.000810   -0.13     26.28   
    31. A(H   2,Al  1,H   7)          104.75 -0.000443    0.08    104.83   
    32. A(H   3,Al  1,H   4)          104.75 -0.000539    0.08    104.83   
    33. A(Al  0,Al  1,H   3)          127.35  0.000044   -0.05    127.30   
    34. A(H   2,Al  1,H   4)           95.86  0.000963   -0.18     95.67   
    35. A(H   4,Al  1,Al  8)           74.45  0.000365   -0.05     74.40   
    36. A(H   3,Al  1,Al  8)           98.63 -0.000032    0.02     98.65   
    37. A(H   2,Al  1,H   3)          109.38  0.000145   -0.03    109.35   
    38. A(H   2,Al  1,Al  8)           27.12  0.000575   -0.14     26.98   
    39. A(Al  0,Al  1,Al  8)           60.21 -0.000004   -0.00     60.21   
    40. A(H   7,Al  1,Al  8)          127.33  0.000044   -0.05    127.28   
    41. A(Al  0,Al  1,H   4)           27.26  0.000679   -0.15     27.11   
    42. A(H   4,Al  1,H   7)          109.37  0.000212   -0.03    109.34   
    43. A(Al  0,Al  1,H   7)           98.69 -0.000022    0.03     98.72   
    44. A(Al  0,Al  1,H   2)           74.24  0.000321   -0.06     74.18   
    45. A(H   3,Al  1,H   7)          128.10 -0.000010    0.02    128.12   
    46. A(Al  1,H   2,Al  8)          125.75 -0.001121    0.28    126.04   
    47. A(Al  0,H   4,Al  1)          125.47 -0.001328    0.29    125.76   
    48. A(Al  0,H   6,Al  8)          127.17 -0.001624    0.27    127.43   
    49. A(Al  1,Al  8,H   2)           27.13  0.000546   -0.14     26.99   
    50. A(Al  0,Al  8,H   2)           73.91  0.000305   -0.05     73.86   
    51. A(Al  0,Al  8,Al  1)           59.84 -0.000005    0.00     59.84   
    52. A(H   6,Al  8,H  10)          106.68  0.000106   -0.04    106.63   
    53. A(H   2,Al  8,H  10)          108.66  0.000494   -0.13    108.52   
    54. A(Al  1,Al  8,H  10)           89.05  0.000139   -0.02     89.02   
    55. A(Al  0,Al  8,H  10)          104.32  0.000141   -0.04    104.28   
    56. A(H   6,Al  8,H   9)          105.96 -0.000535    0.10    106.07   
    57. A(H   9,Al  8,H  10)          128.90 -0.000002    0.02    128.92   
    58. A(H   2,Al  8,H   9)          104.36 -0.000735    0.16    104.51   
    59. A(Al  1,Al  8,H   9)          131.29 -0.000194    0.01    131.30   
    60. A(Al  0,Al  8,H   9)          121.86 -0.000079    0.02    121.88   
    61. A(H   2,Al  8,H   6)           98.11  0.000963   -0.15     97.96   
    62. A(Al  1,Al  8,H   6)           86.25  0.000809   -0.13     86.12   
    63. A(Al  0,Al  8,H   6)           26.42  0.000814   -0.13     26.28   
    64. D(H   2,Al  1,Al  0,H   4)   -141.19 -0.000414    0.05   -141.14   
    65. D(H   3,Al  1,Al  0,H   6)     76.89 -0.000099    0.07     76.96   
    66. D(H   3,Al  1,Al  0,H   5)    -31.16  0.000096    0.05    -31.11   
    67. D(H   3,Al  1,Al  0,Al  8)     77.32 -0.000085    0.07     77.39   
    68. D(H   2,Al  1,Al  0,Al  8)    -25.30 -0.000493    0.14    -25.15   
    69. D(H   3,Al  1,Al  0,H   4)    -38.57 -0.000006   -0.02    -38.60   
    70. D(H   2,Al  1,Al  0,H   6)    -25.72 -0.000508    0.14    -25.58   
    71. D(H   2,Al  1,Al  0,H   5)   -133.77 -0.000312    0.12   -133.66   
    72. D(H   2,Al  1,Al  0,H  11)     81.16 -0.000356    0.10     81.26   
    73. D(H   3,Al  1,Al  0,H  11)   -176.22  0.000053    0.03   -176.19   
    74. D(Al  8,H   2,Al  1,H   7)    149.50  0.000056   -0.03    149.46   
    75. D(Al  8,H   2,Al  1,H   3)    -70.24 -0.000221    0.03    -70.20   
    76. D(Al  8,H   2,Al  1,Al  0)     54.44 -0.000113   -0.03     54.41   
    77. D(Al  8,H   2,Al  1,H   4)     37.67 -0.000385    0.04     37.71   
    78. D(Al  1,H   4,Al  0,H   5)   -174.27  0.000074    0.06   -174.22   
    79. D(Al  0,H   4,Al  1,H   7)    -70.57 -0.000203    0.02    -70.56   
    80. D(Al  0,H   4,Al  1,Al  8)     54.13 -0.000090   -0.05     54.09   
    81. D(Al  0,H   4,Al  1,H   3)    149.17  0.000101   -0.05    149.11   
    82. D(Al  0,H   4,Al  1,H   2)     37.33 -0.000248    0.02     37.35   
    83. D(Al  1,H   4,Al  0,H  11)     45.29  0.000277    0.01     45.31   
    84. D(Al  1,H   4,Al  0,Al  8)    -54.02  0.000080    0.04    -53.97   
    85. D(Al  1,H   4,Al  0,H   6)    -65.51 -0.000515    0.16    -65.35   
    86. D(Al  8,H   6,Al  0,H   4)     25.53  0.000668   -0.16     25.37   
    87. D(Al  8,H   6,Al  0,Al  1)      0.83  0.000005   -0.00      0.83   
    88. D(Al  8,H   6,Al  0,H   5)    133.07 -0.000044   -0.01    133.06   
    89. D(Al  8,H   6,Al  0,H  11)    -86.78 -0.000420    0.06    -86.73   
    90. D(Al  1,Al  8,Al  0,H  11)    -80.50 -0.000089   -0.00    -80.51   
    91. D(Al  1,Al  8,Al  0,H   6)    179.04 -0.000007    0.00    179.04   
    92. D(Al  1,Al  8,Al  0,H   5)    122.62 -0.000180    0.01    122.63   
    93. D(H   2,Al  8,Al  0,Al  1)     25.35  0.000469   -0.14     25.21   
    94. D(Al  1,Al  8,Al  0,H   4)     25.36  0.000567   -0.15     25.21   
    95. D(H   9,Al  8,H   6,Al  0)    131.16 -0.000036   -0.01    131.15   
    96. D(H   2,Al  8,H   6,Al  0)     23.63  0.000544   -0.15     23.48   
    97. D(Al  1,Al  8,H   6,Al  0)     -0.83 -0.000005    0.00     -0.83   
    98. D(H  10,Al  8,H   2,Al  1)     45.77  0.000236   -0.00     45.77   
    99. D(H   9,Al  8,H   2,Al  1)   -173.83  0.000016    0.04   -173.78   
   100. D(H   6,Al  8,H   2,Al  1)    -64.97 -0.000418    0.14    -64.83   
   101. D(H   6,Al  8,Al  1,H   2)    115.98 -0.000010    0.08    116.06   
   102. D(H   6,Al  8,Al  1,Al  0)      0.43  0.000015   -0.00      0.43   
   103. D(H   2,Al  8,Al  1,H   7)    -38.12 -0.000044    0.00    -38.12   
   104. D(H   2,Al  8,Al  1,H   4)   -140.88 -0.000569    0.07   -140.80   
   105. D(H   2,Al  8,Al  1,H   3)    116.12 -0.000048   -0.00    116.11   
   106. D(H   2,Al  8,Al  1,Al  0)   -115.55  0.000025   -0.08   -115.63   
   107. D(Al  0,Al  8,Al  1,H   7)     77.43 -0.000069    0.08     77.51   
   108. D(Al  0,Al  8,Al  1,H   4)    -25.32 -0.000594    0.15    -25.17   
   109. D(Al  0,Al  8,H   2,Al  1)    -54.27  0.000110    0.03    -54.24   
   110. D(Al  0,Al  8,Al  1,H   3)   -128.33 -0.000073    0.08   -128.26   
   111. D(Al  0,Al  8,Al  1,H   2)    115.55 -0.000025    0.08    115.63   
   112. D(H   6,Al  8,Al  0,Al  1)   -179.04  0.000007   -0.00   -179.04   
   113. D(H   2,Al  8,Al  0,H  11)    -55.15  0.000380   -0.14    -55.30   
   114. D(H   2,Al  8,Al  0,H   6)   -155.61  0.000462   -0.14   -155.75   
   115. D(H   2,Al  8,Al  0,H   5)    147.97  0.000289   -0.13    147.84   
   116. D(H  10,Al  8,H   6,Al  0)    -88.71 -0.000387    0.06    -88.65   
   117. D(H   2,Al  8,Al  0,H   4)     50.71  0.001036   -0.29     50.43   
    ----------------------------------------------------------------------------

Geometry step timings:
Preparation and reading OPT file:      0.000 s ( 0.648 %)
Internal coordinates            :      0.000 s ( 0.980 %)
B/P matrices and projection     :      0.002 s (29.689 %)
Hessian update/contruction      :      0.001 s (15.109 %)
Making the step                 :      0.002 s (34.741 %)
Converting the step to Cartesian:      0.000 s ( 3.016 %)
Storing new data                :      0.000 s ( 0.754 %)
Checking convergence            :      0.000 s ( 0.829 %)
Final printing                  :      0.001 s (14.219 %)
Total time                      :      0.007 s

Time for energy+gradient        :     20.701 s
Time for complete geometry iter :     21.469 s

         *************************************************************
         *                GEOMETRY OPTIMIZATION CYCLE   2            *
         *************************************************************
---------------------------------
CARTESIAN COORDINATES (ANGSTROEM)
---------------------------------
  Al    -0.229744    1.515510    2.563582
  Al     0.000114   -0.000514   -0.079417
  H      0.866618   -0.933622    1.072137
  H     -1.101534   -0.904629   -0.764278
  H     -0.857153    0.939073    1.073931
  H     -1.469944    2.178564    3.287146
  H      0.004081    0.000999    3.322893
  H      1.096215    0.899932   -0.777837
  Al     0.255862   -1.512728    2.567646
  H      1.509614   -2.156656    3.285108
  H     -1.175981   -2.137902    2.317636
  H      1.208793    2.120283    2.301813

----------------------------
CARTESIAN COORDINATES (A.U.)
----------------------------
  NO LB      ZA    FRAG     MASS         X           Y           Z
   0 Al   13.0000    0    26.982   -0.434153    2.863899    4.844468
   1 Al   13.0000    0    26.982    0.000215   -0.000970   -0.150077
   2 H     1.0000    0     1.008    1.637671   -1.764290    2.026046
   3 H     1.0000    0     1.008   -2.081598   -1.709501   -1.444276
   4 H     1.0000    0     1.008   -1.619784    1.774591    2.029436
   5 H     1.0000    0     1.008   -2.777791    4.116890    6.211806
   6 H     1.0000    0     1.008    0.007712    0.001887    6.279357
   7 H     1.0000    0     1.008    2.071546    1.700625   -1.469900
   8 Al   13.0000    0    26.982    0.483509   -2.858641    4.852148
   9 H     1.0000    0     1.008    2.852757   -4.075490    6.207954
  10 H     1.0000    0     1.008   -2.222282   -4.040049    4.379698
  11 H     1.0000    0     1.008    2.284287    4.006755    4.349797

--------------------------------
INTERNAL COORDINATES (ANGSTROEM)
--------------------------------
 Al     0   0   0     0.000000000000     0.00000000     0.00000000
 Al     1   0   0     3.055586450548     0.00000000     0.00000000
 H      2   1   0     1.716857364697    74.18425271     0.00000000
 H      2   1   3     1.581166495023   127.29638546   102.54454291
 H      1   2   3     1.716094811948    27.12790376   218.85879402
 H      1   2   3     1.581544431889   131.50812670   226.34379827
 H      1   2   3     1.710254503030    86.23750164   334.42045494
 H      2   1   3     1.581148252374    98.72379125   256.96006361
 Al     7   1   2     1.710309861177   127.43323444     0.83174922
 H      9   7   1     1.581546639608   106.06525339   131.15207789
 H      9   7   1     1.582252141072   106.63397971   271.35396031
 H      1   2   3     1.582295980612    88.74773764    81.26325936

---------------------------
INTERNAL COORDINATES (A.U.)
---------------------------
 Al     0   0   0     0.000000000000     0.00000000     0.00000000
 Al     1   0   0     5.774221570056     0.00000000     0.00000000
 H      2   1   0     3.244390230284    74.18425271     0.00000000
 H      2   1   3     2.987971647725   127.29638546   102.54454291
 H      1   2   3     3.242949214426    27.12790376   218.85879402
 H      1   2   3     2.988685844898   131.50812670   226.34379827
 H      1   2   3     3.231912630033    86.23750164   334.42045494
 H      2   1   3     2.987937174116    98.72379125   256.96006361
 Al     7   1   2     3.232017241770   127.43323444     0.83174922
 H      9   7   1     2.988690016882   106.06525339   131.15207789
 H      9   7   1     2.990023221436   106.63397971   271.35396031
 H      1   2   3     2.990106066161    88.74773764    81.26325936



           ************************************************************
           *        Program running with 24 parallel MPI-processes    *
           *              working on a common directory               *
           ************************************************************
------------------------------------------------------------------------------
                   ___                                                        
                  /   \      - P O W E R E D   B Y -                         
                 /     \                                                     
                 |  |  |   _    _      __       _____    __    __             
                 |  |  |  | |  | |    /  \     |  _  \  |  |  /  |          
                  \  \/   | |  | |   /    \    | | | |  |  | /  /          
                 / \  \   | |__| |  /  /\  \   | |_| |  |  |/  /          
                |  |  |   |  __  | /  /__\  \  |    /   |      \           
                |  |  |   | |  | | |   __   |  |    \   |  |\   \          
                \     /   | |  | | |  |  |  |  | |\  \  |  | \   \       
                 \___/    |_|  |_| |__|  |__|  |_| \__\ |__|  \__/        
                                                                              
                      - O R C A' S   B I G   F R I E N D -                    
                                      &                                       
                       - I N T E G R A L  F E E D E R -                       
                                                                              
 v1 FN, 2020, v2 2021, v3 2022-2024                                           
------------------------------------------------------------------------------


[...]
      8       0.063145  -0.064169  -0.139074   0.166613   0.106647   0.061021
      9       0.166357   0.207988   0.413693  -0.265284   0.358162  -0.301159
     10       0.111471   0.138232   0.280141  -0.181282   0.246028  -0.200633
     11       0.091553   0.123304   0.237411  -0.153160   0.213838  -0.174367
     12      -0.001026  -0.005378   0.008823  -0.020875   0.003754   0.011265
     13       0.038377   0.041362  -0.077194   0.098272  -0.060542  -0.028157
     14       0.066786   0.073339  -0.132290   0.173270  -0.098822  -0.052946
     15       0.176765  -0.077632   0.270606   0.478945  -0.306528  -0.433905
     16      -0.077222   0.036020  -0.127098  -0.226450   0.147507   0.206402
     17      -0.093152   0.045487  -0.141529  -0.261202   0.162331   0.230253
     18      -0.000720  -0.029307  -0.001501  -0.001844   0.043620   0.034171
     19       0.005368   0.227860   0.011294   0.010063  -0.247218  -0.158778
     20      -0.003931  -0.000257   0.002156   0.000910   0.000149   0.000135
     21      -0.162103   0.247583  -0.386519   0.267431   0.364528  -0.287185
     22      -0.108711   0.165007  -0.262013   0.182404   0.250435  -0.191068
     23       0.092586  -0.151287   0.229907  -0.160128  -0.225678   0.172554
     24      -0.013565   0.021641   0.019307   0.020173   0.003478   0.022301
     25      -0.012223   0.004321  -0.001193  -0.005140  -0.004268  -0.001808
     26       0.000029   0.002675   0.009154   0.005698   0.004899   0.009278
     27      -0.176312  -0.041475  -0.278270  -0.449784  -0.327093  -0.463069
     28       0.073584   0.018497   0.125307   0.203808   0.150761   0.211207
     29      -0.091625  -0.026069  -0.143733  -0.242122  -0.170811  -0.242241
     30       0.559049  -0.538565  -0.268300  -0.073739   0.226295  -0.146007
     31       0.267144  -0.262901  -0.130903  -0.040674   0.108858  -0.071178
     32       0.055584  -0.055162  -0.024739  -0.006997   0.027012  -0.011510
     33      -0.582505  -0.547735   0.220008   0.068361   0.222574  -0.142459
     34      -0.268423  -0.257806   0.103366   0.036818   0.103265  -0.066800
     35       0.060547   0.058233  -0.020795  -0.006361  -0.027569   0.011835


-----------
IR SPECTRUM
-----------

 Mode   freq       eps      Int      T**2         TX        TY        TZ
       cm**-1   L/(mol*cm) km/mol    a.u.
----------------------------------------------------------------------------
  7:     95.52   0.000387    1.96  0.001265  ( 0.002522 -0.000257 -0.035483)
  8:    127.44   0.000484    2.45  0.001186  (-0.033327 -0.008641 -0.000576)
  9:    235.09   0.000817    4.13  0.001085  (-0.000093  0.000361 -0.032930)
 10:    296.53   0.003558   17.98  0.003744  (-0.054691  0.027426  0.000845)
 11:    321.21   0.000087    0.44  0.000085  (-0.000131  0.000108  0.009197)
 12:    429.05   0.001005    5.08  0.000731  ( 0.021684 -0.016155  0.000299)
 13:    441.10   0.000224    1.13  0.000158  ( 0.000213 -0.000221 -0.012576)
 14:    450.99   0.003116   15.75  0.002156  ( 0.000260 -0.000631  0.046426)
 15:    502.88   0.000012    0.06  0.000007  ( 0.002263  0.001399 -0.000490)
 16:    539.67   0.025568  129.21  0.014785  ( 0.087327 -0.084605 -0.000941)
 17:    588.69   0.054839  277.13  0.029070  (-0.000457 -0.000677  0.170497)
 18:    680.61   0.206487  1043.50  0.094675  (-0.011331 -0.307471 -0.002863)
 19:    684.00   0.144106  728.25  0.065746  (-0.002596  0.003190 -0.256376)
 20:    733.21   0.000823    4.16  0.000350  (-0.000002 -0.000623 -0.018705)
 21:    761.50   0.053280  269.25  0.021834  ( 0.082159 -0.122724  0.004776)
 22:    785.91   0.047706  241.09  0.018943  (-0.002604 -0.009995 -0.137244)
 23:    793.97   0.053700  271.38  0.021106  ( 0.092853  0.111575 -0.005968)
 24:   1032.04   0.062493  315.82  0.018896  ( 0.008177 -0.001842 -0.137209)
 25:   1043.99   0.082944  419.16  0.024793  (-0.144997  0.061091 -0.006076)
 26:   1129.19   0.000046    0.23  0.000013  ( 0.001666 -0.000780 -0.003041)
 27:   1832.96   0.007534   38.07  0.001283  ( 0.005142 -0.035428 -0.001016)
 28:   1892.77   0.316768  1600.82  0.052226  ( 0.001111  0.001419  0.228523)
 29:   1908.71   0.319460  1614.42  0.052230  ( 0.028627 -0.226733  0.001590)
 30:   2006.85   0.004749   24.00  0.000739  ( 0.001389 -0.001020 -0.027121)
 31:   2012.45   0.031376  158.56  0.004865  ( 0.060367 -0.034935 -0.000825)
 32:   2013.74   0.005138   25.96  0.000796  ( 0.002628 -0.001497  0.028055)
 33:   2017.69   0.001150    5.81  0.000178  (-0.001748 -0.000282  0.013217)
 34:   2019.13   0.016125   81.49  0.002492  (-0.046760 -0.017479  0.000368)
 35:   2020.85   0.104427  527.73  0.016126  ( 0.120309  0.040638 -0.000171)

* The epsilon (eps) is given for a Dirac delta lineshape.
** The dipole moment derivative (T) already includes vibrational overlap.

--------------
RAMAN SPECTRUM  
--------------

 Mode    freq (cm**-1)   Activity   Depolarization
-------------------------------------------------------------------
   7:        95.52      2.129277      0.708393
   8:       127.44      0.405469      0.748983
   9:       235.09      6.425628      0.749996
  10:       296.53      6.355030      0.749969
  11:       321.21     14.866641      0.385296
  12:       429.05     17.441048      0.749999
  13:       441.10     16.892634      0.749948
  14:       450.99      8.739691      0.748585
  15:       502.88      3.428180      0.749990
  16:       539.67      5.886607      0.749706
  17:       588.69      2.849689      0.194523
  18:       680.61      5.990435      0.749993
  19:       684.00     19.645919      0.745134
  20:       733.21     12.596964      0.732445
  21:       761.50     11.529542      0.750000
  22:       785.91     14.553447      0.631373
  23:       793.97      6.408651      0.748996
  24:      1032.04      9.163956      0.621086
  25:      1043.99     13.118311      0.747730
  26:      1129.19    154.209163      0.039842
  27:      1832.96      4.041362      0.750000
  28:      1892.77     15.952456      0.738990
  29:      1908.71     21.057668      0.749987
  30:      2006.85    599.733962      0.058782
  31:      2012.45     17.589057      0.663759
  32:      2013.74    213.808676      0.017307
  33:      2017.69     96.662281      0.549368
  34:      2019.13     63.787008      0.749399
  35:      2020.85     41.390978      0.749508

The first frequency considered to be a vibration is 7
The total number of vibrations considered is 29


--------------------------
THERMOCHEMISTRY AT 298.15K
--------------------------

Temperature         ...   298.15 K
Pressure            ...     1.00 atm
Total Mass          ...    90.02 AMU
Quasi RRHO          ...     True
Cut-Off Frequency   ...     1.00 cm^-1

Throughout the following assumptions are being made:
  (1) The electronic state is orbitally nondegenerate
  (2) There are no thermally accessible electronically excited states
  (3) Hindered rotations indicated by low frequency modes are not
      treated as such but are treated as vibrations and this may
      cause some error
  (4) All equations used are the standard statistical mechanics
      equations for an ideal gas
  (5) All vibrations are strictly harmonic

freq.      95.52  E(vib)   ...       0.47 
freq.     127.44  E(vib)   ...       0.43 
freq.     235.09  E(vib)   ...       0.32 
freq.     296.53  E(vib)   ...       0.27 
freq.     321.21  E(vib)   ...       0.25 
freq.     429.05  E(vib)   ...       0.18 
freq.     441.10  E(vib)   ...       0.17 
freq.     450.99  E(vib)   ...       0.17 
freq.     502.88  E(vib)   ...       0.14 
freq.     539.67  E(vib)   ...       0.12 
freq.     588.69  E(vib)   ...       0.10 
freq.     680.61  E(vib)   ...       0.08 
freq.     684.00  E(vib)   ...       0.07 
freq.     733.21  E(vib)   ...       0.06 
freq.     761.50  E(vib)   ...       0.06 
freq.     785.91  E(vib)   ...       0.05 
freq.     793.97  E(vib)   ...       0.05 
freq.    1032.04  E(vib)   ...       0.02 
freq.    1043.99  E(vib)   ...       0.02 
freq.    1129.19  E(vib)   ...       0.01 
freq.    1832.96  E(vib)   ...       0.00 
freq.    1892.77  E(vib)   ...       0.00 
freq.    1908.71  E(vib)   ...       0.00 
freq.    2006.85  E(vib)   ...       0.00 
freq.    2012.45  E(vib)   ...       0.00 
freq.    2013.74  E(vib)   ...       0.00 
freq.    2017.69  E(vib)   ...       0.00 
freq.    2019.13  E(vib)   ...       0.00 
freq.    2020.85  E(vib)   ...       0.00 

------------
INNER ENERGY
------------

The inner energy is: U= E(el) + E(ZPE) + E(vib) + E(rot) + E(trans)
    E(el)   - is the total energy from the electronic structure calculation
              = E(kin-el) + E(nuc-el) + E(el-el) + E(nuc-nuc)
    E(ZPE)  - the the zero temperature vibrational energy from the frequency calculation
    E(vib)  - the the finite temperature correction to E(ZPE) due to population
              of excited vibrational states
    E(rot)  - is the rotational thermal energy
    E(trans)- is the translational thermal energy

Summary of contributions to the inner energy U:
Electronic energy                ...   -731.69212894 Eh
Zero point energy                ...      0.06697299 Eh      42.03 kcal/mol
Thermal vibrational correction   ...      0.00483982 Eh       3.04 kcal/mol
Thermal rotational correction    ...      0.00141627 Eh       0.89 kcal/mol
Thermal translational correction ...      0.00141627 Eh       0.89 kcal/mol
-----------------------------------------------------------------------
Total thermal energy                   -731.61748358 Eh


Summary of corrections to the electronic energy:
(perhaps to be used in another calculation)
Total thermal correction                  0.00767237 Eh       4.81 kcal/mol
Non-thermal (ZPE) correction              0.06697299 Eh      42.03 kcal/mol
-----------------------------------------------------------------------
Total correction                          0.07464536 Eh      46.84 kcal/mol


--------
ENTHALPY
--------

The enthalpy is H = U + kB*T
                kB is Boltzmann's constant
Total thermal energy              ...   -731.61748358 Eh 
Thermal Enthalpy correction       ...      0.00094421 Eh       0.59 kcal/mol
-----------------------------------------------------------------------
Total Enthalpy                    ...   -731.61653937 Eh


Note: Only C1 symmetry has been detected, increase convergence thresholds 
      if your molecule has a higher symmetry. Symmetry factor of 1.0 is   
      used for the rotational entropy correction. 
 

Note: Rotational entropy computed according to Herzberg 
Infrared and Raman Spectra, Chapter V,1, Van Nostrand Reinhold, 1945 
Point Group:  C1, Symmetry Number:   1  
Rotational constants in cm-1:     0.104045     0.103128     0.055681 

Vibrational entropy computed according to the QRRHO of S. Grimme
Chem.Eur.J. 2012 18 9955 using a reference frequency of 100.0 cm-1


-------
ENTROPY
-------

The entropy contributions are T*S = T*(S(el)+S(vib)+S(rot)+S(trans))
     S(el)   - electronic entropy
     S(vib)  - vibrational entropy
     S(rot)  - rotational entropy
     S(trans)- translational entropy
The entropies will be listed as multiplied by the temperature to get
units of energy

Electronic entropy                ...      0.00000000 Eh      0.00 kcal/mol
Vibrational entropy               ...      0.00791957 Eh      4.97 kcal/mol
Rotational entropy                ...      0.01301506 Eh      8.17 kcal/mol
Translational entropy             ...      0.01872231 Eh     11.75 kcal/mol
-----------------------------------------------------------------------
Final entropy term                ...      0.03965694 Eh     24.89 kcal/mol

In case the symmetry of your molecule has not been determined correctly
or in case you have a reason to use a different symmetry number we print 
out the resulting rotational entropy values for sn=1,12:

 non-linear molecules -----------------------------------
|  sn= 1 | S(rot)=       0.01301506 Eh      8.17 kcal/mol|
|  sn= 2 | S(rot)=       0.01236061 Eh      7.76 kcal/mol|
|  sn= 3 | S(rot)=       0.01197777 Eh      7.52 kcal/mol|
|  sn= 4 | S(rot)=       0.01170615 Eh      7.35 kcal/mol|
|  sn= 5 | S(rot)=       0.01149546 Eh      7.21 kcal/mol|
|  sn= 6 | S(rot)=       0.01132332 Eh      7.11 kcal/mol|
|  sn= 7 | S(rot)=       0.01117777 Eh      7.01 kcal/mol|
|  sn= 8 | S(rot)=       0.01105169 Eh      6.94 kcal/mol|
|  sn= 9 | S(rot)=       0.01094048 Eh      6.87 kcal/mol|
|  sn=10 | S(rot)=       0.01084101 Eh      6.80 kcal/mol|
|  sn=11 | S(rot)=       0.01075102 Eh      6.75 kcal/mol|
|  sn=12 | S(rot)=       0.01066886 Eh      6.69 kcal/mol|
 linear molecules ---------------------------------------
|  Dinfh | S(rot)=       0.00805271 Eh      5.05 kcal/mol|
|  Cinfv | S(rot)=       0.00870717 Eh      5.46 kcal/mol|
 --------------------------------------------------------


-------------------
GIBBS FREE ENERGY
-------------------

The Gibbs free energy is G = H - T*S

Total enthalpy                    ...   -731.61653937 Eh 
Total entropy correction          ...     -0.03965694 Eh    -24.89 kcal/mol
-----------------------------------------------------------------------
Final Gibbs free energy         ...   -731.65619632 Eh

For completeness - the Gibbs free energy minus the electronic energy
G-E(el)                           ...      0.03593262 Eh     22.55 kcal/mol


Maximum memory used throughout the entire PROP-calculation: 26.7 MB

--------------------------------
SUGGESTED CITATIONS FOR THIS RUN
--------------------------------

Below you find a list of papers that are relevant to this ORCA run
We neither can nor want to force you to cite these papers, but we appreciate if you do
You receive ORCA, which is the product of decades of hard work by many enthusiastic individuals, for free
The only thing we kindly ask in return is that you cite our papers,
We deeply appreciate it, if you show your appreciation for ORCA by not just citing the generic ORCA reference.

Please note that relegating all ORCA citations to the supporting information does *not* help us.
SI sections are not indexed - citations you put there will not count into any citation statistics
But we need these citations in order to attract the funding resources that allow us to do what we are doing

Therefore, if you are a happy ORCA user, please consider citing a few of the papers listed below in the main body of your paper

In addition to the list printed below, the program has created the file run.bibtex that contains the list in bibtex format
You can import this file easily into all common literature databanks and citation aid programs


List of essential papers. We consider these as the minimum necessary citations

  1. Neese, F.
     Software update: the ORCA program system, version 6.0
     WIRES Comput. Molec. Sci. 2025 15(1), e70019
     doi.org/10.1002/wcms.7019

List of papers to cite with high priority. The work reported in these papers was absolutely
necessary for this run to complete.
Our perspective: the developers of density functionals and basis sets usually get cited in chemistry papers
Good! But without the algorithms to do something with them, the functionals or basis sets would not do anything.
Hence, in our opinion, the algorithm design and method developments papers are equally worthy of getting cited

  1. Neese, F.
     An improvement of the resolution of the identity approximation for the formation of the Coulomb matrix
     J. Comp. Chem. 2003 24(14), 1740-1747
     doi.org/10.1002/jcc.10318
  2. Neese, F.; Wennmohs, F.; Hansen, A.; Becker, U.
     Efficient, approximate and parallel Hartree-Fock and hybrid DFT calculations. A 'chain-of-spheres' algorithm for the Hartree-Fock exchange
     Chem. Phys. 2009 356(1-3), 98-109
     doi.org/10.1016/j.chemphys.2008.10.036
  3. Grimme, S.; Antony, J.; Ehrlich, S.; Krieg, H.
     A consistent and accurate ab initio parametrization of density functional dispersion correction (DFT-D) for the 94 elements H-Pu
     J. Chem. Phys. 2010 132 , 154104
     doi.org/10.1063/1.3382344
  4. Grimme, S.; Ehrlich, S.; Goerigk, L.
     Effect of the damping function in dispersion corrected density functional theory
     J. Comput. Chem. 2011 32(7), 1456-1465
     doi.org/10.1002/jcc.21759
  5. Bykov, D.; Petrenko, T.; Izsak, R.; Kossmann, S.; Becker, U.; Valeev, E.; Neese, F.
     Efficient implementation of the analytic second derivatives of Hartree-Fock and hybrid DFT energies: a detailed analysis of different approximations
     Molec. Phys. 2015 113 , 1961-1977
     doi.org/10.1080/00268976.2015.1025114
  6. Garcia-Rates, M.; Neese, F.
     Efficient implementation of the analytical second derivatives of hartree-fock and hybrid DFT energies within the framework of the conductor-like polarizable continuum model
     J. Comput. Chem. 2019 40 , 1816-1828
     doi.org/10.1002/jcc.25833
  7. Garcia-Rates, M.; Neese, F.
     Effect of the Solute Cavity on the Solvation Energy and its Derivatives within the Framework of the Gaussian Charge Scheme
     J. Comput. Chem. 2020 41 , 922-939
     doi.org/10.1002/jcc.26139
  8. Helmich-Paris, B.; de Souza, B.; Neese, F.; Izsák, R.
     An improved chain of spheres for exchange algorithm
     J. Chem. Phys. 2021 155(10), 104109
     doi.org/10.1063/5.0058766
  9. Neese, F.
     The SHARK Integral Generation and Digestion System
     J. Comp. Chem. 2022 44(3), 381
     doi.org/10.1002/jcc.26942
 10. Petra, P.; Frank, N.
     Efficient calculation of analytic Raman intensities
     to be submitted 2025  , 

List of suggested additional citations. These are papers that are important in the 'surrounding' of 
of this run, or papers that preceded the highly important papers. If you like your results we are grateful for a citation.

  1. Izsak, R.; Neese, F.
     An overlap fitted chain of spheres exchange method
     J. Chem. Phys. 2011 135 , 144105
     doi.org/10.1063/1.3646921
  2. Izsak, R.; Hansen, A.; Neese, F.
     The resolution of identity and chain of spheres approximations for the LPNO-CCSD singles Fock term
     Molec. Phys. 2012 110 , 2413-2417
     doi.org/10.1080/00268976.2012.687466
  3. Neese, F.
     The ORCA program system
     WIRES Comput. Molec. Sci. 2012 2(1), 73-78
     doi.org/10.1002/wcms.81
  4. Izsak, R.; Neese, F.; Klopper, W.
     Robust fitting techniques in the chain of spheres approximation to the Fock exchange: The role of the complementary space
     J. Chem. Phys. 2013 139 , 
     doi.org/10.1063/1.4819264
  5. Neese, F.
     Software update: the ORCA program system, version 4.0
     WIRES Comput. Molec. Sci. 2018 8(1), 1-6
     doi.org/10.1002/wcms.1327
  6. Neese, F.; Wennmohs, F.; Becker, U.; Riplinger, C.
     The ORCA quantum chemistry program package
     J. Chem. Phys. 2020 152(22), 224108
     doi.org/10.1063/5.0004608
  7. Neese, F.
     Software update: The ORCA program system—Version 5.0
     WIRES Comput. Molec. Sci. 2022 12(1), e1606
     doi.org/10.1002/wcms.1606

List of optional additional citations

  1. Neese, F.
     Approximate second-order SCF convergence for spin unrestricted wavefunctions
     Chem. Phys. Lett. 2000 325(1-3), 93-98
     doi.org/10.1016/s0009-2614(00)00662-x

Timings for individual modules:

Sum of individual times          ...      480.728 sec (=   8.012 min)
Startup calculation              ...      115.385 sec (=   1.923 min)  24.0 %
SCF iterations                   ...      172.247 sec (=   2.871 min)  35.8 %
Property integrals               ...       33.001 sec (=   0.550 min)   6.9 %
SCF Response                     ...        9.497 sec (=   0.158 min)   2.0 %
Property calculations            ...       54.995 sec (=   0.917 min)  11.4 %
SCF Gradient evaluation          ...       95.437 sec (=   1.591 min)  19.9 %
Geometry relaxation              ...        0.165 sec (=   0.003 min)   0.0 %
                             ****ORCA TERMINATED NORMALLY****
TOTAL RUN TIME: 0 days 0 hours 8 minutes 20 seconds 542 msec
