
                                 *****************
                                 * O   R   C   A *
                                 *****************

                                            #,                                       
                                            ###                                      
                                            ####                                     
                                            #####                                    
                                            ######                                   
                                           ########,                                 
                                     ,,################,,,,,                         
                               ,,#################################,,                 
                          ,,##########################################,,             
                       ,#########################################, ''#####,          
                    ,#############################################,,   '####,        
                  ,##################################################,,,,####,       
                ,###########''''           ''''###############################       
              ,#####''   ,,,,##########,,,,          '''####'''          '####       
            ,##' ,,,,###########################,,,                        '##       
           ' ,,###''''                  '''############,,,                           
         ,,##''                                '''############,,,,        ,,,,,,###''
      ,#''                                            '''#######################'''  
     '                                                          ''''####''''         
             ,#######,   #######,   ,#######,      ##                                
            ,#'     '#,  ##    ##  ,#'     '#,    #''#        ,####,    ,#,          
            ##       ##  ##   ,#'  ##            #'  '#       #'       ,# #          
            ##       ##  #######   ##           ,######,      #####,      #          
            '#,     ,#'  ##    ##  '#,     ,#' ,#      #,     #,   #      #          
             '#######'   ##     ##  '#######'  #'      '#     '####' #    #          



                #########################################################
                #                        -***-                          #
                #          Department of theory and spectroscopy        #
                #                                                       #
                #                      Frank Neese                      #
                #                                                       #
                #     Directorship, Architecture, Infrastructure        #
                #                    SHARK, DRIVERS                     #
                #        Core code/Algorithms in most modules           #
                #                                                       #
                #        Max Planck Institute fuer Kohlenforschung      #
                #                Kaiser Wilhelm Platz 1                 #
                #                 D-45470 Muelheim/Ruhr                 #
                #                      Germany                          #
                #                                                       #
                #                  All rights reserved                  #
                #                        -***-                          #
                #########################################################


                         Program Version 6.1.0  -  RELEASE   -
                                (GIT: $679e74b$)
                          ($2025-06-10 18:02:51 +0200$)


 With contributions from (in alphabetic order):
[Max-Planck-Institut fuer Kohlenforschung]                               
  Daniel Aravena         : Magnetic Suceptibility                        
  Michael Atanasov       : Ab Initio Ligand Field Theory (pilot matlab implementation)
  Alexander A. Auer      : GIAO ZORA, VPT2 properties, NMR spectrum      
  Ute Becker             : All parallelization in ORCA, NUMFREQ, NUMCALC 
  Giovanni Bistoni       : ED, misc. LED, open-shell LED, HFLD           
  Dmytro Bykov           : pre 5.0 version of the SCF Hessian            
  Marcos Casanova-Páez   : Triplet and SCS-CIS(D). UHF-(DLPNO)-IP/EA/STEOM-CCSD. UHF-CVS-IP/STEOM-CCSD   
  Vijay G. Chilkuri      : MRCI spin determinant printing, contributions to CSF-ICE 
  Pauline Colinet        : FMM embedding                                 
  Dipayan Datta          : RHF DLPNO-CCSD density                        
  Achintya Kumar Dutta   : EOM-CC, STEOM-CC                              
  Nicolas Foglia         : Exact transition moments, OPA infrastructure, MCD improvements    
  Dmitry Ganyushin       : Spin-Orbit,Spin-Spin,Magnetic field MRCI      
  Miquel Garcia-Rates    : C-PCM and meta-GGA Hessian, CCSD/C-PCM, Gaussian charge scheme 
  Tiago L. C. Gouveia    : GS-ROHF, GS-ROCIS                             
  Yang Guo               : DLPNO-NEVPT2, F12-NEVPT2, CIM, IAO-localization        
  Andreas Hansen         : Spin unrestricted coupled pair/coupled cluster methods 
  Ingolf Harden          : AUTO-CI MPn and infrastructure                
  Benjamin Helmich-Paris : MC-RPA, TRAH-(SCF,CASSCF), AVAS, COSX integrals, SCF dyn. polar., MC-PDFT, srDFT 
  Lee Huntington         : MR-EOM, pCC                                   
  Robert Izsak           : Overlap fitted RIJCOSX, COSX-SCS-MP3, EOM     
  Riya Kayal             : Wick's Theorem for AUTO-CI, AUTO-CI UHF-CCSDT 
  Emily Kempfer          : AUTO-CI RHF CISDT and CCSDT, approximate NEVPT4
  Christian Kollmar      : KDIIS, OOCD, Brueckner-CCSD(T), CCSD density, CASPT2, CASPT2-K, improved NEVPT2 
  Axel Koslowski         : Symmetry handling                             
  Simone Kossmann        : meta-GGA functionals, TD-DFT gradient, OOMP2, (MP2 Hessian; deprecated post 5.0) 
  Lucas Lang             : DCDCAS, Hyperfine gauge corrections, ICE-SOC+SSC
  Marvin Lechner         : AUTO-CI (C++ implementation), FIC-MRCC        
  Spencer Leger          : CASSCF response                               
  Dagmar Lenk            : GEPOL surface, SMD, ORCA-2-JSON               
  Dimitrios Liakos       : Extrapolation schemes; Compound Job, Property file
  Dimitrios Manganas     : Further ROCIS development; embedding schemes. LFT, Crystal Embedding 
  Dimitrios Pantazis     : SARC Basis sets                               
  Anastasios Papadopoulos: AUTO-CI, single reference methods and gradients 
  Taras Petrenko         : pre 6.0 DFT Hessian and TD-DFT gradient,  ECA, NRVS 
  Petra Pikulova         : Analytic Raman intensities                    
  Peter Pinski           : DLPNO-MP2, DLPNO-MP2 Gradient                 
  Shashank Vittal Rao    : ES-AILFT, MagRelax                            
  Christoph Reimann      : Effective Core Potentials                     
  Marius Retegan         : Local ZFS, SOC                                
  Christoph Riplinger    : Optimizer, TS searches, QM/MM, DLPNO-CCSD(T), (RO)-DLPNO pert. Triples 
  Michael Roemelt        : Original ROCIS implementation, recursive CI coupling coefficients
  Masaaki Saitow         : Open-shell DLPNO-CCSD energy and density      
  Barbara Sandhoefer     : DKH picture change effects                    
  Yorick L. A. Schmerwitz: GMF and freeze-and-release deltaSCF, NEB S-IDPP initial path                    
  Kantharuban Sivalingam : CASSCF convergence/infrastructure, NEVPT2, NEVPT3, NEVPT4(SD), FIC-MRCI and CEPA variants
  Bernardo de Souza      : ESD, SOC TD-DFT                               
  Georgi L. Stoychev     : AutoAux, RI-MP2 NMR, DLPNO-MP2 response, X2C  
  Van Anh Tran           : RI-MP2 g-tensors                              
  Willem Van den Heuvel  : Paramagnetic NMR                              
  Zikuan Wang            : NOTCH, Electric field optimization            
  Frank Wennmohs         : Technical directorship and infrastructure     
  Hang Xu                : AUTO-CI-Response properties                   
                                                                         
[FACCTs GmbH]                                                            
  Markus Bursch, Nicolas Foglia, Miquel Garcia-Rates, Ingolf Harden, Hagen Neugebauer, Anastasios Papadopoulos, 
  Christoph Riplinger, Bernardo de Souza, Georgi L. Stoychev                                                    
                                                                 
  APM, various basis sets, CI-OPT, improved COSX, DLPNO-Multilevel,           
  DOCKER, DRACO, updates on ESD, Fragmentator, GOAT, IRC, LR-CPCM, L-BFGS, MBIS, meta-GGA TD-DFT gradient, ML-optimized integration grids, 
  MM, NACMEs, nearIR, NEB, NEB-TS, NL-DFT gradient (VV10), 2- and 3-layer-ONIOM, interface openCOSMO-RS, QMMM,   
  Crystal-QMMM, RESP, rigid body optimization, SF, symmetry and pop. for TD-DFT, various functionals, SOLVATOR                                   
                                                                         
[Other institutions]                                                     
  V. Asgeirsson          : NEB                                           
  Christoph Bannwarth    : sTDA-DFT, sTD-DFT, PBEh-3c, B97-3c, D3        
  Giovanni Bistoni       : ETS/NOCV, ADLD/ADEX, COVALED                  
  Martin Brehm           : Molecular dynamics                            
  Ronald Cardenas        : ETS/NOCV                                      
  Martina Colucci        : COVALED                                       
  Sebastian Ehlert       : rSCAN, r2SCAN, r2SCAN-3c, D4, dhf basis sets  
  Marvin Friede          : D4 for Fr, Ra, Ac-Lr                          
  Lars Goerigk           : TD-DFT with DH, B97 family of functionals     
  Stefan Grimme          : VdW corrections, initial TS optimization, DFT functionals, gCP, sTDA/sTD-DF 
  Waldemar Hujo          : DFT-NL                                        
  H. Jonsson             : NEB                                           
  Holger Kruse           : gCP                                           
  Marcel Mueller         : wB97X-3c, vDZP basis set                      
  Hagen Neugebauer       : wr2SCAN, Native XTB                           
  Gianluca Regni         : ADLD/ADEX                                     
  Tobias Risthaus        : pre 6.0 range-separated hybrid DFT and stability analysis
  Lukas Wittmann         : regularized MP2, r2SCAN double-hybrids, wr2SCAN        
                                                                         
We gratefully acknowledge several colleagues who have allowed us to      
interface, adapt or use parts of their codes:                            
  Ed Valeev, F. Pavosevic, A. Kumar             : LibInt (2-el integral package), F12 methods 
  Garnet Chan, S. Sharma, J. Yang, R. Olivares  : DMRG                   
  Ulf Ekstrom                                   : XCFun DFT Library      
  Mihaly Kallay                                 : mrcc  (arbitrary order and MRCC methods)
  Frank Weinhold                                : gennbo (NPA and NBO analysis)           
  Simon Mueller                                 : openCOSMO-RS                            
  Christopher J. Cramer and Donald G. Truhlar   : smd solvation model                     
  S Lehtola, MJT Oliveira, MAL Marques          : LibXC Library                           
  Liviu Ungur et al                             : ANISO software                          


 Your calculation uses the libint2 library for the computation of 2-el integrals
 For citations please refer to: http://libint.valeyev.net

 Your ORCA version has been built with support for libXC version: 7.0.0
 For citations please refer to: https://libxc.gitlab.io

 This ORCA versions uses:
   CBLAS   interface :  Fast vector & matrix operations
   LAPACKE interface :  Fast linear algebra routines
   SCALAPACK package :  Parallel linear algebra routines
   Shared memory     :  Shared parallel matrices
   BLAS/LAPACK       :  OpenBLAS 0.3.29  USE64BITINT DYNAMIC_ARCH NO_AFFINITY Zen SINGLE_THREADED
        Core in use  :  Zen
   Copyright (c) 2011-2014, The OpenBLAS Project


  ***********************************
  * Starting time: Mon Jul  7 13:33:17 2025
  * Host name:     gadolinium01
  * Process ID:    3729749
  * Working dir.:  /local/scratch/mehlhorn/61507
  ***********************************



***************************************
The coordinates will be read from file: start.xyz
***************************************


Your calculation utilizes the atom-pairwise dispersion correction
with the Becke-Johnson damping scheme (D3BJ)


================================================================================

----- Orbital basis set information -----
Your calculation utilizes the basis: def-SV(P)
   H-Kr: A. Schäfer, H. Horn, R. Ahlrichs; J. Chem. Phys. 97, 2571 (1992)
   Rb-At: K. Eichkorn, F. Weigend, O. Treutler, R. Ahlrichs; Theor. Chem. Acc. 97, 119 (1997)
   Rn: F. Weigend, R. Ahlrichs; Phys. Chem. Chem. Phys. 7, 3297 (2005)
   Fr-Ra: I. S. Lim, P. Schwerdtfeger, B. Metz, H. Stoll, J. Chem. Phys. 122, 104103 (2005)
   Ac-Lr: X. Cao, M. Dolg, J. Molec. Struct. Theochem. 673 (2004)
----- AuxJ basis set information -----
Your calculation utilizes the auxiliary basis: def2/J
   H-Rn: F. Weigend, Phys. Chem. Chem. Phys. 8, 1057 (2006).
   Fr-Lr: K. Eichkorn, F. Weigend, O. Treutler, R. Ahlrichs; Theor. Chem. Acc. 97, 119 (1997).

================================================================================
                                        WARNINGS
                       Please study these warnings very carefully!
================================================================================


WARNING: Geometry Optimization
  ===> : Switching off AutoStart
         For restart on a previous wavefunction, please use MOREAD

================================================================================
                                       INPUT FILE
================================================================================
NAME = run_loose.inp
|  1> 
|  2> 
|  3> %pal nprocs 64 end
|  4> 
|  5> ! PBE 	# functional used for the MOF calculations later (non-expensive)
|  6> ! RKS	# closed shell for SBU
|  7> ! D3BJ  # better geometries at low cost
|  8> ! def-SV(P) def-ECP def2/J  	# Ahlrichs basis set with core potentials ans auxilarry basis set for coulomb integrals
|  9> ! Freq 	# Frequency analysis to check the stabiltity of the structures
| 10> 
| 11> ! NoPop # population analysis not necessary	
| 12> 
| 13> ! RI 		# speed up calculation 
| 14> ! DEFGRID2 # medium Grid
| 15> ! TightSCF # tight SCF criteria as basis for Geom.-Opt.
| 16> ! NormalOpt # normal convergence criteria for geometry optimizations
| 17> 
| 18> ! SmallPrint
| 19> 
| 20> 
| 21> * xyzFile 0 1 start.xyz # only maingroup elements H and Al so there should be no net spin
| 22> 
| 23>                          ****END OF INPUT****
================================================================================

                       *****************************
                       * Geometry Optimization Run *
                       *****************************

Geometry optimization settings:
Update method            Update   .... BFGS
Choice of coordinates    CoordSys .... (2022) Redundant Internals
Initial Hessian          InHess   .... Almloef's Model
Max. no of cycles        MaxIter  .... 60

Convergence Tolerances:
Energy Change            TolE     ....  5.0000e-06 Eh
Max. Gradient            TolMAXG  ....  3.0000e-04 Eh/bohr
RMS Gradient             TolRMSG  ....  1.0000e-04 Eh/bohr
Max. Displacement        TolMAXD  ....  4.0000e-03 bohr
RMS Displacement         TolRMSD  ....  2.0000e-03 bohr
Strict Convergence                .... False

------------------------------------------------------------------------------
                        ORCA OPTIMIZATION COORDINATE SETUP
------------------------------------------------------------------------------

The optimization will be done in redundant internal coordinates (2022)
Making redundant internal coordinates   ...  (2022 redundants) done
Evaluating the initial hessian          ...  (Almloef) done
Evaluating the coordinates              ...  done
Calculating the B-matrix                .... done
Calculating the G-matrix                .... done
The number of degrees of freedom        ....   90

    -----------------------------------------------------------------
                    Redundant Internal Coordinates


    -----------------------------------------------------------------
         Definition                    Initial Value    Approx d2E/dq
    -----------------------------------------------------------------
      1. B(C   5,N   4)                  1.4124         0.515303   
      2. B(C   6,C   5)                  1.3949         0.613692   
      3. B(C   8,C   7)                  1.3949         0.613559   
      4. B(C   8,C   5)                  1.3949         0.613753   
      5. B(C   9,C   6)                  1.3948         0.613842   
      6. B(C  10,C   9)                  1.3949         0.613546   
      7. B(C  10,C   7)                  1.3950         0.613507   
      8. B(C  11,C   6)                  1.4573         0.487903   
      9. B(C  11,O   2)                  1.2336         0.994067   
     10. B(C  11,O   0)                  1.3601         0.624463   
     11. B(C  12,C   7)                  1.4543         0.493342   
     12. B(C  12,O   3)                  1.2353         0.987721   
     13. B(C  12,O   1)                  1.3613         0.621924   
     14. B(H  13,C   8)                  1.0879         0.362936   
     15. B(H  14,C   9)                  1.0870         0.364155   
     16. B(H  15,C  10)                  1.0864         0.364887   
     17. B(H  16,N   4)                  1.0116         0.430247   
     18. B(H  17,O   2)                  2.1012         0.010000   
     19. B(H  17,N   4)                  1.0104         0.432003   
     20. B(H  18,O   0)                  0.9811         0.481241   
     21. B(H  19,O   1)                  0.9810         0.481340   
     22. A(C  11,O   0,H  18)          111.8566         0.365685   
     23. A(C  12,O   1,H  19)          111.8356         0.365442   
     24. A(C   5,N   4,H  17)          120.8523         0.347517   
     25. A(C   5,N   4,H  16)          119.7145         0.347279   
     26. A(H  16,N   4,H  17)          119.4294         0.302902   
     27. A(C   6,C   5,C   8)          120.0011         0.432480   
     28. A(N   4,C   5,C   6)          120.8938         0.416437   
     29. A(N   4,C   5,C   8)          119.1051         0.416444   
     30. A(C   9,C   6,C  11)          118.6465         0.415114   
     31. A(C   5,C   6,C  11)          121.3587         0.415095   
     32. A(C   5,C   6,C   9)          119.9947         0.432491   
     33. A(C   8,C   7,C  12)          120.0302         0.415899   
     34. A(C   8,C   7,C  10)          119.9949         0.432432   
     35. A(C  10,C   7,C  12)          119.9750         0.415892   
     36. A(C   7,C   8,H  13)          120.3573         0.352754   
     37. A(C   5,C   8,H  13)          119.6370         0.352773   
     38. A(C   5,C   8,C   7)          120.0057         0.432463   
     39. A(C   6,C   9,C  10)          120.0116         0.432473   
     40. A(C  10,C   9,H  14)          118.1903         0.352953   
     41. A(C   6,C   9,H  14)          121.7932         0.352982   
     42. A(C   9,C  10,H  15)          117.5957         0.353073   
     43. A(C   7,C  10,H  15)          122.4121         0.353069   
     44. A(C   7,C  10,C   9)          119.9919         0.432430   
     45. A(O   2,C  11,C   6)          125.3166         0.449717   
     46. A(O   0,C  11,C   6)          112.3575         0.413688   
     47. A(O   0,C  11,O   2)          122.3259         0.467299   
     48. A(O   1,C  12,O   3)          122.0972         0.466403   
     49. A(O   3,C  12,C   7)          125.4218         0.450099   
     50. A(O   1,C  12,C   7)          112.4810         0.414204   
     51. D(C   8,C   5,N   4,H  17)    179.3360         0.021037   
     52. D(C   8,C   5,N   4,H  16)      0.0537         0.021037   
     53. D(C   6,C   5,N   4,H  17)     -0.6465         0.021037   
     54. D(C   6,C   5,N   4,H  16)   -179.9289         0.021037   
     55. D(C   9,C   6,C   5,C   8)      0.0004         0.026029   
     56. D(C  11,C   6,C   5,N   4)      0.0114         0.026029   
     57. D(C  11,C   6,C   5,C   8)   -179.9710         0.026029   
     58. D(C   9,C   6,C   5,N   4)    179.9827         0.026029   
     59. D(C   5,C   8,C   7,C  12)    179.9900         0.026017   
     60. D(H  13,C   8,C   5,C   6)   -179.9990         0.026035   
     61. D(H  13,C   8,C   5,N   4)      0.0183         0.026035   
     62. D(C   5,C   8,C   7,C  10)     -0.0043         0.026017   
     63. D(C   7,C   8,C   5,N   4)   -179.9733         0.026035   
     64. D(H  13,C   8,C   7,C  10)   -179.9959         0.026017   
     65. D(H  13,C   8,C   7,C  12)     -0.0016         0.026017   
     66. D(C   7,C   8,C   5,C   6)      0.0094         0.026035   
     67. D(H  14,C   9,C   6,C  11)     -0.8698         0.026043   
     68. D(H  14,C   9,C   6,C   5)    179.1581         0.026043   
     69. D(C  10,C   9,C   6,C  11)    179.9569         0.026043   
     70. D(C  10,C   9,C   6,C   5)     -0.0153         0.026043   
     71. D(H  15,C  10,C   9,H  14)      0.6281         0.026016   
     72. D(C   7,C  10,C   9,H  14)   -179.1825         0.026016   
     73. D(C   7,C  10,C   9,C   6)      0.0203         0.026016   
     74. D(H  15,C  10,C   7,C  12)      0.1940         0.026013   
     75. D(H  15,C  10,C   7,C   8)   -179.8117         0.026013   
     76. D(H  15,C  10,C   9,C   6)    179.8310         0.026016   
     77. D(C   9,C  10,C   7,C  12)    179.9952         0.026013   
     78. D(C   9,C  10,C   7,C   8)     -0.0105         0.026013   
     79. D(O   0,C  11,C   6,C   5)    149.9118         0.016209   
     80. D(C   6,C  11,O   0,H  18)   -179.9945         0.028640   
     81. D(O   2,C  11,O   0,H  18)     -0.0445         0.028640   
     82. D(O   2,C  11,C   6,C   9)    149.9919         0.016209   
     83. D(O   2,C  11,C   6,C   5)    -30.0363         0.016209   
     84. D(O   0,C  11,C   6,C   9)    -30.0599         0.016209   
     85. D(O   3,C  12,C   7,C  10)   -179.9954         0.016574   
     86. D(O   3,C  12,C   7,C   8)      0.0103         0.016574   
     87. D(O   1,C  12,C   7,C  10)     -0.0678         0.016574   
     88. D(O   1,C  12,C   7,C   8)    179.9379         0.016574   
     89. D(C   7,C  12,O   1,H  19)   -179.9566         0.028391   
     90. D(O   3,C  12,O   1,H  19)     -0.0262         0.028391   
    -----------------------------------------------------------------

Number of atoms                         .... 20
Number of degrees of freedom            .... 90


         *************************************************************
         *                GEOMETRY OPTIMIZATION CYCLE   1            *
         *************************************************************
---------------------------------
CARTESIAN COORDINATES (ANGSTROEM)
---------------------------------
  O     -3.168900   -1.483100   -0.500700
  O      3.542900   -1.216100    0.090600
  O     -3.508000    0.536500    0.485400
  O      3.622600    1.048900   -0.081300
  N     -1.394900    2.226600   -0.153400
  C     -0.645300    1.032700   -0.065600
  C     -1.279700   -0.205900    0.029800
  C      1.506500   -0.063500    0.009600
  C      0.747700    1.103900   -0.075600
  C     -0.521000   -1.373200    0.115200
  C      0.872100   -1.302200    0.104900
  C     -2.732900   -0.314700    0.042200
  C      2.958900    0.010100   -0.001000
  H      1.236300    2.073000   -0.150200
  H     -0.984600   -2.352300    0.204100
  H      1.424100   -2.235200    0.176200
  H     -0.916400    3.115100   -0.223000
  H     -2.405100    2.205000   -0.158500
  H     -4.147700   -1.548600   -0.488700
  H      4.522000   -1.155400    0.083300

----------------------------
CARTESIAN COORDINATES (A.U.)
----------------------------
  NO LB      ZA    FRAG     MASS         X           Y           Z
   0 O     8.0000    0    15.999   -5.988353   -2.802653   -0.946186
   1 O     8.0000    0    15.999    6.695111   -2.298096    0.171209
   2 O     8.0000    0    15.999   -6.629159    1.013838    0.917273
   3 O     8.0000    0    15.999    6.845722    1.982134   -0.153635
   4 N     7.0000    0    14.007   -2.635979    4.207664   -0.289884
   5 C     6.0000    0    12.011   -1.219440    1.951520   -0.123966
   6 C     6.0000    0    12.011   -2.418283   -0.389095    0.056314
   7 C     6.0000    0    12.011    2.846872   -0.119998    0.018141
   8 C     6.0000    0    12.011    1.412948    2.086069   -0.142863
   9 C     6.0000    0    12.011   -0.984547   -2.594972    0.217696
  10 C     6.0000    0    12.011    1.648030   -2.460801    0.198232
  11 C     6.0000    0    12.011   -5.164433   -0.594697    0.079746
  12 C     6.0000    0    12.011    5.591511    0.019086   -0.001890
  13 H     1.0000    0     1.008    2.336268    3.917402   -0.283837
  14 H     1.0000    0     1.008   -1.860624   -4.445203    0.385693
  15 H     1.0000    0     1.008    2.691159   -4.223916    0.332970
  16 H     1.0000    0     1.008   -1.731745    5.886686   -0.421409
  17 H     1.0000    0     1.008   -4.544980    4.166846   -0.299522
  18 H     1.0000    0     1.008   -7.838017   -2.926430   -0.923509
  19 H     1.0000    0     1.008    8.545342   -2.183390    0.157414

--------------------------------
INTERNAL COORDINATES (ANGSTROEM)
--------------------------------
 O      0   0   0     0.000000000000     0.00000000     0.00000000
 O      1   0   0     6.743084155637     0.00000000     0.00000000
 O      1   2   0     2.272920187776    94.31685669     0.00000000
 O      2   1   3     2.272911502897    93.88354750   328.97068568
 N      3   1   2     2.780232914703   109.09119361    33.57988934
 C      5   3   1     1.412446887497    82.83320197   324.40960093
 C      6   5   3     1.394881529020   120.89381366    10.51441171
 C      2   1   3     2.341361296340    31.86909097   338.02660459
 C      6   5   3     1.394854271958   119.10505204   190.49693168
 C      7   6   5     1.394814733217   119.99472963   179.98273624
 C     10   7   6     1.394946127992   120.01160743     0.00000000
 C      3   1   2     1.233591378861    30.37590743     5.80938714
 C      4   2   1     1.235334456736    30.48813635     5.33380104
 H      9   6   5     1.087864849143   119.63700348     0.00000000
 H     10   7   6     1.086952151661   121.79315843   179.15809709
 H     11  10   7     1.086405398551   117.59570500   179.83097547
 H      5   3   1     1.011552598731   155.40689390   166.63643925
 H      5   3   1     1.010443768846    39.49355919   129.26340343
 H      1   2   3     0.981062531137   174.06291220   281.15940941
 H      2   1   3     0.981006926581   174.39754494   256.79489998

---------------------------
INTERNAL COORDINATES (A.U.)
---------------------------
 O      0   0   0     0.000000000000     0.00000000     0.00000000
 O      1   0   0    12.742582352137     0.00000000     0.00000000
 O      1   2   0     4.295196679158    94.31685669     0.00000000
 O      2   1   3     4.295180267114    93.88354750   328.97068568
 N      3   1   2     5.253878797303   109.09119361    33.57988934
 C      5   3   1     2.669137796079    82.83320197   324.40960093
 C      6   5   3     2.635944079112   120.89381366    10.51441171
 C      2   1   3     4.424531630646    31.86909097   338.02660459
 C      6   5   3     2.635892570731   119.10505204   190.49693168
 C      7   6   5     2.635817853339   119.99472963   179.98273624
 C     10   7   6     2.636066153479   120.01160743     0.00000000
 C      3   1   2     2.331149867213    30.37590743     5.80938714
 C      4   2   1     2.334443807028    30.48813635     5.33380104
 H      9   6   5     2.055766635599   119.63700348     0.00000000
 H     10   7   6     2.054041887315   121.79315843   179.15809709
 H     11  10   7     2.053008673674   117.59570500   179.83097547
 H      5   3   1     1.911557381658   155.40689390   166.63643925
 H      5   3   1     1.909461996846    39.49355919   129.26340343
 H      1   2   3     1.853939504100   174.06291220   281.15940941
 H      2   1   3     1.853834426718   174.39754494   256.79489998

---------------------
BASIS SET INFORMATION
---------------------
There are 4 groups of distinct atoms

 Group   1 Type O   : 7s4p1d contracted to 3s2p1d pattern {511/31/1}
 Group   2 Type N   : 7s4p1d contracted to 3s2p1d pattern {511/31/1}
 Group   3 Type C   : 7s4p1d contracted to 3s2p1d pattern {511/31/1}
 Group   4 Type H   : 4s contracted to 2s pattern {31}

Atom   0O    basis set group =>   1
Atom   1O    basis set group =>   1
Atom   2O    basis set group =>   1
Atom   3O    basis set group =>   1
Atom   4N    basis set group =>   2
Atom   5C    basis set group =>   3
Atom   6C    basis set group =>   3
Atom   7C    basis set group =>   3
Atom   8C    basis set group =>   3
Atom   9C    basis set group =>   3
Atom  10C    basis set group =>   3
Atom  11C    basis set group =>   3
Atom  12C    basis set group =>   3
Atom  13H    basis set group =>   4
Atom  14H    basis set group =>   4
Atom  15H    basis set group =>   4
Atom  16H    basis set group =>   4
Atom  17H    basis set group =>   4
Atom  18H    basis set group =>   4
Atom  19H    basis set group =>   4
---------------------------------
AUXILIARY/J BASIS SET INFORMATION
---------------------------------
There are 4 groups of distinct atoms

 Group   1 Type O   : 12s5p4d2f1g contracted to 6s4p3d1f1g pattern {711111/2111/211/2/1}
 Group   2 Type N   : 12s5p4d2f1g contracted to 6s4p3d1f1g pattern {711111/2111/211/2/1}
 Group   3 Type C   : 12s5p4d2f1g contracted to 6s4p3d1f1g pattern {711111/2111/211/2/1}
 Group   4 Type H   : 5s2p1d contracted to 3s1p1d pattern {311/2/1}

Atom   0O    basis set group =>   1
Atom   1O    basis set group =>   1
Atom   2O    basis set group =>   1
Atom   3O    basis set group =>   1
Atom   4N    basis set group =>   2
Atom   5C    basis set group =>   3
Atom   6C    basis set group =>   3
Atom   7C    basis set group =>   3
Atom   8C    basis set group =>   3
Atom   9C    basis set group =>   3
Atom  10C    basis set group =>   3
Atom  11C    basis set group =>   3
Atom  12C    basis set group =>   3
Atom  13H    basis set group =>   4
Atom  14H    basis set group =>   4
Atom  15H    basis set group =>   4
Atom  16H    basis set group =>   4
Atom  17H    basis set group =>   4
Atom  18H    basis set group =>   4
Atom  19H    basis set group =>   4


           ************************************************************
           *        Program running with 64 parallel MPI-processes    *
           *              working on a common directory               *
           ************************************************************
------------------------------------------------------------------------------
                             ORCA STARTUP CALCULATIONS
                           -- RI-GTO INTEGRALS CHOSEN --
------------------------------------------------------------------------------
------------------------------------------------------------------------------
                   ___                                                        
                  /   \      - P O W E R E D   B Y -                         
                 /     \                                                     
                 |  |  |   _    _      __       _____    __    __             
                 |  |  |  | |  | |    /  \     |  _  \  |  |  /  |          
                  \  \/   | |  | |   /    \    | | | |  |  | /  /          
                 / \  \   | |__| |  /  /\  \   | |_| |  |  |/  /          
                |  |  |   |  __  | /  /__\  \  |    /   |      \           
                |  |  |   | |  | | |   __   |  |    \   |  |\   \          
                \     /   | |  | | |  |  |  |  | |\  \  |  | \   \       
                 \___/    |_|  |_| |__|  |__|  |_| \__\ |__|  \__/        
                                                                              
                      - O R C A' S   B I G   F R I E N D -                    
                                      &                                       
                       - I N T E G R A L  F E E D E R -                       
                                                                              
 v1 FN, 2020, v2 2021, v3 2022-2024                                           
------------------------------------------------------------------------------


----------------------
SHARK INTEGRAL PACKAGE
----------------------

Number of atoms                             ...     20
Number of basis functions                   ...    196
Number of shells                            ...     92
Maximum angular momentum                    ...      2
Integral batch strategy                     ... SHARK/LIBINT Hybrid
RI-J (if used) integral strategy            ... SPLIT-RIJ (Revised 2003 algorithm where possible)
Printlevel                                  ...      1
Contraction scheme used                     ... SEGMENTED contraction
Prescreening option                         ... SCHWARTZ
   Thresh                                   ... 2.500e-11
   Tcut                                     ... 2.500e-12
   Tpresel                                  ... 2.500e-12 
Coulomb Range Separation                    ... NOT USED
Exchange Range Separation                   ... NOT USED
Multipole approximations                    ... NOT USED
Finite Nucleus Model                        ... NOT USED
CABS basis                                  ... NOT available
Auxiliary Coulomb fitting basis             ... AVAILABLE
   # of basis functions in Aux-J            ...    714
   # of shells in Aux-J                     ...    230
   Maximum angular momentum in Aux-J        ...      4
Auxiliary J/K fitting basis                 ... NOT available
Auxiliary Correlation fitting basis         ... NOT available
Auxiliary 'external' fitting basis          ... NOT available

Checking pre-screening integrals            ... done (  0.0 sec) Dimension = 92
   => SHARK Basis and OBASIS are compatible. Storing Pre-screening
Shell pair information
Shell pair cut-off parameter TPreSel        ...   2.5e-12
Total number of shell pairs                 ...      4278
Shell pairs after pre-screening             ...      3700
Total number of primitive shell pairs       ...     17210
Primitive shell pairs kept                  ...     10049
          la=0 lb=0:   1216 shell pairs
          la=1 lb=0:   1239 shell pairs
          la=1 lb=1:    328 shell pairs
          la=2 lb=0:    551 shell pairs
          la=2 lb=1:    295 shell pairs
          la=2 lb=2:     71 shell pairs

Checking whether 4 symmetric matrices of dimension 196 fit in memory
:Max Core in MB      =   4096.00
 MB in use           =      8.21
 MB left             =   4087.79
 MB needed           =      0.59
 Data fit in memory  = YES
Calculating RI/J V-Matrix + Cholesky decomp.... done (  0.1 sec)
Calculating Nuclear repulsion               ... done (  0.0 sec) ENN=    756.620745032797 Eh

Diagonalization of the overlap matrix:
Smallest eigenvalue                        ... 2.309e-04
Time for diagonalization                   ...    0.061 sec
Threshold for overlap eigenvalues          ... 1.000e-07
Number of eigenvalues below threshold      ... 0
Time for construction of square roots      ...    0.006 sec
Total time needed                          ...    0.070 sec

-------------------
DFT GRID GENERATION
-------------------

General Integration Accuracy     IntAcc      ... 4.388
Radial Grid Type                 RadialGrid  ... OptM3 with GC (2021)
Angular Grid (max. ang.)         AngularGrid ... 4 (Lebedev-302)
Angular grid pruning method      GridPruning ... 4 (adaptive)
Weight generation scheme         WeightScheme... mBecke (2022)
Basis function cutoff            BFCut       ... 1.0000e-11
Integration weight cutoff        WCut        ... 1.0000e-14
Partially contracted basis set               ... off
Rotationally invariant grid construction     ... off
Angular grids for H and He will be reduced by one unit

Total number of grid points                  ...   100755
Total number of batches                      ...     1587
Average number of points per batch           ...       63
Average number of grid points per atom       ...     5038
Grids setup in   0.8 sec
Initializing property integral containers    ... done (  0.0 sec)

SHARK setup successfully completed in   1.6 seconds

Maximum memory used throughout the entire STARTUP-calculation: 25.0 MB


           ************************************************************
           *        Program running with 64 parallel MPI-processes    *
           *              working on a common directory               *
           ************************************************************
-------------------------------------------------------------------------------
                                 ORCA GUESS
                   Start orbitals & Density for SCF / CASSCF
-------------------------------------------------------------------------------

------------
SCF SETTINGS
------------
Hamiltonian:
 Density Functional     Method          .... DFT(GTOs)
 Exchange Functional    Exchange        .... PBE
   PBE kappa parameter   XKappa         ....  0.804000
   PBE mue parameter    XMuePBE         ....  0.219520
 Correlation Functional Correlation     .... PBE
   PBE beta parameter  CBetaPBE         ....  0.066725
 LDA part of GGA corr.  LDAOpt          .... PW91-LDA
 Gradients option       PostSCFGGA      .... off
   NL short-range parameter             ....  6.400000
 RI-approximation to the Coulomb term is turned on
   Number of AuxJ basis functions       .... 714


General Settings:
 Integral files         IntName         .... run_loose
 Hartree-Fock type      HFTyp           .... RHF
 Total Charge           Charge          ....    0
 Multiplicity           Mult            ....    1
 Number of Electrons    NEL             ....   94
 Basis Dimension        Dim             ....  196
 Nuclear Repulsion      ENuc            ....    756.6207450328 Eh

Convergence Acceleration:
 AO-DIIS                CNVDIIS         .... on
   Start iteration      DIISMaxIt       ....    12
   Startup error        DIISStart       ....  0.200000
   # of expansion vecs  DIISMaxEq       ....     5
   Bias factor          DIISBfac        ....   1.050
   Max. coefficient     DIISMaxC        ....  10.000
 MO-DIIS                CNVKDIIS        .... off
 Trust-Rad. Augm. Hess. CNVTRAH         .... auto
   Auto Start mean grad. ratio tolernc. ....  1.125000
   Auto Start start iteration           ....    50
   Auto Start num. interpolation iter.  ....    10
   Max. Number of Micro iterations      ....    24
   Max. Number of Macro iterations      .... Maxiter - #DIIS iter
   Number of Davidson start vectors     ....     2
   Converg. threshold    (grad. norm)   ....   1.000e-05
   Grad. Scal. Fac. for Micro threshold ....   0.100
   Minimum threshold for Micro iter.    ....   1.000e-02
   NR start threshold (gradient norm)   ....   1.000e-04
   Initial trust radius                 ....   0.400
   Minimum AH scaling param. (alpha)    ....   1.000
   Maximum AH scaling param. (alpha)    .... 1000.000
   Quad. conv. algorithm                .... NR
   White noise on init. David. guess    .... on
   Maximum white noise                  ....   0.010
   Pseudo random numbers                .... off
   Inactive MOs                         .... canonical
   Orbital update algorithm             .... Taylor
   Preconditioner                       .... Diag
   Full preconditioner red. dimension   ....   250
 SOSCF                 CNVSOSCF           .... on
   Start iteration     SOSCFMaxIt         ....   150
   Startup grad/error  SOSCFStart         ....  0.003300
   Hessian update      SOSCFHessUp        .... L-BFGS
   Autom. constraints  SOSCFAutoConstrain .... off
 Level Shifting         CNVShift        .... on
   Level shift para.    LevelShift      ....    0.2500
   Turn off err/grad.   ShiftErr        ....    0.0010
 Zerner damping         CNVZerner       .... off
 Static damping         CNVDamp         .... on
   Fraction old density DampFac         ....    0.7000
   Max. Damping (<1)    DampMax         ....    0.9800
   Min. Damping (>=0)   DampMin         ....    0.0000
   Turn off err/grad.   DampErr         ....    0.1000

SCF Procedure:
 Maximum # iterations   MaxIter         ....   125
 SCF integral mode      SCFMode         .... Direct
   Integral package                     .... SHARK and LIBINT hybrid scheme
 Reset frequency        DirectResetFreq ....    20
 Integral Threshold     Thresh          ....  2.500e-11 Eh
 Primitive CutOff       TCut            ....  2.500e-12 Eh

Convergence Tolerance:
 Convergence Check Mode ConvCheckMode   .... Total+1el-Energy
 Convergence forced     ConvForced      .... 0
 Energy Change          TolE            ....  1.000e-08 Eh
 1-El. energy change                    ....  1.000e-05 Eh
 Orbital Gradient       TolG            ....  1.000e-05
 Orbital Rotation angle TolX            ....  1.000e-05
 DIIS Error             TolErr          ....  5.000e-07

------------------------------
INITIAL GUESS: MODEL POTENTIAL
------------------------------
Loading Hartree-Fock densities                     ... done
Calculating cut-offs                               ... done
Initializing the effective Hamiltonian             ... done
Setting up the integral package (SHARK)            ... done
Starting the Coulomb interaction                   ... done (   0.2 sec)
Making the grid                                    ... done (   0.2 sec)
Mapping shells                                     ... done
Starting the XC term evaluation                    ... done (   0.0 sec)
  promolecular density results
     # of electrons  =     93.995170028
     EX              =    -82.146818043
     EC              =     -3.173729465
     EX+EC           =    -85.320547509
Transforming the Hamiltonian                       ... done (   0.0 sec)
Diagonalizing the Hamiltonian                      ... done (   0.0 sec)
Back transforming the eigenvectors                 ... done (   0.0 sec)
Now organizing SCF variables                       ... done
                      ------------------
                      INITIAL GUESS DONE (   0.4 sec)
                      ------------------
             **** ENERGY FILE WAS UPDATED (run_loose.en.tmp) ****
Finished Guess after   1.8 sec
Maximum memory used throughout the entire GUESS-calculation: 10.8 MB


           ************************************************************
           *        Program running with 64 parallel MPI-processes    *
           *              working on a common directory               *
           ************************************************************

-------------------------------------------------------------------------------------------
                                      ORCA LEAN-SCF
                              memory conserving SCF solver
-------------------------------------------------------------------------------------------

----------------------------------------D-I-I-S--------------------------------------------
Iteration    Energy (Eh)           Delta-E    RMSDP     MaxDP     DIISErr   Damp  Time(sec)
-------------------------------------------------------------------------------------------
               ***  Starting incremental Fock matrix formation  ***
    1    -663.1472779277773952     0.00e+00  3.65e-02  1.51e-01  2.48e-01  0.700   0.5
Warning: op=0 Small HOMO/LUMO gap (   0.076) - skipping pre-diagonalization
         Will do a full diagonalization
    2    -663.3271695012583677    -1.80e-01  1.97e-02  7.34e-02  8.98e-02  0.700   0.2
                               ***Turning on AO-DIIS***
    3    -663.3822332032716531    -5.51e-02  7.18e-03  1.68e-02  3.05e-02  0.700   0.1
    4    -663.4174465467590380    -3.52e-02  1.02e-02  2.37e-02  1.35e-02  0.000   0.1
    5    -663.4987856462894342    -8.13e-02  3.27e-03  8.03e-03  9.45e-03  0.000   0.1
                              *** Initializing SOSCF ***
---------------------------------------S-O-S-C-F--------------------------------------
Iteration    Energy (Eh)           Delta-E    RMSDP     MaxDP     MaxGrad    Time(sec)
--------------------------------------------------------------------------------------
    6    -663.4994768024009772    -6.91e-04  1.17e-03  2.74e-03  2.89e-03     0.2
               *** Restarting incremental Fock matrix formation ***
    7    -663.4995307057856735    -5.39e-05  8.99e-04  3.48e-03  5.57e-04     0.1
    8    -663.4994953169946257     3.54e-05  6.16e-04  2.78e-03  1.63e-03     0.1
    9    -663.4995415983401017    -4.63e-05  3.58e-04  1.02e-03  1.45e-04     0.1
   10    -663.4995376416336512     3.96e-06  2.30e-04  9.58e-04  3.43e-04     0.1
   11    -663.4995429844639148    -5.34e-06  8.11e-05  2.77e-04  4.46e-05     0.1
   12    -663.4995428744200581     1.10e-07  4.58e-05  1.60e-04  6.79e-05     0.1
   13    -663.4995430561816647    -1.82e-07  3.90e-05  1.23e-04  1.81e-05     0.1
   14    -663.4995430196047437     3.66e-08  2.40e-05  7.91e-05  3.21e-05     0.2
   15    -663.4995430748033414    -5.52e-08  1.41e-05  5.48e-05  8.16e-06     0.2
   16    -663.4995430653239055     9.48e-09  9.93e-06  3.63e-05  1.66e-05     0.2
                 **** Energy Check signals convergence ****

               *****************************************************
               *                     SUCCESS                       *
               *           SCF CONVERGED AFTER  16 CYCLES          *
               *****************************************************

             **** ENERGY FILE WAS UPDATED (run_loose.en.tmp) ****

----------------
TOTAL SCF ENERGY
----------------

Total Energy       :       -663.49954307639723 Eh          -18054.74045 eV

Components:
Nuclear Repulsion  :        756.62074503279678 Eh           20588.69718 eV
Electronic Energy  :      -1420.12028810919401 Eh          -38643.43763 eV
One Electron Energy:      -2407.53565544214644 Eh          -65512.37577 eV
Two Electron Energy:        987.41536733295243 Eh           26868.93814 eV

Virial components:
Potential Energy   :      -1321.71985870888329 Eh          -35965.82582 eV
Kinetic Energy     :        658.22031563248595 Eh           17911.08537 eV
Virial Ratio       :          2.00802045655312

DFT components:
N(Alpha)           :       47.000011757296 electrons
N(Beta)            :       47.000011757296 electrons
N(Total)           :       94.000023514591 electrons
E(X)               :      -83.272391730852 Eh       
E(C)               :       -3.198889498332 Eh       
E(XC)              :      -86.471281229184 Eh       

---------------
SCF CONVERGENCE
---------------

  Last Energy change         ...   -9.4794e-09  Tolerance :   1.0000e-08
  Last MAX-Density change    ...    3.6286e-05  Tolerance :   1.0000e-07
  Last RMS-Density change    ...    9.9318e-06  Tolerance :   5.0000e-09
  Last DIIS Error            ...    2.8949e-03  Tolerance :   5.0000e-07
  Last Orbital Gradient      ...    1.6554e-05  Tolerance :   1.0000e-05
  Last Orbital Rotation      ...    3.3955e-05  Tolerance :   1.0000e-05


----------------
ORBITAL ENERGIES
----------------

  NO   OCC          E(Eh)            E(eV) 
   0   2.0000     -18.805168      -511.7146 
   1   2.0000     -18.799720      -511.5664 
   2   2.0000     -18.750658      -510.2313 
   3   2.0000     -18.741873      -509.9923 
   4   2.0000     -14.002236      -381.0202 
   5   2.0000     -10.024564      -272.7823 
   6   2.0000     -10.017583      -272.5923 
   7   2.0000      -9.955730      -270.9092 
   8   2.0000      -9.917212      -269.8611 
   9   2.0000      -9.913381      -269.7568 
  10   2.0000      -9.907374      -269.5934 
  11   2.0000      -9.904513      -269.5155 
  12   2.0000      -9.896102      -269.2866 
  13   2.0000      -1.002373       -27.2760 
  14   2.0000      -0.995365       -27.0853 
  15   2.0000      -0.914646       -24.8888 
  16   2.0000      -0.904085       -24.6014 
  17   2.0000      -0.834873       -22.7180 
  18   2.0000      -0.775109       -21.0918 
  19   2.0000      -0.714141       -19.4328 
  20   2.0000      -0.668964       -18.2034 
  21   2.0000      -0.632707       -17.2168 
  22   2.0000      -0.585779       -15.9399 
  23   2.0000      -0.548456       -14.9242 
  24   2.0000      -0.542632       -14.7658 
  25   2.0000      -0.495006       -13.4698 
  26   2.0000      -0.473312       -12.8795 
  27   2.0000      -0.463940       -12.6244 
  28   2.0000      -0.428914       -11.6713 
  29   2.0000      -0.424529       -11.5520 
  30   2.0000      -0.411249       -11.1906 
  31   2.0000      -0.403233       -10.9725 
  32   2.0000      -0.397908       -10.8276 
  33   2.0000      -0.392881       -10.6908 
  34   2.0000      -0.385355       -10.4861 
  35   2.0000      -0.358736        -9.7617 
  36   2.0000      -0.348542        -9.4843 
  37   2.0000      -0.346455        -9.4275 
  38   2.0000      -0.332104        -9.0370 
  39   2.0000      -0.317871        -8.6497 
  40   2.0000      -0.283628        -7.7179 
  41   2.0000      -0.279283        -7.5997 
  42   2.0000      -0.273434        -7.4405 
  43   2.0000      -0.245161        -6.6712 
  44   2.0000      -0.230913        -6.2835 
  45   2.0000      -0.225415        -6.1339 
  46   2.0000      -0.187599        -5.1048 
  47   0.0000      -0.096977        -2.6389 
  48   0.0000      -0.033954        -0.9239 
  49   0.0000      -0.029388        -0.7997 
  50   0.0000       0.020888         0.5684 
  51   0.0000       0.026543         0.7223 
  52   0.0000       0.040545         1.1033 
  53   0.0000       0.041837         1.1384 
  54   0.0000       0.067956         1.8492 
  55   0.0000       0.088138         2.3984 
  56   0.0000       0.122244         3.3264 
  57   0.0000       0.130493         3.5509 
*Only the first 10 virtual orbitals were printed.
-------
TIMINGS
-------

Total SCF time: 0 days 0 hours 0 min 4 sec 

Total time                  ....       4.201 sec
Sum of individual times     ....       4.015 sec  ( 95.6%)

SCF preparation             ....       1.366 sec  ( 32.5%)
Fock matrix formation       ....       1.847 sec  ( 44.0%)
  Startup                   ....       0.018 sec  (  1.0% of F)
  Split-RI-J                ....       0.719 sec  ( 38.9% of F)
  XC integration            ....       0.899 sec  ( 48.7% of F)
    XC Preparation          ....       0.000 sec  (  0.0% of XC)
    Basis function eval.    ....       0.102 sec  ( 11.3% of XC)
    Density eval.           ....       0.072 sec  (  8.0% of XC)
    XC-Functional eval.     ....       0.016 sec  (  1.8% of XC)
    XC-Potential eval.      ....       0.063 sec  (  7.0% of XC)
Diagonalization             ....       0.000 sec  (  0.0%)
Density matrix formation    ....       0.094 sec  (  2.2%)
Total Energy calculation    ....       0.064 sec  (  1.5%)
Population analysis         ....       0.000 sec  (  0.0%)
Orbital Transformation      ....       0.047 sec  (  1.1%)
Orbital Orthonormalization  ....       0.000 sec  (  0.0%)
DIIS solution               ....       0.227 sec  (  5.4%)
SOSCF solution              ....       0.370 sec  (  8.8%)
Finished LeanSCF after   4.2 sec

Maximum memory used throughout the entire LEANSCF-calculation: 11.3 MB


           ************************************************************
           *        Program running with 64 parallel MPI-processes    *
           *              working on a common directory               *
           ************************************************************

------------------------------------------------------------------------------
                         ORCA PROPERTY INTEGRAL CALCULATIONS
------------------------------------------------------------------------------

GBWName                                   ... run_loose.gbw
Number of atoms                           ...     20
Number of basis functions                 ...    196
Max core memory                           ...   4096 MB

Dipole integrals                          ... YES
Quadrupole integrals                      ...  NO
Linear momentum integrals                 ...  NO
Angular momentum integrals                ...  NO
Higher moments length integrals           ...  NO
Higher moments velocity integrals         ...  NO
Kinetic energy integrals                  ...  NO
GIAO right hand sides                     ...  NO
GIAO dipole derivative integrals          ...  NO
SOC integrals                             ...  NO
EPR diamagnetic integrals (GIAO)          ...  NO
EPR gauge integrals                       ...  NO
Field gradient integrals                  ...  NO (   0 nuclei)
Spin-dipole/Fermi contact integrals       ...  NO (   0 nuclei)
Contact density integrals                 ...  NO (   0 nuclei)
Nucleus-orbit integrals                   ...  NO (   0 nuclei)
Geometric perturbations                   ...  NO (  20 nuclei)

Choice of electric origin   ... Center of mass
Position of electric origin ... ( -0.0221,  0.0011, -0.0093) 
Choice of magnetic origin   ... GIAO
Position of magnetic origin ... (  0.0000,  0.0000,  0.0000) 

Calculating integrals                     ... Electric Dipole (Length)     done (  0.0 sec)

Property integrals calculated in   0.1 sec

Maximum memory used throughout the entire PROPINT-calculation: 11.2 MB


-------------------------------------------------------------------------------
                          DFT DISPERSION CORRECTION                            
                                                                               
                              DFTD3 V3.1  Rev 1                                
                          USING Becke-Johnson damping                          
-------------------------------------------------------------------------------
The PBE functional is recognized
Active option DFTDOPT                   ...         4   

molecular C6(AA) [au] = 4848.388352 


            DFT-D V3
 parameters
 s6 scaling factor         :     1.0000 
 a1 scaling factor         :     0.4289 
 s8 scaling factor         :     0.7875 
 a2 scaling factor         :     4.4407 
 ad hoc parameters k1-k3   :    16.0000     1.3333    -4.0000 

 Edisp/kcal,au: -14.260795211797  -0.022726021327 
 E6   /kcal   :  -9.957071097 
 E8   /kcal   :  -4.303724115 
 % E8         :  30.178710588 

-------------------------   ----------------
Dispersion correction           -0.022726021
-------------------------   ----------------


-------------------------   --------------------
FINAL SINGLE POINT ENERGY      -663.522269097724
-------------------------   --------------------



           ************************************************************
           *        Program running with 64 parallel MPI-processes    *
           *              working on a common directory               *
           ************************************************************
------------------------------------------------------------------------------
                         ORCA SCF GRADIENT CALCULATION
------------------------------------------------------------------------------

Nuc. rep. gradient        (SHARK) ... done (  0.0 sec)
HCore & Overlap gradient  (SHARK) ... done (  0.0 sec)
Split-RIJ-J gradient      (SHARK) ... done (  0.4 sec)
XC gradient                       ... done (  0.2 sec)
Dispersion correction             ... done (  0.1 sec)

-------------------
DISPERSION GRADIENT
-------------------

   1   O   :   -0.000216332   -0.000126607   -0.000045665
   2   O   :    0.000216482   -0.000074076    0.000004964
   3   O   :   -0.000300620    0.000026074    0.000072701
   4   O   :    0.000257767    0.000110590   -0.000009227
   5   N   :   -0.000063603    0.000310403   -0.000026997
   6   C   :    0.000004410    0.000073060   -0.000002870
   7   C   :    0.000005580   -0.000036098    0.000008520
   8   C   :    0.000077577   -0.000027634    0.000002579
   9   C   :    0.000043679    0.000048627   -0.000004984
  10   C   :    0.000005128   -0.000149336    0.000018398
  11   C   :    0.000024831   -0.000101320    0.000013160
  12   C   :   -0.000295519   -0.000113076    0.000007439
  13   C   :    0.000283847    0.000008294   -0.000001533
  14   H   :    0.000065151    0.000164045   -0.000012771
  15   H   :   -0.000006229   -0.000191629    0.000022075
  16   H   :    0.000030368   -0.000184324    0.000014785
  17   H   :   -0.000028817    0.000203839   -0.000018556
  18   H   :   -0.000106593    0.000172689   -0.000011114
  19   H   :   -0.000147276   -0.000068583   -0.000033857
  20   H   :    0.000150169   -0.000044939    0.000002952

Difference to translation invariance:
           :    0.0000000000    0.0000000000   -0.0000000000

Difference to rotation invariance:
           :   -0.0000000000    0.0000000000   -0.0000000000

Norm of the Dispersion gradient    ...    0.0009304504
RMS gradient                       ...    0.0001201206
MAX gradient                       ...    0.0003104032

------------------
CARTESIAN GRADIENT
------------------

   1   O   :   -0.008826912    0.006769824    0.002237335
   2   O   :    0.007357530    0.008918308   -0.000655025
   3   O   :   -0.003332377    0.006198813    0.008878009
   4   O   :    0.011240021    0.016329186   -0.001194359
   5   N   :   -0.023642460    0.027490859   -0.000196931
   6   C   :    0.025681851   -0.058972572    0.001049907
   7   C   :    0.009316871    0.020670535    0.000333134
   8   C   :    0.009063698   -0.000806887    0.000531055
   9   C   :   -0.008298553    0.003321318    0.000023957
  10   C   :   -0.019556015    0.000321973    0.001872704
  11   C   :    0.015623810    0.014252101   -0.002340169
  12   C   :    0.027643750   -0.007582272   -0.004945902
  13   C   :   -0.041715925   -0.022208788    0.001643379
  14   H   :   -0.006399222   -0.006475769    0.000574225
  15   H   :    0.007859570    0.005406576    0.000480576
  16   H   :   -0.008670379    0.004083005   -0.000576541
  17   H   :   -0.004038407   -0.003916605    0.001048717
  18   H   :    0.008624347    0.003423445   -0.004212619
  19   H   :    0.003950224   -0.007441198   -0.005323849
  20   H   :   -0.001881423   -0.009781852    0.000772397

Difference to translation invariance:
           :   -0.0000000000    0.0000000000    0.0000000000

Difference to rotation invariance:
           :   -0.0000087594   -0.0001206692   -0.0001155915

Norm of the Cartesian gradient     ...    0.1069548558
RMS gradient                       ...    0.0138078125
MAX gradient                       ...    0.0589725722

-------
TIMINGS
-------

Total SCF gradient time     ....        0.711 sec

Densities                   ....       0.001 sec  (  0.2%)
One electron gradient       ....       0.031 sec  (  4.3%)
RI-J Coulomb gradient       ....       0.357 sec  ( 50.2%)
XC gradient                 ....       0.232 sec  ( 32.6%)

Maximum memory used throughout the entire SCFGRAD-calculation: 30.8 MB
------------------------------------------------------------------------------
                         ORCA GEOMETRY RELAXATION STEP
------------------------------------------------------------------------------

Reading the OPT-File                    .... done
Getting information on internals        .... done
Copying old internal coords+grads       .... done
Making the new internal coordinates     .... (2022 redundants) done
Validating the new internal coordinates .... (2022 redundants) done
Calculating the B-matrix                .... done
Calculating the G,G- and P matrices     .... done
Transforming gradient to internals      .... done
Projecting the internal gradient        .... done
Number of atoms                         ....  20
Number of internal coordinates          ....  90
Current Energy                          ....  -663.522269098 Eh
Current gradient norm                   ....     0.106954856 Eh/bohr
Maximum allowed component of the step   ....  0.300
Current trust radius                    ....  0.300
Evaluating the initial hessian          ....  (Almloef) done
Projecting the Hessian                  .... done
Forming the augmented Hessian           .... done
Diagonalizing the augmented Hessian     .... done
Last element of RFO vector              ....  0.951543894
Lowest eigenvalues of augmented Hessian:
 -0.014650298  0.015037264  0.016573973  0.018769456  0.020312220
Length of the computed step             ....  0.323172642
Warning: the length of the step is outside the trust region - taking restricted step instead
The input lambda is                     ....     0.012872
   iter:   5  x=    0.005952  g=  586.743570 f(x)=     1.588789
   iter:  10  x=   -0.017738  g=    4.619936 f(x)=     0.010149
The output lambda is                    ....    -0.017984 (14 iterations)
The final length of the internal step   ....  0.300000000
Converting the step to Cartesian space:
 Initial RMS(Int)=    0.0316227766
Transforming coordinates:
 Iter   0:  RMS(Cart)=    0.0767892995 RMS(Int)=    2.0871400181
 Iter   5:  RMS(Cart)=    0.0000007383 RMS(Int)=    0.0000003061
done
Storing new coordinates                 .... done

                                .--------------------.
          ----------------------|Geometry convergence|-------------------------
          Item                value                   Tolerance       Converged
          ---------------------------------------------------------------------
          RMS gradient        0.0083731522            0.0001000000      NO
          MAX gradient        0.0333898929            0.0003000000      NO
          RMS step            0.0316227766            0.0020000000      NO
          MAX step            0.1101351361            0.0040000000      NO
          -------------------------------------------------------------------------
          ........................................................
          Max(Bonds)      0.0322      Max(Angles)    2.68
          Max(Dihed)        6.31      Max(Improp)    0.00
          ---------------------------------------------------------------------

The optimization has not yet converged - more geometry cycles are needed


    ---------------------------------------------------------------------------
                         Redundant Internal Coordinates
                            (Angstroem and degrees)

        Definition                    Value    dE/dq     Step     New-Value
    ----------------------------------------------------------------------------
     1. B(C   5,N   4)                1.4124  0.033390 -0.0322    1.3802   
     2. B(C   6,C   5)                1.3949 -0.029232  0.0273    1.4222   
     3. B(C   8,C   7)                1.3949 -0.007484  0.0058    1.4007   
     4. B(C   8,C   5)                1.3949 -0.017389  0.0151    1.4099   
     5. B(C   9,C   6)                1.3948 -0.017555  0.0152    1.4100   
     6. B(C  10,C   9)                1.3949 -0.005861  0.0044    1.3994   
     7. B(C  10,C   7)                1.3950 -0.018960  0.0149    1.4099   
     8. B(C  11,C   6)                1.4573 -0.018868  0.0211    1.4785   
     9. B(C  11,O   2)                1.2336  0.009496 -0.0051    1.2285   
    10. B(C  11,O   0)                1.3601  0.003372 -0.0028    1.3574   
    11. B(C  12,C   7)                1.4543 -0.025312  0.0262    1.4805   
    12. B(C  12,O   3)                1.2353  0.019849 -0.0104    1.2249   
    13. B(C  12,O   1)                1.3613  0.003133 -0.0026    1.3587   
    14. B(H  13,C   8)                1.0879 -0.008682  0.0121    1.0999   
    15. B(H  14,C   9)                1.0870 -0.008183  0.0113    1.0983   
    16. B(H  15,C  10)                1.0864 -0.007950  0.0110    1.0974   
    17. B(H  16,N   4)                1.0116 -0.005423  0.0064    1.0180   
    18. B(H  17,O   2)                2.1012 -0.000600 -0.0318    2.0694   
    19. B(H  17,N   4)                1.0104 -0.008998  0.0091    1.0196   
    20. B(H  18,O   0)                0.9811 -0.003510  0.0037    0.9848   
    21. B(H  19,O   1)                0.9810 -0.002488  0.0026    0.9836   
    22. A(C  11,O   0,H  18)          111.86  0.017094   -2.55    109.30   
    23. A(C  12,O   1,H  19)          111.84  0.017935   -2.68    109.16   
    24. A(C   5,N   4,H  17)          120.85  0.004022   -0.27    120.58   
    25. A(C   5,N   4,H  16)          119.71 -0.000423   -0.12    119.59   
    26. A(H  16,N   4,H  17)          119.43 -0.003628    0.43    119.86   
    27. A(C   6,C   5,C   8)          120.00  0.005442   -0.73    119.27   
    28. A(N   4,C   5,C   6)          120.89 -0.002080    0.87    121.76   
    29. A(N   4,C   5,C   8)          119.11 -0.003363   -0.13    118.97   
    30. A(C   9,C   6,C  11)          118.65 -0.008510    0.53    119.17   
    31. A(C   5,C   6,C  11)          121.36  0.004396    0.07    121.42   
    32. A(C   5,C   6,C   9)          119.99  0.004114   -0.59    119.40   
    33. A(C   8,C   7,C  12)          120.03  0.011970   -1.53    118.50   
    34. A(C   8,C   7,C  10)          119.99 -0.001132    0.04    120.04   
    35. A(C  10,C   7,C  12)          119.97 -0.010838    1.48    121.46   
    36. A(C   7,C   8,H  13)          120.36  0.005070   -0.81    119.55   
    37. A(C   5,C   8,H  13)          119.64 -0.000684    0.08    119.72   
    38. A(C   5,C   8,C   7)          120.01 -0.004386    0.72    120.73   
    39. A(C   6,C   9,C  10)          120.01 -0.005495    0.87    120.88   
    40. A(C  10,C   9,H  14)          118.19 -0.002213    0.33    118.52   
    41. A(C   6,C   9,H  14)          121.79  0.007701   -1.20    120.60   
    42. A(C   9,C  10,H  15)          117.60 -0.006246    1.01    118.60   
    43. A(C   7,C  10,H  15)          122.41  0.004788   -0.70    121.71   
    44. A(C   7,C  10,C   9)          119.99  0.001457   -0.31    119.69   
    45. A(O   2,C  11,C   6)          125.32 -0.001836    0.56    125.87   
    46. A(O   0,C  11,C   6)          112.36 -0.002622    0.15    112.51   
    47. A(O   0,C  11,O   2)          122.33  0.004458   -0.70    121.62   
    48. A(O   1,C  12,O   3)          122.10  0.001524   -0.20    121.90   
    49. A(O   3,C  12,C   7)          125.42  0.003117   -0.40    125.02   
    50. A(O   1,C  12,C   7)          112.48 -0.004641    0.60    113.08   
    51. D(C   8,C   5,N   4,H  17)    179.34 -0.003674    4.52    183.85   
    52. D(C   8,C   5,N   4,H  16)      0.05 -0.000901    1.12      1.18   
    53. D(C   6,C   5,N   4,H  17)     -0.65 -0.003128    4.09      3.45   
    54. D(C   6,C   5,N   4,H  16)   -179.93 -0.000354    0.70   -179.23   
    55. D(C   9,C   6,C   5,C   8)      0.00 -0.001136    1.16      1.17   
    56. D(C  11,C   6,C   5,N   4)      0.01 -0.001883    1.86      1.87   
    57. D(C  11,C   6,C   5,C   8)   -179.97 -0.001330    1.43   -178.54   
    58. D(C   9,C   6,C   5,N   4)    179.98 -0.001688    1.59    181.58   
    59. D(C   5,C   8,C   7,C  12)    179.99 -0.000351    0.43    180.42   
    60. D(H  13,C   8,C   5,C   6)   -180.00  0.000290   -0.36   -180.36   
    61. D(H  13,C   8,C   5,N   4)      0.02  0.000833   -0.78     -0.76   
    62. D(C   5,C   8,C   7,C  10)     -0.00 -0.000113    0.18      0.18   
    63. D(C   7,C   8,C   5,N   4)   -179.97  0.001559   -1.58   -181.55   
    64. D(H  13,C   8,C   7,C  10)   -180.00  0.000619   -0.62   -180.61   
    65. D(H  13,C   8,C   7,C  12)     -0.00  0.000381   -0.37     -0.37   
    66. D(C   7,C   8,C   5,C   6)      0.01  0.001017   -1.15     -1.14   
    67. D(H  14,C   9,C   6,C  11)     -0.87 -0.000053    0.11     -0.76   
    68. D(H  14,C   9,C   6,C   5)    179.16 -0.000246    0.37    179.53   
    69. D(C  10,C   9,C   6,C  11)    179.96  0.000545   -0.46    179.49   
    70. D(C  10,C   9,C   6,C   5)     -0.02  0.000352   -0.20     -0.22   
    71. D(H  15,C  10,C   9,H  14)      0.63  0.000521   -0.64     -0.02   
    72. D(C   7,C  10,C   9,H  14)   -179.18  0.001045   -1.31   -180.49   
    73. D(C   7,C  10,C   9,C   6)      0.02  0.000551   -0.77     -0.75   
    74. D(H  15,C  10,C   7,C  12)      0.19  0.000138   -0.17      0.03   
    75. D(H  15,C  10,C   7,C   8)   -179.81 -0.000098    0.08   -179.73   
    76. D(H  15,C  10,C   9,C   6)    179.83  0.000026   -0.11    179.73   
    77. D(C   9,C  10,C   7,C  12)    180.00 -0.000434    0.53    180.53   
    78. D(C   9,C  10,C   7,C   8)     -0.01 -0.000671    0.78      0.77   
    79. D(O   0,C  11,C   6,C   5)    149.91 -0.003808    6.05    155.96   
    80. D(C   6,C  11,O   0,H  18)   -179.99  0.000908   -1.67   -181.67   
    81. D(O   2,C  11,O   0,H  18)     -0.04  0.001516   -1.30     -1.35   
    82. D(O   2,C  11,C   6,C   9)    149.99 -0.004637    5.93    155.92   
    83. D(O   2,C  11,C   6,C   5)    -30.04 -0.004441    5.67    -24.37   
    84. D(O   0,C  11,C   6,C   9)    -30.06 -0.004004    6.31    -23.75   
    85. D(O   3,C  12,C   7,C  10)   -180.00 -0.000068    0.05   -179.95   
    86. D(O   3,C  12,C   7,C   8)      0.01  0.000169   -0.20     -0.19   
    87. D(O   1,C  12,C   7,C  10)     -0.07 -0.000176    0.21      0.14   
    88. D(O   1,C  12,C   7,C   8)    179.94  0.000062   -0.04    179.90   
    89. D(C   7,C  12,O   1,H  19)   -179.96  0.000069   -0.10   -180.06   
    90. D(O   3,C  12,O   1,H  19)     -0.03 -0.000033    0.05      0.03   
    ----------------------------------------------------------------------------

Geometry step timings:
Preparation and reading OPT file:      0.000 s ( 0.247 %)
Internal coordinates            :      0.000 s ( 0.247 %)
B/P matrices and projection     :      0.001 s (11.560 %)
Hessian update/contruction      :      0.000 s ( 4.608 %)
Making the step                 :      0.007 s (75.090 %)
Converting the step to Cartesian:      0.000 s ( 2.047 %)
Storing new data                :      0.000 s ( 0.411 %)
Checking convergence            :      0.000 s ( 0.339 %)
Final printing                  :      0.001 s ( 5.430 %)
Total time                      :      0.010 s

Time for energy+gradient        :     15.279 s
Time for complete geometry iter :     16.990 s

         *************************************************************
         *                GEOMETRY OPTIMIZATION CYCLE   2            *
         *************************************************************
---------------------------------
CARTESIAN COORDINATES (ANGSTROEM)
---------------------------------
  O     -3.216804   -1.525519   -0.438167
  O      3.606801   -1.188541    0.097014
  O     -3.565488    0.571730    0.325228
  O      3.617742    1.063586   -0.084631
  N     -1.362079    2.226533   -0.133745
  C     -0.652258    1.044662   -0.073563
  C     -1.307240   -0.214057    0.008534
  C      1.510533   -0.087463    0.007408
  C      0.756788    1.089675   -0.085129
  C     -0.536987   -1.391258    0.101806
  C      0.861326   -1.335028    0.109673
  C     -2.781828   -0.313679   -0.008417
  C      2.987337    0.016802    0.000162
  H      1.271116    2.059471   -0.154408
  H     -1.023096   -2.373448    0.174111
  H      1.424420   -2.273671    0.188064
  H     -0.861990    3.110415   -0.203732
  H     -2.379866    2.222598   -0.067448
  H     -4.200771   -1.548595   -0.405403
  H      4.580944   -1.052612    0.085944

----------------------------
CARTESIAN COORDINATES (A.U.)
----------------------------
  NO LB      ZA    FRAG     MASS         X           Y           Z
   0 O     8.0000    0    15.999   -6.078879   -2.882814   -0.828016
   1 O     8.0000    0    15.999    6.815866   -2.246017    0.183329
   2 O     8.0000    0    15.999   -6.737796    1.080413    0.614591
   3 O     8.0000    0    15.999    6.836541    2.009886   -0.159930
   4 N     7.0000    0    14.007   -2.573956    4.207538   -0.252741
   5 C     6.0000    0    12.011   -1.232588    1.974124   -0.139014
   6 C     6.0000    0    12.011   -2.470326   -0.404510    0.016127
   7 C     6.0000    0    12.011    2.854494   -0.165281    0.013999
   8 C     6.0000    0    12.011    1.430122    2.059187   -0.160870
   9 C     6.0000    0    12.011   -1.014758   -2.629097    0.192386
  10 C     6.0000    0    12.011    1.627671   -2.522836    0.207252
  11 C     6.0000    0    12.011   -5.256894   -0.592768   -0.015905
  12 C     6.0000    0    12.011    5.645248    0.031751    0.000305
  13 H     1.0000    0     1.008    2.402061    3.891837   -0.291789
  14 H     1.0000    0     1.008   -1.933371   -4.485167    0.329022
  15 H     1.0000    0     1.008    2.691764   -4.296616    0.355389
  16 H     1.0000    0     1.008   -1.628924    5.877832   -0.384998
  17 H     1.0000    0     1.008   -4.497295    4.200102   -0.127457
  18 H     1.0000    0     1.008   -7.938307   -2.926420   -0.766101
  19 H     1.0000    0     1.008    8.656730   -1.989149    0.162411

--------------------------------
INTERNAL COORDINATES (ANGSTROEM)
--------------------------------
 O      0   0   0     0.000000000000     0.00000000     0.00000000
 O      1   0   0     6.852850269360     0.00000000     0.00000000
 O      1   2   0     2.258939210905    94.68357421     0.00000000
 O      2   1   3     2.259466563285    92.72584255   334.87963484
 N      3   1   2     2.793571530379   111.88162647    25.87972993
 C      5   3   1     1.379959890339    83.75483201   332.64103887
 C      6   5   3     1.421307762139   121.59813874     6.89372003
 C      2   1   3     2.369544322152    30.57105068   343.05143875
 C      8   2   1     1.400838279592   150.34090645   188.98982120
 C      7   6   5     1.409890898772   119.43948302   181.59023976
 C     10   7   6     1.399465494641   120.84349765   359.77198112
 C      3   1   2     1.228572558785    30.75847890     4.22683333
 C      4   2   1     1.224890508819    30.69744274     4.73046679
 H      9   8   2     1.099926236606   119.56782046   359.73302983
 H     10   7   6     1.098283916958   120.61380046   179.51962225
 H     11  10   7     1.097392980244   118.60254438   179.73559340
 H      5   3   1     1.017955524659   155.94039202   165.80431274
 H      5   3   1     1.019951396468    36.86670262   147.69896521
 H      1   2   3     0.984782716088   173.44439279   303.37713744
 H      2   1   3     0.983643868525   172.76224298   294.78058508

---------------------------
INTERNAL COORDINATES (A.U.)
---------------------------
 O      0   0   0     0.000000000000     0.00000000     0.00000000
 O      1   0   0    12.950010245860     0.00000000     0.00000000
 O      1   2   0     4.268776461787    94.68357421     0.00000000
 O      2   1   3     4.269773013361    92.72584255   334.87963484
 N      3   1   2     5.279085127936   111.88162647    25.87972993
 C      5   3   1     2.607746268537    83.75483201   332.64103887
 C      6   5   3     2.685882422459   121.59813874     6.89372003
 C      2   1   3     4.477789831055    30.57105068   343.05143875
 C      8   2   1     2.647200706343   150.34090645   188.98982120
 C      7   6   5     2.664307677388   119.43948302   181.59023976
 C     10   7   6     2.644606518745   120.84349765   359.77198112
 C      3   1   2     2.321665671755    30.75847890     4.22683333
 C      4   2   1     2.314707605708    30.69744274     4.73046679
 H      9   8   2     2.078559354700   119.56782046   359.73302983
 H     10   7   6     2.075455820340   120.61380046   179.51962225
 H     11  10   7     2.073772193949   118.60254438   179.73559340
 H      5   3   1     1.923657158117   155.94039202   165.80431274
 H      5   3   1     1.927428809235    36.86670262   147.69896521
 H      1   2   3     1.860969634825   173.44439279   303.37713744
 H      2   1   3     1.858817524823   172.76224298   294.78058508



           ************************************************************
           *        Program running with 64 parallel MPI-processes    *
           *              working on a common directory               *
           ************************************************************
------------------------------------------------------------------------------
                   ___                                                        
                  /   \      - P O W E R E D   B Y -                         
                 /     \                                                     
                 |  |  |   _    _      __       _____    __    __             
                 |  |  |  | |  | |    /  \     |  _  \  |  |  /  |          
                  \  \/   | |  | |   /    \    | | | |  |  | /  /          
                 / \  \   | |__| |  /  /\  \   | |_| |  |  |/  /          
                |  |  |   |  __  | /  /__\  \  |    /   |      \           
                |  |  |   | |  | | |   __   |  |    \   |  |\   \          
                \     /   | |  | | |  |  |  |  | |\  \  |  | \   \       
                 \___/    |_|  |_| |__|  |__|  |_| \__\ |__|  \__/        
                                                                              
                      - O R C A' S   B I G   F R I E N D -                    
                                      &                                       
                       - I N T E G R A L  F E E D E R -                       
                                                                              
 v1 FN, 2020, v2 2021, v3 2022-2024                                           
------------------------------------------------------------------------------


----------------------
SHARK INTEGRAL PACKAGE
----------------------

Number of atoms                             ...     20
Number of basis functions                   ...    196
Number of shells                            ...     92
Maximum angular momentum                    ...      2
Integral batch strategy                     ... SHARK/LIBINT Hybrid
RI-J (if used) integral strategy            ... SPLIT-RIJ (Revised 2003 algorithm where possible)
Printlevel                                  ...      1
Contraction scheme used                     ... SEGMENTED contraction
Prescreening option                         ... SCHWARTZ
   Thresh                                   ... 2.500e-11
   Tcut                                     ... 2.500e-12
   Tpresel                                  ... 2.500e-12 
Coulomb Range Separation                    ... NOT USED
Exchange Range Separation                   ... NOT USED
Multipole approximations                    ... NOT USED
Finite Nucleus Model                        ... NOT USED
CABS basis                                  ... NOT available
Auxiliary Coulomb fitting basis             ... AVAILABLE
   # of basis functions in Aux-J            ...    714
   # of shells in Aux-J                     ...    230
   Maximum angular momentum in Aux-J        ...      4
Auxiliary J/K fitting basis                 ... NOT available
Auxiliary Correlation fitting basis         ... NOT available
Auxiliary 'external' fitting basis          ... NOT available

Checking pre-screening integrals            ... done (  0.0 sec) Dimension = 92
   => SHARK Basis and OBASIS are compatible. Storing Pre-screening
Shell pair information
[...]
     29       0.001191   0.000496   0.000015  -0.000001   0.000001   0.000009
     30      -0.017376   0.044146  -0.000387   0.000195  -0.000071  -0.000089
     31       0.032255  -0.066011  -0.000985   0.000076  -0.000080   0.000097
     32      -0.001298   0.002849   0.000020   0.000002   0.000001  -0.000005
     33      -0.000312  -0.000161   0.005335  -0.000287   0.003954   0.000874
     34      -0.000889  -0.000455  -0.003205  -0.000078   0.001615  -0.000542
     35       0.000021   0.000011   0.000208  -0.000004   0.000033   0.000033
     36      -0.000093   0.000447  -0.000144  -0.003990  -0.000039   0.000089
     37       0.000390  -0.000799   0.000069   0.001014   0.000045   0.000074
     38      -0.000013   0.000033  -0.000006  -0.000121  -0.000002  -0.000000
     39      -0.011794  -0.007650  -0.003671   0.000197  -0.000014   0.000283
     40      -0.020240  -0.015208  -0.003313   0.000873  -0.000104  -0.003228
     41       0.000301   0.000254   0.000055  -0.000021   0.000005   0.000036
     42       0.425740   0.210616   0.000240   0.000004  -0.000107   0.000961
     43       0.785908   0.382754  -0.000976   0.000091   0.000317   0.000488
     44      -0.013394  -0.006447   0.000028  -0.000003  -0.000009   0.000004
     45       0.235453  -0.484035  -0.002115   0.000554   0.000023   0.000117
     46      -0.370647   0.752018   0.002747  -0.000356   0.000081  -0.000413
     47       0.015713  -0.032036  -0.000118   0.000021  -0.000002  -0.000003
     48      -0.000620   0.000504  -0.147131   0.000022  -0.008383   0.457207
     49      -0.002023   0.000869  -0.293130   0.000190  -0.014984   0.832035
     50       0.000012   0.000013   0.001062  -0.000004   0.000012  -0.001382
     51       0.001757  -0.003136   0.942464  -0.001346   0.007097   0.303036
     52       0.000101   0.000178   0.007776   0.000063   0.001396  -0.006316
     53       0.000016  -0.000042   0.013769  -0.000023   0.000075   0.004104
     54       0.000023   0.000093   0.011201   0.039469  -0.994428  -0.014344
     55       0.001397   0.000509  -0.004356  -0.002866   0.070476   0.000137
     56      -0.000043  -0.000013   0.000358   0.000908  -0.022868  -0.000305
     57      -0.000323   0.000399   0.000871   0.980074   0.038891   0.000805
     58      -0.000805   0.001295   0.000349   0.183994   0.007229   0.000154
     59       0.000013  -0.000024   0.000012   0.018057   0.000719   0.000015


-----------
IR SPECTRUM
-----------

 Mode   freq       eps      Int      T**2         TX        TY        TZ
       cm**-1   L/(mol*cm) km/mol    a.u.
----------------------------------------------------------------------------
  6:     57.75   0.000048    0.24  0.000262  (-0.000527  0.000963  0.016136)
  7:     69.92   0.000608    3.07  0.002713  ( 0.000733  0.000403 -0.052084)
  8:     90.34   0.000001    0.00  0.000002  ( 0.000382 -0.001407 -0.000492)
  9:    152.56   0.000161    0.81  0.000330  ( 0.017946  0.002740 -0.000020)
 10:    174.89   0.001945    9.83  0.003471  ( 0.000740  0.001487 -0.058894)
 11:    246.77   0.004940   24.97  0.006247  ( 0.000616 -0.000104 -0.079038)
 12:    257.53   0.000500    2.53  0.000606  (-0.024055 -0.004709 -0.002282)
 13:    289.92   0.026600  134.43  0.028632  ( 0.002489  0.000603 -0.169190)
 14:    298.85   0.000379    1.92  0.000396  (-0.000788 -0.017136  0.010075)
 15:    368.76   0.001494    7.55  0.001264  ( 0.027594  0.022347 -0.001761)
 16:    428.54   0.001905    9.63  0.001387  (-0.001126  0.001671  0.037193)
 17:    447.47   0.002492   12.59  0.001738  (-0.020281  0.036372 -0.001873)
 18:    494.16   0.004057   20.50  0.002562  ( 0.050016  0.007706  0.000976)
 19:    537.66   0.001115    5.64  0.000647  ( 0.000921 -0.000664 -0.025419)
 20:    549.21   0.000687    3.47  0.000391  ( 0.019762 -0.000025  0.000204)
 21:    568.68   0.000516    2.61  0.000283  (-0.015528  0.006450 -0.000681)
 22:    595.67   0.009615   48.59  0.005037  (-0.001370  0.001755  0.070939)
 23:    635.50   0.004534   22.91  0.002226  (-0.015624  0.044463 -0.002266)
 24:    646.23   0.000023    0.11  0.000011  (-0.001918 -0.000034  0.002698)
 25:    650.45   0.025473  128.73  0.012221  (-0.001447  0.003084  0.110496)
 26:    708.14   0.004069   20.57  0.001793  (-0.000937  0.001412  0.042314)
 27:    712.53   0.020319  102.69  0.008899  (-0.093867 -0.009296 -0.001309)
 28:    746.67   0.001161    5.87  0.000485  ( 0.003484  0.021728 -0.000921)
 29:    751.85   0.015125   76.44  0.006278  ( 0.001882 -0.002236 -0.079179)
 30:    796.27   0.000044    0.22  0.000017  (-0.000203 -0.000104 -0.004166)
 31:    831.38   0.000045    0.23  0.000017  ( 0.000007  0.000176  0.004109)
 32:    897.16   0.001608    8.13  0.000559  (-0.000580  0.000593  0.023635)
 33:    941.72   0.003911   19.76  0.001296  ( 0.019122 -0.030476  0.001239)
 34:    955.84   0.000000    0.00  0.000000  ( 0.000056  0.000103  0.000140)
 35:   1036.99   0.001024    5.18  0.000308  (-0.014843  0.009365 -0.000414)
 36:   1078.98   0.023292  117.71  0.006737  (-0.070162 -0.042590 -0.000097)
 37:   1102.26   0.004110   20.77  0.001164  ( 0.023555 -0.024643  0.001221)
 38:   1136.54   0.007712   38.98  0.002118  (-0.017900 -0.042385  0.000853)
 39:   1161.57   0.077595  392.14  0.020847  (-0.138577  0.040320 -0.004160)
 40:   1178.00   0.050938  257.42  0.013494  ( 0.057149  0.101120 -0.001658)
 41:   1258.83   0.001269    6.41  0.000314  (-0.013711 -0.011246 -0.000044)
 42:   1299.50   0.002592   13.10  0.000622  ( 0.024798 -0.002685  0.000495)
 43:   1353.36   0.025702  129.89  0.005927  ( 0.075622 -0.014253  0.002164)
 44:   1364.17   0.030726  155.27  0.007029  ( 0.057931  0.060601 -0.000425)
 45:   1414.47   0.001795    9.07  0.000396  (-0.019882  0.000633 -0.000462)
 46:   1456.03   0.002297   11.61  0.000492  ( 0.018590 -0.012061  0.001148)
 47:   1493.16   0.013286   67.14  0.002777  (-0.051727 -0.010022 -0.000706)
 48:   1546.06   0.025269  127.70  0.005100  ( 0.054481 -0.046119  0.002281)
 49:   1591.95   0.038359  193.85  0.007519  (-0.006695 -0.086427  0.002211)
 50:   1648.39   0.018645   94.22  0.003530  (-0.022076  0.055120 -0.002048)
 51:   1730.00   0.056744  286.76  0.010236  (-0.073775  0.069135 -0.003661)
 52:   1781.64   0.048629  245.75  0.008518  ( 0.053851  0.074948 -0.000742)
 53:   3114.27   0.000758    3.83  0.000076  (-0.005913  0.006393 -0.000306)
 54:   3138.24   0.000051    0.26  0.000005  ( 0.000365 -0.002211  0.000063)
 55:   3156.08   0.000071    0.36  0.000007  (-0.000895 -0.002492  0.000031)
 56:   3348.32   0.029675  149.96  0.002766  ( 0.051135 -0.012236  0.001102)
 57:   3486.10   0.015523   78.45  0.001390  ( 0.037122 -0.003263  0.000954)
 58:   3489.43   0.015855   80.13  0.001418  (-0.036336 -0.009867 -0.000484)
 59:   3556.65   0.011815   59.71  0.001037  ( 0.017425  0.027073 -0.000156)

* The epsilon (eps) is given for a Dirac delta lineshape.
** The dipole moment derivative (T) already includes vibrational overlap.

The first frequency considered to be a vibration is 6
The total number of vibrations considered is 54


--------------------------
THERMOCHEMISTRY AT 298.15K
--------------------------

Temperature         ...   298.15 K
Pressure            ...     1.00 atm
Total Mass          ...   181.15 AMU
Quasi RRHO          ...     True
Cut-Off Frequency   ...     1.00 cm^-1

Throughout the following assumptions are being made:
  (1) The electronic state is orbitally nondegenerate
  (2) There are no thermally accessible electronically excited states
  (3) Hindered rotations indicated by low frequency modes are not
      treated as such but are treated as vibrations and this may
      cause some error
  (4) All equations used are the standard statistical mechanics
      equations for an ideal gas
  (5) All vibrations are strictly harmonic

freq.      57.75  E(vib)   ...       0.51 
freq.      69.92  E(vib)   ...       0.50 
freq.      90.34  E(vib)   ...       0.47 
freq.     152.56  E(vib)   ...       0.40 
freq.     174.89  E(vib)   ...       0.38 
freq.     246.77  E(vib)   ...       0.31 
freq.     257.53  E(vib)   ...       0.30 
freq.     289.92  E(vib)   ...       0.27 
freq.     298.85  E(vib)   ...       0.26 
freq.     368.76  E(vib)   ...       0.21 
freq.     428.54  E(vib)   ...       0.18 
freq.     447.47  E(vib)   ...       0.17 
freq.     494.16  E(vib)   ...       0.14 
freq.     537.66  E(vib)   ...       0.12 
freq.     549.21  E(vib)   ...       0.12 
freq.     568.68  E(vib)   ...       0.11 
freq.     595.67  E(vib)   ...       0.10 
freq.     635.50  E(vib)   ...       0.09 
freq.     646.23  E(vib)   ...       0.09 
freq.     650.45  E(vib)   ...       0.08 
freq.     708.14  E(vib)   ...       0.07 
freq.     712.53  E(vib)   ...       0.07 
freq.     746.67  E(vib)   ...       0.06 
freq.     751.85  E(vib)   ...       0.06 
freq.     796.27  E(vib)   ...       0.05 
freq.     831.38  E(vib)   ...       0.04 
freq.     897.16  E(vib)   ...       0.03 
freq.     941.72  E(vib)   ...       0.03 
freq.     955.84  E(vib)   ...       0.03 
freq.    1036.99  E(vib)   ...       0.02 
freq.    1078.98  E(vib)   ...       0.02 
freq.    1102.26  E(vib)   ...       0.02 
freq.    1136.54  E(vib)   ...       0.01 
freq.    1161.57  E(vib)   ...       0.01 
freq.    1178.00  E(vib)   ...       0.01 
freq.    1258.83  E(vib)   ...       0.01 
freq.    1299.50  E(vib)   ...       0.01 
freq.    1353.36  E(vib)   ...       0.01 
freq.    1364.17  E(vib)   ...       0.01 
freq.    1414.47  E(vib)   ...       0.00 
freq.    1456.03  E(vib)   ...       0.00 
freq.    1493.16  E(vib)   ...       0.00 
freq.    1546.06  E(vib)   ...       0.00 
freq.    1591.95  E(vib)   ...       0.00 
freq.    1648.39  E(vib)   ...       0.00 
freq.    1730.00  E(vib)   ...       0.00 
freq.    1781.64  E(vib)   ...       0.00 
freq.    3114.27  E(vib)   ...       0.00 
freq.    3138.24  E(vib)   ...       0.00 
freq.    3156.08  E(vib)   ...       0.00 
freq.    3348.32  E(vib)   ...       0.00 
freq.    3486.10  E(vib)   ...       0.00 
freq.    3489.43  E(vib)   ...       0.00 
freq.    3556.65  E(vib)   ...       0.00 

------------
INNER ENERGY
------------

The inner energy is: U= E(el) + E(ZPE) + E(vib) + E(rot) + E(trans)
    E(el)   - is the total energy from the electronic structure calculation
              = E(kin-el) + E(nuc-el) + E(el-el) + E(nuc-nuc)
    E(ZPE)  - the the zero temperature vibrational energy from the frequency calculation
    E(vib)  - the the finite temperature correction to E(ZPE) due to population
              of excited vibrational states
    E(rot)  - is the rotational thermal energy
    E(trans)- is the translational thermal energy

Summary of contributions to the inner energy U:
Electronic energy                ...   -663.53803906 Eh
Zero point energy                ...      0.14312220 Eh      89.81 kcal/mol
Thermal vibrational correction   ...      0.00860220 Eh       5.40 kcal/mol
Thermal rotational correction    ...      0.00141627 Eh       0.89 kcal/mol
Thermal translational correction ...      0.00141627 Eh       0.89 kcal/mol
-----------------------------------------------------------------------
Total thermal energy                   -663.38348211 Eh


Summary of corrections to the electronic energy:
(perhaps to be used in another calculation)
Total thermal correction                  0.01143475 Eh       7.18 kcal/mol
Non-thermal (ZPE) correction              0.14312220 Eh      89.81 kcal/mol
-----------------------------------------------------------------------
Total correction                          0.15455695 Eh      96.99 kcal/mol


--------
ENTHALPY
--------

The enthalpy is H = U + kB*T
                kB is Boltzmann's constant
Total thermal energy              ...   -663.38348211 Eh 
Thermal Enthalpy correction       ...      0.00094421 Eh       0.59 kcal/mol
-----------------------------------------------------------------------
Total Enthalpy                    ...   -663.38253790 Eh


Note: Only C1 symmetry has been detected, increase convergence thresholds 
      if your molecule has a higher symmetry. Symmetry factor of 1.0 is   
      used for the rotational entropy correction. 
 

Note: Rotational entropy computed according to Herzberg 
Infrared and Raman Spectra, Chapter V,1, Van Nostrand Reinhold, 1945 
Point Group:  C1, Symmetry Number:   1  
Rotational constants in cm-1:     0.063802     0.014767     0.011991 

Vibrational entropy computed according to the QRRHO of S. Grimme
Chem.Eur.J. 2012 18 9955 using a reference frequency of 100.0 cm-1


-------
ENTROPY
-------

The entropy contributions are T*S = T*(S(el)+S(vib)+S(rot)+S(trans))
     S(el)   - electronic entropy
     S(vib)  - vibrational entropy
     S(rot)  - rotational entropy
     S(trans)- translational entropy
The entropies will be listed as multiplied by the temperature to get
units of energy

Electronic entropy                ...      0.00000000 Eh      0.00 kcal/mol
Vibrational entropy               ...      0.01450257 Eh      9.10 kcal/mol
Rotational entropy                ...      0.01488836 Eh      9.34 kcal/mol
Translational entropy             ...      0.01971270 Eh     12.37 kcal/mol
-----------------------------------------------------------------------
Final entropy term                ...      0.04910364 Eh     30.81 kcal/mol

In case the symmetry of your molecule has not been determined correctly
or in case you have a reason to use a different symmetry number we print 
out the resulting rotational entropy values for sn=1,12:

 non-linear molecules -----------------------------------
|  sn= 1 | S(rot)=       0.01488836 Eh      9.34 kcal/mol|
|  sn= 2 | S(rot)=       0.01423390 Eh      8.93 kcal/mol|
|  sn= 3 | S(rot)=       0.01385107 Eh      8.69 kcal/mol|
|  sn= 4 | S(rot)=       0.01357945 Eh      8.52 kcal/mol|
|  sn= 5 | S(rot)=       0.01336876 Eh      8.39 kcal/mol|
|  sn= 6 | S(rot)=       0.01319662 Eh      8.28 kcal/mol|
|  sn= 7 | S(rot)=       0.01305107 Eh      8.19 kcal/mol|
|  sn= 8 | S(rot)=       0.01292499 Eh      8.11 kcal/mol|
|  sn= 9 | S(rot)=       0.01281378 Eh      8.04 kcal/mol|
|  sn=10 | S(rot)=       0.01271430 Eh      7.98 kcal/mol|
|  sn=11 | S(rot)=       0.01262431 Eh      7.92 kcal/mol|
|  sn=12 | S(rot)=       0.01254216 Eh      7.87 kcal/mol|
 linear molecules ---------------------------------------
|  Dinfh | S(rot)=       0.00950246 Eh      5.96 kcal/mol|
|  Cinfv | S(rot)=       0.01015692 Eh      6.37 kcal/mol|
 --------------------------------------------------------


-------------------
GIBBS FREE ENERGY
-------------------

The Gibbs free energy is G = H - T*S

Total enthalpy                    ...   -663.38253790 Eh 
Total entropy correction          ...     -0.04910364 Eh    -30.81 kcal/mol
-----------------------------------------------------------------------
Final Gibbs free energy         ...   -663.43164154 Eh

For completeness - the Gibbs free energy minus the electronic energy
G-E(el)                           ...      0.10639752 Eh     66.77 kcal/mol


Maximum memory used throughout the entire PROP-calculation: 31.4 MB

--------------------------------
SUGGESTED CITATIONS FOR THIS RUN
--------------------------------

Below you find a list of papers that are relevant to this ORCA run
We neither can nor want to force you to cite these papers, but we appreciate if you do
You receive ORCA, which is the product of decades of hard work by many enthusiastic individuals, for free
The only thing we kindly ask in return is that you cite our papers,
We deeply appreciate it, if you show your appreciation for ORCA by not just citing the generic ORCA reference.

Please note that relegating all ORCA citations to the supporting information does *not* help us.
SI sections are not indexed - citations you put there will not count into any citation statistics
But we need these citations in order to attract the funding resources that allow us to do what we are doing

Therefore, if you are a happy ORCA user, please consider citing a few of the papers listed below in the main body of your paper

In addition to the list printed below, the program has created the file run_loose.bibtex that contains the list in bibtex format
You can import this file easily into all common literature databanks and citation aid programs


List of essential papers. We consider these as the minimum necessary citations

  1. Neese, F.
     Software update: the ORCA program system, version 6.0
     WIRES Comput. Molec. Sci. 2025 15(1), e70019
     doi.org/10.1002/wcms.7019

List of papers to cite with high priority. The work reported in these papers was absolutely
necessary for this run to complete.
Our perspective: the developers of density functionals and basis sets usually get cited in chemistry papers
Good! But without the algorithms to do something with them, the functionals or basis sets would not do anything.
Hence, in our opinion, the algorithm design and method developments papers are equally worthy of getting cited

  1. Neese, F.
     An improvement of the resolution of the identity approximation for the formation of the Coulomb matrix
     J. Comp. Chem. 2003 24(14), 1740-1747
     doi.org/10.1002/jcc.10318
  2. Grimme, S.; Antony, J.; Ehrlich, S.; Krieg, H.
     A consistent and accurate ab initio parametrization of density functional dispersion correction (DFT-D) for the 94 elements H-Pu
     J. Chem. Phys. 2010 132 , 154104
     doi.org/10.1063/1.3382344
  3. Grimme, S.; Ehrlich, S.; Goerigk, L.
     Effect of the damping function in dispersion corrected density functional theory
     J. Comput. Chem. 2011 32(7), 1456-1465
     doi.org/10.1002/jcc.21759
  4. Bykov, D.; Petrenko, T.; Izsak, R.; Kossmann, S.; Becker, U.; Valeev, E.; Neese, F.
     Efficient implementation of the analytic second derivatives of Hartree-Fock and hybrid DFT energies: a detailed analysis of different approximations
     Molec. Phys. 2015 113 , 1961-1977
     doi.org/10.1080/00268976.2015.1025114
  5. Neese, F.
     The SHARK Integral Generation and Digestion System
     J. Comp. Chem. 2022 44(3), 381
     doi.org/10.1002/jcc.26942

List of suggested additional citations. These are papers that are important in the 'surrounding' of 
of this run, or papers that preceded the highly important papers. If you like your results we are grateful for a citation.

  1. Neese, F.
     The ORCA program system
     WIRES Comput. Molec. Sci. 2012 2(1), 73-78
     doi.org/10.1002/wcms.81
  2. Neese, F.
     Software update: the ORCA program system, version 4.0
     WIRES Comput. Molec. Sci. 2018 8(1), 1-6
     doi.org/10.1002/wcms.1327
  3. Neese, F.; Wennmohs, F.; Becker, U.; Riplinger, C.
     The ORCA quantum chemistry program package
     J. Chem. Phys. 2020 152(22), 224108
     doi.org/10.1063/5.0004608
  4. Neese, F.
     Software update: The ORCA program system—Version 5.0
     WIRES Comput. Molec. Sci. 2022 12(1), e1606
     doi.org/10.1002/wcms.1606

List of optional additional citations

  1. Neese, F.
     Approximate second-order SCF convergence for spin unrestricted wavefunctions
     Chem. Phys. Lett. 2000 325(1-3), 93-98
     doi.org/10.1016/s0009-2614(00)00662-x

Timings for individual modules:

Sum of individual times          ...      140.872 sec (=   2.348 min)
Startup calculation              ...       27.346 sec (=   0.456 min)  19.4 %
SCF iterations                   ...       56.668 sec (=   0.944 min)  40.2 %
Property integrals               ...       22.173 sec (=   0.370 min)  15.7 %
SCF Response                     ...        8.919 sec (=   0.149 min)   6.3 %
Property calculations            ...        4.928 sec (=   0.082 min)   3.5 %
SCF Gradient evaluation          ...       20.666 sec (=   0.344 min)  14.7 %
Geometry relaxation              ...        0.172 sec (=   0.003 min)   0.1 %
                             ****ORCA TERMINATED NORMALLY****
TOTAL RUN TIME: 0 days 0 hours 2 minutes 40 seconds 138 msec
