
                                 *****************
                                 * O   R   C   A *
                                 *****************

                                            #,                                       
                                            ###                                      
                                            ####                                     
                                            #####                                    
                                            ######                                   
                                           ########,                                 
                                     ,,################,,,,,                         
                               ,,#################################,,                 
                          ,,##########################################,,             
                       ,#########################################, ''#####,          
                    ,#############################################,,   '####,        
                  ,##################################################,,,,####,       
                ,###########''''           ''''###############################       
              ,#####''   ,,,,##########,,,,          '''####'''          '####       
            ,##' ,,,,###########################,,,                        '##       
           ' ,,###''''                  '''############,,,                           
         ,,##''                                '''############,,,,        ,,,,,,###''
      ,#''                                            '''#######################'''  
     '                                                          ''''####''''         
             ,#######,   #######,   ,#######,      ##                                
            ,#'     '#,  ##    ##  ,#'     '#,    #''#        ,####,    ,#,          
            ##       ##  ##   ,#'  ##            #'  '#       #'       ,# #          
            ##       ##  #######   ##           ,######,      #####,      #          
            '#,     ,#'  ##    ##  '#,     ,#' ,#      #,     #,   #      #          
             '#######'   ##     ##  '#######'  #'      '#     '####' #    #          



                #########################################################
                #                        -***-                          #
                #          Department of theory and spectroscopy        #
                #                                                       #
                #                      Frank Neese                      #
                #                                                       #
                #     Directorship, Architecture, Infrastructure        #
                #                    SHARK, DRIVERS                     #
                #        Core code/Algorithms in most modules           #
                #                                                       #
                #        Max Planck Institute fuer Kohlenforschung      #
                #                Kaiser Wilhelm Platz 1                 #
                #                 D-45470 Muelheim/Ruhr                 #
                #                      Germany                          #
                #                                                       #
                #                  All rights reserved                  #
                #                        -***-                          #
                #########################################################


                         Program Version 6.1.0  -  RELEASE   -
                                (GIT: $679e74b$)
                          ($2025-06-10 18:02:51 +0200$)


 With contributions from (in alphabetic order):
[Max-Planck-Institut fuer Kohlenforschung]                               
  Daniel Aravena         : Magnetic Suceptibility                        
  Michael Atanasov       : Ab Initio Ligand Field Theory (pilot matlab implementation)
  Alexander A. Auer      : GIAO ZORA, VPT2 properties, NMR spectrum      
  Ute Becker             : All parallelization in ORCA, NUMFREQ, NUMCALC 
  Giovanni Bistoni       : ED, misc. LED, open-shell LED, HFLD           
  Dmytro Bykov           : pre 5.0 version of the SCF Hessian            
  Marcos Casanova-Páez   : Triplet and SCS-CIS(D). UHF-(DLPNO)-IP/EA/STEOM-CCSD. UHF-CVS-IP/STEOM-CCSD   
  Vijay G. Chilkuri      : MRCI spin determinant printing, contributions to CSF-ICE 
  Pauline Colinet        : FMM embedding                                 
  Dipayan Datta          : RHF DLPNO-CCSD density                        
  Achintya Kumar Dutta   : EOM-CC, STEOM-CC                              
  Nicolas Foglia         : Exact transition moments, OPA infrastructure, MCD improvements    
  Dmitry Ganyushin       : Spin-Orbit,Spin-Spin,Magnetic field MRCI      
  Miquel Garcia-Rates    : C-PCM and meta-GGA Hessian, CCSD/C-PCM, Gaussian charge scheme 
  Tiago L. C. Gouveia    : GS-ROHF, GS-ROCIS                             
  Yang Guo               : DLPNO-NEVPT2, F12-NEVPT2, CIM, IAO-localization        
  Andreas Hansen         : Spin unrestricted coupled pair/coupled cluster methods 
  Ingolf Harden          : AUTO-CI MPn and infrastructure                
  Benjamin Helmich-Paris : MC-RPA, TRAH-(SCF,CASSCF), AVAS, COSX integrals, SCF dyn. polar., MC-PDFT, srDFT 
  Lee Huntington         : MR-EOM, pCC                                   
  Robert Izsak           : Overlap fitted RIJCOSX, COSX-SCS-MP3, EOM     
  Riya Kayal             : Wick's Theorem for AUTO-CI, AUTO-CI UHF-CCSDT 
  Emily Kempfer          : AUTO-CI RHF CISDT and CCSDT, approximate NEVPT4
  Christian Kollmar      : KDIIS, OOCD, Brueckner-CCSD(T), CCSD density, CASPT2, CASPT2-K, improved NEVPT2 
  Axel Koslowski         : Symmetry handling                             
  Simone Kossmann        : meta-GGA functionals, TD-DFT gradient, OOMP2, (MP2 Hessian; deprecated post 5.0) 
  Lucas Lang             : DCDCAS, Hyperfine gauge corrections, ICE-SOC+SSC
  Marvin Lechner         : AUTO-CI (C++ implementation), FIC-MRCC        
  Spencer Leger          : CASSCF response                               
  Dagmar Lenk            : GEPOL surface, SMD, ORCA-2-JSON               
  Dimitrios Liakos       : Extrapolation schemes; Compound Job, Property file
  Dimitrios Manganas     : Further ROCIS development; embedding schemes. LFT, Crystal Embedding 
  Dimitrios Pantazis     : SARC Basis sets                               
  Anastasios Papadopoulos: AUTO-CI, single reference methods and gradients 
  Taras Petrenko         : pre 6.0 DFT Hessian and TD-DFT gradient,  ECA, NRVS 
  Petra Pikulova         : Analytic Raman intensities                    
  Peter Pinski           : DLPNO-MP2, DLPNO-MP2 Gradient                 
  Shashank Vittal Rao    : ES-AILFT, MagRelax                            
  Christoph Reimann      : Effective Core Potentials                     
  Marius Retegan         : Local ZFS, SOC                                
  Christoph Riplinger    : Optimizer, TS searches, QM/MM, DLPNO-CCSD(T), (RO)-DLPNO pert. Triples 
  Michael Roemelt        : Original ROCIS implementation, recursive CI coupling coefficients
  Masaaki Saitow         : Open-shell DLPNO-CCSD energy and density      
  Barbara Sandhoefer     : DKH picture change effects                    
  Yorick L. A. Schmerwitz: GMF and freeze-and-release deltaSCF, NEB S-IDPP initial path                    
  Kantharuban Sivalingam : CASSCF convergence/infrastructure, NEVPT2, NEVPT3, NEVPT4(SD), FIC-MRCI and CEPA variants
  Bernardo de Souza      : ESD, SOC TD-DFT                               
  Georgi L. Stoychev     : AutoAux, RI-MP2 NMR, DLPNO-MP2 response, X2C  
  Van Anh Tran           : RI-MP2 g-tensors                              
  Willem Van den Heuvel  : Paramagnetic NMR                              
  Zikuan Wang            : NOTCH, Electric field optimization            
  Frank Wennmohs         : Technical directorship and infrastructure     
  Hang Xu                : AUTO-CI-Response properties                   
                                                                         
[FACCTs GmbH]                                                            
  Markus Bursch, Nicolas Foglia, Miquel Garcia-Rates, Ingolf Harden, Hagen Neugebauer, Anastasios Papadopoulos, 
  Christoph Riplinger, Bernardo de Souza, Georgi L. Stoychev                                                    
                                                                 
  APM, various basis sets, CI-OPT, improved COSX, DLPNO-Multilevel,           
  DOCKER, DRACO, updates on ESD, Fragmentator, GOAT, IRC, LR-CPCM, L-BFGS, MBIS, meta-GGA TD-DFT gradient, ML-optimized integration grids, 
  MM, NACMEs, nearIR, NEB, NEB-TS, NL-DFT gradient (VV10), 2- and 3-layer-ONIOM, interface openCOSMO-RS, QMMM,   
  Crystal-QMMM, RESP, rigid body optimization, SF, symmetry and pop. for TD-DFT, various functionals, SOLVATOR                                   
                                                                         
[Other institutions]                                                     
  V. Asgeirsson          : NEB                                           
  Christoph Bannwarth    : sTDA-DFT, sTD-DFT, PBEh-3c, B97-3c, D3        
  Giovanni Bistoni       : ETS/NOCV, ADLD/ADEX, COVALED                  
  Martin Brehm           : Molecular dynamics                            
  Ronald Cardenas        : ETS/NOCV                                      
  Martina Colucci        : COVALED                                       
  Sebastian Ehlert       : rSCAN, r2SCAN, r2SCAN-3c, D4, dhf basis sets  
  Marvin Friede          : D4 for Fr, Ra, Ac-Lr                          
  Lars Goerigk           : TD-DFT with DH, B97 family of functionals     
  Stefan Grimme          : VdW corrections, initial TS optimization, DFT functionals, gCP, sTDA/sTD-DF 
  Waldemar Hujo          : DFT-NL                                        
  H. Jonsson             : NEB                                           
  Holger Kruse           : gCP                                           
  Marcel Mueller         : wB97X-3c, vDZP basis set                      
  Hagen Neugebauer       : wr2SCAN, Native XTB                           
  Gianluca Regni         : ADLD/ADEX                                     
  Tobias Risthaus        : pre 6.0 range-separated hybrid DFT and stability analysis
  Lukas Wittmann         : regularized MP2, r2SCAN double-hybrids, wr2SCAN        
                                                                         
We gratefully acknowledge several colleagues who have allowed us to      
interface, adapt or use parts of their codes:                            
  Ed Valeev, F. Pavosevic, A. Kumar             : LibInt (2-el integral package), F12 methods 
  Garnet Chan, S. Sharma, J. Yang, R. Olivares  : DMRG                   
  Ulf Ekstrom                                   : XCFun DFT Library      
  Mihaly Kallay                                 : mrcc  (arbitrary order and MRCC methods)
  Frank Weinhold                                : gennbo (NPA and NBO analysis)           
  Simon Mueller                                 : openCOSMO-RS                            
  Christopher J. Cramer and Donald G. Truhlar   : smd solvation model                     
  S Lehtola, MJT Oliveira, MAL Marques          : LibXC Library                           
  Liviu Ungur et al                             : ANISO software                          


 Your calculation uses the libint2 library for the computation of 2-el integrals
 For citations please refer to: http://libint.valeyev.net

 Your ORCA version has been built with support for libXC version: 7.0.0
 For citations please refer to: https://libxc.gitlab.io

 This ORCA versions uses:
   CBLAS   interface :  Fast vector & matrix operations
   LAPACKE interface :  Fast linear algebra routines
   SCALAPACK package :  Parallel linear algebra routines
   Shared memory     :  Shared parallel matrices
   BLAS/LAPACK       :  OpenBLAS 0.3.29  USE64BITINT DYNAMIC_ARCH NO_AFFINITY Zen SINGLE_THREADED
        Core in use  :  Zen
   Copyright (c) 2011-2014, The OpenBLAS Project


  ***********************************
  * Starting time: Mon Jul  7 13:35:57 2025
  * Host name:     gadolinium01
  * Process ID:    3747569
  * Working dir.:  /local/scratch/mehlhorn/61507
  ***********************************



***************************************
The coordinates will be read from file: run_loose.xyz
***************************************


Your calculation utilizes the atom-pairwise dispersion correction
with the Becke-Johnson damping scheme (D3BJ)


================================================================================

----- Orbital basis set information -----
Your calculation utilizes the basis: def-TZVP
   H-Kr: A. Schäfer, C. Huber, R. Ahlrichs; J. Chem. Phys. 100, 5829 (1994)
   Rb-At: K. Eichkorn, F. Weigend, O. Treutler, R. Ahlrichs; Theor. Chem. Acc. 97, 119 (1997)
   Rn: F. Weigend, R. Ahlrichs; Phys. Chem. Chem. Phys. 7, 3297 (2005)
   Fr-Ra: I. S. Lim, P. Schwerdtfeger, B. Metz, H. Stoll, J. Chem. Phys. 122, 104103 (2005)
   Ac-Lr: X. Cao, M. Dolg, J. Molec. Struct. Theochem. 673 (2004)
----- AuxJ basis set information -----
Your calculation utilizes the auxiliary basis: def2/J
   H-Rn: F. Weigend, Phys. Chem. Chem. Phys. 8, 1057 (2006).
   Fr-Lr: K. Eichkorn, F. Weigend, O. Treutler, R. Ahlrichs; Theor. Chem. Acc. 97, 119 (1997).

================================================================================
                                        WARNINGS
                       Please study these warnings very carefully!
================================================================================


WARNING: Geometry Optimization
  ===> : Switching off AutoStart
         For restart on a previous wavefunction, please use MOREAD

================================================================================
                                       INPUT FILE
================================================================================
NAME = run_tight.inp
|  1> 
|  2> 
|  3> %pal nprocs 64 end
|  4> 
|  5> ! PBE 	# functional used for the MOF calculations later (non-expensive)
|  6> ! RKS	# closed shell for SBU
|  7> ! D3BJ  # better geometries at low cost
|  8> ! def-TZVP def-ECP def2/J  	# Ahlrichs basis set triple zeta with core potentials and auxilarry basis set for coulomb integrals
|  9> ! Freq 	# Frequency analysis to check the stabiltity of the structures
| 10> 
| 11> ! NoPop # population analysis not necessary	
| 12> 
| 13> ! RI 		# speed up calculation 
| 14> ! DEFGRID3 # dense Grid
| 15> ! TightSCF # tight SCF criteria as basis for Geom.-Opt.
| 16> ! TightOpt # tight convergence criteria for geometry optimizations
| 17> 
| 18> ! SmallPrint
| 19> 
| 20> 
| 21> * xyzFile 0 1 run_loose.xyz # no spin
| 22> 
| 23>                          ****END OF INPUT****
================================================================================

                       *****************************
                       * Geometry Optimization Run *
                       *****************************

Geometry optimization settings:
Update method            Update   .... BFGS
Choice of coordinates    CoordSys .... (2022) Redundant Internals
Initial Hessian          InHess   .... Almloef's Model
Max. no of cycles        MaxIter  .... 60

Convergence Tolerances:
Energy Change            TolE     ....  1.0000e-06 Eh
Max. Gradient            TolMAXG  ....  1.0000e-04 Eh/bohr
RMS Gradient             TolRMSG  ....  3.0000e-05 Eh/bohr
Max. Displacement        TolMAXD  ....  1.0000e-03 bohr
RMS Displacement         TolRMSD  ....  6.0000e-04 bohr
Strict Convergence                .... False

------------------------------------------------------------------------------
                        ORCA OPTIMIZATION COORDINATE SETUP
------------------------------------------------------------------------------

The optimization will be done in redundant internal coordinates (2022)
Making redundant internal coordinates   ...  (2022 redundants) done
Evaluating the initial hessian          ...  (Almloef) done
Evaluating the coordinates              ...  done
Calculating the B-matrix                .... done
Calculating the G-matrix                .... done
The number of degrees of freedom        ....   90

    -----------------------------------------------------------------
                    Redundant Internal Coordinates


    -----------------------------------------------------------------
         Definition                    Initial Value    Approx d2E/dq
    -----------------------------------------------------------------
      1. B(C   5,N   4)                  1.3596         0.625701   
      2. B(C   6,C   5)                  1.4389         0.522096   
      3. B(C   8,C   7)                  1.3965         0.610012   
      4. B(C   8,C   5)                  1.4207         0.558217   
      5. B(C   9,C   6)                  1.4161         0.567757   
      6. B(C  10,C   9)                  1.3921         0.620044   
      7. B(C  10,C   7)                  1.4170         0.565893   
      8. B(C  11,C   6)                  1.4729         0.460845   
      9. B(C  11,O   2)                  1.2341         0.992165   
     10. B(C  11,O   0)                  1.3594         0.626128   
     11. B(C  12,C   7)                  1.4947         0.425257   
     12. B(C  12,O   3)                  1.2197         1.046002   
     13. B(C  12,O   1)                  1.3604         0.623981   
     14. B(H  13,C   8)                  1.1017         0.344982   
     15. B(H  14,C   9)                  1.0999         0.347209   
     16. B(H  15,C  10)                  1.0986         0.348870   
     17. B(H  16,N   4)                  1.0188         0.419002   
     18. B(H  17,O   2)                  1.8808         0.017657   
     19. B(H  17,N   4)                  1.0290         0.403540   
     20. B(H  18,O   0)                  0.9875         0.469949   
     21. B(H  19,O   1)                  0.9878         0.469516   
     22. A(C  11,O   0,H  18)          105.0649         0.364367   
     23. A(C  12,O   1,H  19)          105.3617         0.364096   
     24. A(C   5,N   4,H  17)          117.6784         0.354993   
     25. A(C   5,N   4,H  16)          120.1170         0.357266   
     26. A(H  16,N   4,H  17)          122.1835         0.298368   
     27. A(C   6,C   5,C   8)          117.6757         0.413108   
     28. A(N   4,C   5,C   6)          121.7527         0.418852   
     29. A(N   4,C   5,C   8)          120.5715         0.423885   
     30. A(C   9,C   6,C  11)          120.7060         0.405292   
     31. A(C   5,C   6,C  11)          119.6828         0.399347   
     32. A(C   5,C   6,C   9)          119.6112         0.414353   
     33. A(C   8,C   7,C  12)          117.0231         0.404679   
     34. A(C   8,C   7,C  10)          120.7439         0.425767   
     35. A(C  10,C   7,C  12)          122.2330         0.399360   
     36. A(C   7,C   8,H  13)          118.3951         0.349400   
     37. A(C   5,C   8,H  13)          120.1417         0.344223   
     38. A(C   5,C   8,C   7)          121.4631         0.424728   
     39. A(C   6,C   9,C  10)          121.8476         0.427264   
     40. A(C  10,C   9,H  14)          120.2252         0.350745   
     41. A(C   6,C   9,H  14)          117.9272         0.345577   
     42. A(C   9,C  10,H  15)          121.2074         0.351028   
     43. A(C   7,C  10,H  15)          120.1342         0.345663   
     44. A(C   7,C  10,C   9)          118.6584         0.427013   
     45. A(O   2,C  11,C   6)          125.6868         0.444934   
     46. A(O   0,C  11,C   6)          113.9507         0.409715   
     47. A(O   0,C  11,O   2)          120.3626         0.467363   
     48. A(O   1,C  12,O   3)          122.2168         0.471618   
     49. A(O   3,C  12,C   7)          125.0447         0.442723   
     50. A(O   1,C  12,C   7)          112.7385         0.403690   
     51. D(C   8,C   5,N   4,H  17)   -179.4210         0.031748   
     52. D(C   8,C   5,N   4,H  16)     -1.0517         0.031748   
     53. D(C   6,C   5,N   4,H  17)      0.6974         0.031748   
     54. D(C   6,C   5,N   4,H  16)    179.0667         0.031748   
     55. D(C   9,C   6,C   5,C   8)     -0.1297         0.018593   
     56. D(C  11,C   6,C   5,N   4)     -0.3176         0.018593   
     57. D(C  11,C   6,C   5,C   8)    179.7975         0.018593   
     58. D(C   9,C   6,C   5,N   4)    179.7552         0.018593   
     59. D(C   5,C   8,C   7,C  12)   -179.9890         0.025700   
     60. D(H  13,C   8,C   5,C   6)   -179.9191         0.021340   
     61. D(H  13,C   8,C   5,N   4)      0.1946         0.021340   
     62. D(C   5,C   8,C   7,C  10)     -0.0227         0.025700   
     63. D(C   7,C   8,C   5,N   4)   -179.7722         0.021340   
     64. D(H  13,C   8,C   7,C  10)   -179.9901         0.025700   
     65. D(H  13,C   8,C   7,C  12)      0.0437         0.025700   
     66. D(C   7,C   8,C   5,C   6)      0.1141         0.021340   
     67. D(H  14,C   9,C   6,C  11)      0.0895         0.022105   
     68. D(H  14,C   9,C   6,C   5)   -179.9841         0.022105   
     69. D(C  10,C   9,C   6,C  11)   -179.8698         0.022105   
     70. D(C  10,C   9,C   6,C   5)      0.0566         0.022105   
     71. D(H  15,C  10,C   9,H  14)      0.0615         0.026603   
     72. D(C   7,C  10,C   9,H  14)   -179.9214         0.026603   
     73. D(C   7,C  10,C   9,C   6)      0.0369         0.026603   
     74. D(H  15,C  10,C   7,C  12)     -0.0733         0.021954   
     75. D(H  15,C  10,C   7,C   8)    179.9622         0.021954   
     76. D(H  15,C  10,C   9,C   6)   -179.9802         0.026603   
     77. D(C   9,C  10,C   7,C  12)    179.9097         0.021954   
     78. D(C   9,C  10,C   7,C   8)     -0.0547         0.021954   
     79. D(O   0,C  11,C   6,C   5)   -179.9469         0.014467   
     80. D(C   6,C  11,O   0,H  18)   -179.9748         0.028804   
     81. D(O   2,C  11,O   0,H  18)      0.0259         0.028804   
     82. D(O   2,C  11,C   6,C   9)    179.9788         0.014467   
     83. D(O   2,C  11,C   6,C   5)      0.0524         0.014467   
     84. D(O   0,C  11,C   6,C   9)     -0.0205         0.014467   
     85. D(O   3,C  12,C   7,C  10)   -179.9157         0.012365   
     86. D(O   3,C  12,C   7,C   8)      0.0500         0.012365   
     87. D(O   1,C  12,C   7,C  10)      0.1074         0.012365   
     88. D(O   1,C  12,C   7,C   8)   -179.9269         0.012365   
     89. D(C   7,C  12,O   1,H  19)    179.9908         0.028593   
     90. D(O   3,C  12,O   1,H  19)      0.0132         0.028593   
    -----------------------------------------------------------------

Number of atoms                         .... 20
Number of degrees of freedom            .... 90


         *************************************************************
         *                GEOMETRY OPTIMIZATION CYCLE   1            *
         *************************************************************
---------------------------------
CARTESIAN COORDINATES (ANGSTROEM)
---------------------------------
  O     -3.269324   -1.570781   -0.051496
  O      3.634010   -1.176281    0.088385
  O     -3.544684    0.662197   -0.122738
  O      3.604360    1.082666    0.026987
  N     -1.361492    2.210923   -0.127690
  C     -0.655209    1.050410   -0.073818
  C     -1.306873   -0.232236   -0.050635
  C      1.508993   -0.111014    0.009777
  C      0.764950    1.069705   -0.040894
  C     -0.526460   -1.412730    0.000473
  C      0.864724   -1.372856    0.030493
  C     -2.777725   -0.303652   -0.078661
  C      2.997197    0.024892    0.041288
  H      1.305648    2.029453   -0.055642
  H     -1.053199   -2.378188    0.016871
  H      1.459923   -2.295444    0.069781
  H     -0.874835    3.105932   -0.128691
  H     -2.388318    2.145379   -0.140626
  H     -4.250972   -1.465810   -0.075105
  H      4.597886   -0.960964    0.105242

----------------------------
CARTESIAN COORDINATES (A.U.)
----------------------------
  NO LB      ZA    FRAG     MASS         X           Y           Z
   0 O     8.0000    0    15.999   -6.178128   -2.968347   -0.097313
   1 O     8.0000    0    15.999    6.867284   -2.222850    0.167023
   2 O     8.0000    0    15.999   -6.698483    1.251371   -0.231941
   3 O     8.0000    0    15.999    6.811253    2.045942    0.050998
   4 N     7.0000    0    14.007   -2.572847    4.178039   -0.241299
   5 C     6.0000    0    12.011   -1.238166    1.984986   -0.139496
   6 C     6.0000    0    12.011   -2.469632   -0.438862   -0.095686
   7 C     6.0000    0    12.011    2.851584   -0.209785    0.018476
   8 C     6.0000    0    12.011    1.445546    2.021450   -0.077279
   9 C     6.0000    0    12.011   -0.994865   -2.669673    0.000893
  10 C     6.0000    0    12.011    1.634091   -2.594323    0.057624
  11 C     6.0000    0    12.011   -5.249139   -0.573820   -0.148648
  12 C     6.0000    0    12.011    5.663881    0.047039    0.078023
  13 H     1.0000    0     1.008    2.467316    3.835111   -0.105148
  14 H     1.0000    0     1.008   -1.990258   -4.494124    0.031882
  15 H     1.0000    0     1.008    2.758855   -4.337761    0.131866
  16 H     1.0000    0     1.008   -1.653199    5.869360   -0.243191
  17 H     1.0000    0     1.008   -4.513267    4.054180   -0.265745
  18 H     1.0000    0     1.008   -8.033172   -2.769979   -0.141928
  19 H     1.0000    0     1.008    8.688746   -1.815959    0.198879

--------------------------------
INTERNAL COORDINATES (ANGSTROEM)
--------------------------------
 O      0   0   0     0.000000000000     0.00000000     0.00000000
 O      1   0   0     6.916012355819     0.00000000     0.00000000
 O      1   2   0     2.251019709066    93.79336036     0.00000000
 O      2   1   3     2.259976182342    92.48571937     0.13222692
 N      3   1   2     2.676734347783   118.30970578     0.18487923
 C      5   3   1     1.359606112703    85.97207772   359.73401116
 C      6   5   3     1.438882145110   121.75270723     0.26599929
 C      2   1   3     2.378375987241    29.89319887   359.95667155
 C      8   2   1     1.396518731472   148.86075064   179.91687336
 C      7   6   5     1.416059449390   119.61119572   179.75516123
 C     10   7   6     1.392078499649   121.84759593     0.05664645
 C      3   1   2     1.234112628046    31.40492754     0.08428131
 C      4   2   1     1.219728635876    30.61443073   359.91607633
 H      9   8   2     1.101675213747   118.39512745   359.96908664
 H     10   7   6     1.099923382251   117.92721612   180.01590420
 H     11  10   7     1.098623962281   121.20739009   180.01980821
 H      5   3   1     1.018762011735   153.88627958   182.09131558
 H      5   3   1     1.028997159061    31.70907485   180.46083426
 H      1   2   3     0.987526072042   170.62556744   359.64950980
 H      2   1   3     0.987776827583   170.67816110     0.71789189

---------------------------
INTERNAL COORDINATES (A.U.)
---------------------------
 O      0   0   0     0.000000000000     0.00000000     0.00000000
 O      1   0   0    13.069369291314     0.00000000     0.00000000
 O      1   2   0     4.253810772194    93.79336036     0.00000000
 O      2   1   3     4.270736053810    92.48571937     0.13222692
 N      3   1   2     5.058294850569   118.30970578     0.18487923
 C      5   3   1     2.569283203015    85.97207772   359.73401116
 C      6   5   3     2.719093193246   121.75270723     0.26599929
 C      2   1   3     4.494479259380    29.89319887   359.95667155
 C      8   2   1     2.639037943374   148.86075064   179.91687336
 C      7   6   5     2.675964548698   119.61119572   179.75516123
 C     10   7   6     2.630647121257   121.84759593     0.05664645
 C      3   1   2     2.332134885420    31.40492754     0.08428131
 C      4   2   1     2.304953079507    30.61443073   359.91607633
 H      9   8   2     2.081864442510   118.39512745   359.96908664
 H     10   7   6     2.078553960751   117.92721612   180.01590420
 H     11  10   7     2.076098412874   121.20739009   180.01980821
 H      5   3   1     1.925181197821   153.88627958   182.09131558
 H      5   3   1     1.944522823208    31.70907485   180.46083426
 H      1   2   3     1.866153826266   170.62556744   359.64950980
 H      2   1   3     1.866627685566   170.67816110     0.71789189

---------------------
BASIS SET INFORMATION
---------------------
There are 4 groups of distinct atoms

 Group   1 Type O   : 11s6p1d contracted to 5s3p1d pattern {62111/411/1}
 Group   2 Type N   : 11s6p1d contracted to 5s3p1d pattern {62111/411/1}
 Group   3 Type C   : 11s6p1d contracted to 5s3p1d pattern {62111/411/1}
 Group   4 Type H   : 5s1p contracted to 3s1p pattern {311/1}

Atom   0O    basis set group =>   1
Atom   1O    basis set group =>   1
Atom   2O    basis set group =>   1
Atom   3O    basis set group =>   1
Atom   4N    basis set group =>   2
Atom   5C    basis set group =>   3
Atom   6C    basis set group =>   3
Atom   7C    basis set group =>   3
Atom   8C    basis set group =>   3
Atom   9C    basis set group =>   3
Atom  10C    basis set group =>   3
Atom  11C    basis set group =>   3
Atom  12C    basis set group =>   3
Atom  13H    basis set group =>   4
Atom  14H    basis set group =>   4
Atom  15H    basis set group =>   4
Atom  16H    basis set group =>   4
Atom  17H    basis set group =>   4
Atom  18H    basis set group =>   4
Atom  19H    basis set group =>   4
---------------------------------
AUXILIARY/J BASIS SET INFORMATION
---------------------------------
There are 4 groups of distinct atoms

 Group   1 Type O   : 12s5p4d2f1g contracted to 6s4p3d1f1g pattern {711111/2111/211/2/1}
 Group   2 Type N   : 12s5p4d2f1g contracted to 6s4p3d1f1g pattern {711111/2111/211/2/1}
 Group   3 Type C   : 12s5p4d2f1g contracted to 6s4p3d1f1g pattern {711111/2111/211/2/1}
 Group   4 Type H   : 5s2p1d contracted to 3s1p1d pattern {311/2/1}

Atom   0O    basis set group =>   1
Atom   1O    basis set group =>   1
Atom   2O    basis set group =>   1
Atom   3O    basis set group =>   1
Atom   4N    basis set group =>   2
Atom   5C    basis set group =>   3
Atom   6C    basis set group =>   3
Atom   7C    basis set group =>   3
Atom   8C    basis set group =>   3
Atom   9C    basis set group =>   3
Atom  10C    basis set group =>   3
Atom  11C    basis set group =>   3
Atom  12C    basis set group =>   3
Atom  13H    basis set group =>   4
Atom  14H    basis set group =>   4
Atom  15H    basis set group =>   4
Atom  16H    basis set group =>   4
Atom  17H    basis set group =>   4
Atom  18H    basis set group =>   4
Atom  19H    basis set group =>   4


           ************************************************************
           *        Program running with 64 parallel MPI-processes    *
           *              working on a common directory               *
           ************************************************************
------------------------------------------------------------------------------
                             ORCA STARTUP CALCULATIONS
                           -- RI-GTO INTEGRALS CHOSEN --
------------------------------------------------------------------------------
------------------------------------------------------------------------------
                   ___                                                        
                  /   \      - P O W E R E D   B Y -                         
                 /     \                                                     
                 |  |  |   _    _      __       _____    __    __             
                 |  |  |  | |  | |    /  \     |  _  \  |  |  /  |          
                  \  \/   | |  | |   /    \    | | | |  |  | /  /          
                 / \  \   | |__| |  /  /\  \   | |_| |  |  |/  /          
                |  |  |   |  __  | /  /__\  \  |    /   |      \           
                |  |  |   | |  | | |   __   |  |    \   |  |\   \          
                \     /   | |  | | |  |  |  |  | |\  \  |  | \   \       
                 \___/    |_|  |_| |__|  |__|  |_| \__\ |__|  \__/        
                                                                              
                      - O R C A' S   B I G   F R I E N D -                    
                                      &                                       
                       - I N T E G R A L  F E E D E R -                       
                                                                              
 v1 FN, 2020, v2 2021, v3 2022-2024                                           
------------------------------------------------------------------------------


----------------------
SHARK INTEGRAL PACKAGE
----------------------

Number of atoms                             ...     20
Number of basis functions                   ...    289
Number of shells                            ...    145
Maximum angular momentum                    ...      2
Integral batch strategy                     ... SHARK/LIBINT Hybrid
RI-J (if used) integral strategy            ... SPLIT-RIJ (Revised 2003 algorithm where possible)
Printlevel                                  ...      1
Contraction scheme used                     ... SEGMENTED contraction
Prescreening option                         ... SCHWARTZ
   Thresh                                   ... 2.500e-11
   Tcut                                     ... 2.500e-12
   Tpresel                                  ... 2.500e-12 
Coulomb Range Separation                    ... NOT USED
Exchange Range Separation                   ... NOT USED
Multipole approximations                    ... NOT USED
Finite Nucleus Model                        ... NOT USED
CABS basis                                  ... NOT available
Auxiliary Coulomb fitting basis             ... AVAILABLE
   # of basis functions in Aux-J            ...    714
   # of shells in Aux-J                     ...    230
   Maximum angular momentum in Aux-J        ...      4
Auxiliary J/K fitting basis                 ... NOT available
Auxiliary Correlation fitting basis         ... NOT available
Auxiliary 'external' fitting basis          ... NOT available

Checking pre-screening integrals            ... done (  0.0 sec) Dimension = 145
   => SHARK Basis and OBASIS are compatible. Storing Pre-screening
Shell pair information
Shell pair cut-off parameter TPreSel        ...   2.5e-12
Total number of shell pairs                 ...     10585
Shell pairs after pre-screening             ...      8544
Total number of primitive shell pairs       ...     38533
Primitive shell pairs kept                  ...     20979
          la=0 lb=0:   2863 shell pairs
          la=1 lb=0:   3310 shell pairs
          la=1 lb=1:    962 shell pairs
          la=2 lb=0:    838 shell pairs
          la=2 lb=1:    501 shell pairs
          la=2 lb=2:     70 shell pairs

Checking whether 4 symmetric matrices of dimension 289 fit in memory
:Max Core in MB      =   4096.00
 MB in use           =     13.98
 MB left             =   4082.02
 MB needed           =      1.28
 Data fit in memory  = YES
Calculating RI/J V-Matrix + Cholesky decomp.... done (  0.0 sec)
Calculating Nuclear repulsion               ... done (  0.0 sec) ENN=    752.108003184748 Eh

Diagonalization of the overlap matrix:
Smallest eigenvalue                        ... 8.986e-06
Time for diagonalization                   ...    0.013 sec
Threshold for overlap eigenvalues          ... 1.000e-07
Number of eigenvalues below threshold      ... 0
Time for construction of square roots      ...    0.012 sec
Total time needed                          ...    0.028 sec

-------------------
DFT GRID GENERATION
-------------------

General Integration Accuracy     IntAcc      ... 4.959
Radial Grid Type                 RadialGrid  ... OptM3 with GC (2021)
Angular Grid (max. ang.)         AngularGrid ... 6 (Lebedev-590)
Angular grid pruning method      GridPruning ... 4 (adaptive)
Weight generation scheme         WeightScheme... mBecke (2022)
Basis function cutoff            BFCut       ... 1.0000e-11
Integration weight cutoff        WCut        ... 1.0000e-14
Partially contracted basis set               ... off
Rotationally invariant grid construction     ... off
Angular grids for H and He will be reduced by one unit

Total number of grid points                  ...   246583
Total number of batches                      ...     3863
Average number of points per batch           ...       63
Average number of grid points per atom       ...    12329
Grids setup in   2.9 sec
Initializing property integral containers    ... done (  0.0 sec)

SHARK setup successfully completed in   3.1 seconds

Maximum memory used throughout the entire STARTUP-calculation: 54.3 MB


           ************************************************************
           *        Program running with 64 parallel MPI-processes    *
           *              working on a common directory               *
           ************************************************************
-------------------------------------------------------------------------------
                                 ORCA GUESS
                   Start orbitals & Density for SCF / CASSCF
-------------------------------------------------------------------------------

------------
SCF SETTINGS
------------
Hamiltonian:
 Density Functional     Method          .... DFT(GTOs)
 Exchange Functional    Exchange        .... PBE
   PBE kappa parameter   XKappa         ....  0.804000
   PBE mue parameter    XMuePBE         ....  0.219520
 Correlation Functional Correlation     .... PBE
   PBE beta parameter  CBetaPBE         ....  0.066725
 LDA part of GGA corr.  LDAOpt          .... PW91-LDA
 Gradients option       PostSCFGGA      .... off
   NL short-range parameter             ....  6.400000
 RI-approximation to the Coulomb term is turned on
   Number of AuxJ basis functions       .... 714


General Settings:
 Integral files         IntName         .... run_tight
 Hartree-Fock type      HFTyp           .... RHF
 Total Charge           Charge          ....    0
 Multiplicity           Mult            ....    1
 Number of Electrons    NEL             ....   94
 Basis Dimension        Dim             ....  289
 Nuclear Repulsion      ENuc            ....    752.1080031847 Eh

Convergence Acceleration:
 AO-DIIS                CNVDIIS         .... on
   Start iteration      DIISMaxIt       ....    12
   Startup error        DIISStart       ....  0.200000
   # of expansion vecs  DIISMaxEq       ....     5
   Bias factor          DIISBfac        ....   1.050
   Max. coefficient     DIISMaxC        ....  10.000
 MO-DIIS                CNVKDIIS        .... off
 Trust-Rad. Augm. Hess. CNVTRAH         .... auto
   Auto Start mean grad. ratio tolernc. ....  1.125000
   Auto Start start iteration           ....    50
   Auto Start num. interpolation iter.  ....    10
   Max. Number of Micro iterations      ....    24
   Max. Number of Macro iterations      .... Maxiter - #DIIS iter
   Number of Davidson start vectors     ....     2
   Converg. threshold    (grad. norm)   ....   1.000e-05
   Grad. Scal. Fac. for Micro threshold ....   0.100
   Minimum threshold for Micro iter.    ....   1.000e-02
   NR start threshold (gradient norm)   ....   1.000e-04
   Initial trust radius                 ....   0.400
   Minimum AH scaling param. (alpha)    ....   1.000
   Maximum AH scaling param. (alpha)    .... 1000.000
   Quad. conv. algorithm                .... NR
   White noise on init. David. guess    .... on
   Maximum white noise                  ....   0.010
   Pseudo random numbers                .... off
   Inactive MOs                         .... canonical
   Orbital update algorithm             .... Taylor
   Preconditioner                       .... Diag
   Full preconditioner red. dimension   ....   250
 SOSCF                 CNVSOSCF           .... on
   Start iteration     SOSCFMaxIt         ....   150
   Startup grad/error  SOSCFStart         ....  0.003300
   Hessian update      SOSCFHessUp        .... L-BFGS
   Autom. constraints  SOSCFAutoConstrain .... off
 Level Shifting         CNVShift        .... on
   Level shift para.    LevelShift      ....    0.2500
   Turn off err/grad.   ShiftErr        ....    0.0010
 Zerner damping         CNVZerner       .... off
 Static damping         CNVDamp         .... on
   Fraction old density DampFac         ....    0.7000
   Max. Damping (<1)    DampMax         ....    0.9800
   Min. Damping (>=0)   DampMin         ....    0.0000
   Turn off err/grad.   DampErr         ....    0.1000

SCF Procedure:
 Maximum # iterations   MaxIter         ....   125
 SCF integral mode      SCFMode         .... Direct
   Integral package                     .... SHARK and LIBINT hybrid scheme
 Reset frequency        DirectResetFreq ....    20
 Integral Threshold     Thresh          ....  2.500e-11 Eh
 Primitive CutOff       TCut            ....  2.500e-12 Eh

Convergence Tolerance:
 Convergence Check Mode ConvCheckMode   .... Total+1el-Energy
 Convergence forced     ConvForced      .... 0
 Energy Change          TolE            ....  1.000e-08 Eh
 1-El. energy change                    ....  1.000e-05 Eh
 Orbital Gradient       TolG            ....  1.000e-05
 Orbital Rotation angle TolX            ....  1.000e-05
 DIIS Error             TolErr          ....  5.000e-07

------------------------------
INITIAL GUESS: MODEL POTENTIAL
------------------------------
Loading Hartree-Fock densities                     ... done
Calculating cut-offs                               ... done
Initializing the effective Hamiltonian             ... done
Setting up the integral package (SHARK)            ... done
Starting the Coulomb interaction                   ... done (   0.0 sec)
Making the grid                                    ... done (   0.2 sec)
Mapping shells                                     ... done
Starting the XC term evaluation                    ... done (   0.0 sec)
  promolecular density results
     # of electrons  =     93.994915172
     EX              =    -82.115275510
     EC              =     -3.171094292
     EX+EC           =    -85.286369802
Transforming the Hamiltonian                       ... done (   0.0 sec)
Diagonalizing the Hamiltonian                      ... done (   0.0 sec)
Back transforming the eigenvectors                 ... done (   0.0 sec)
Now organizing SCF variables                       ... done
                      ------------------
                      INITIAL GUESS DONE (   0.3 sec)
                      ------------------
             **** ENERGY FILE WAS UPDATED (run_tight.en.tmp) ****
Finished Guess after   1.6 sec
Maximum memory used throughout the entire GUESS-calculation: 17.2 MB


           ************************************************************
           *        Program running with 64 parallel MPI-processes    *
           *              working on a common directory               *
           ************************************************************

-------------------------------------------------------------------------------------------
                                      ORCA LEAN-SCF
                              memory conserving SCF solver
-------------------------------------------------------------------------------------------

----------------------------------------D-I-I-S--------------------------------------------
Iteration    Energy (Eh)           Delta-E    RMSDP     MaxDP     DIISErr   Damp  Time(sec)
-------------------------------------------------------------------------------------------
               ***  Starting incremental Fock matrix formation  ***
    1    -663.8807751442914196     0.00e+00  3.98e-02  3.08e-01  2.75e-01  0.700   0.3
Warning: op=0 Small HOMO/LUMO gap (   0.075) - skipping pre-diagonalization
         Will do a full diagonalization
    2    -664.0763144604054560    -1.96e-01  2.75e-02  2.36e-01  9.14e-02  0.700   0.4
                               ***Turning on AO-DIIS***
    3    -664.1350534043515381    -5.87e-02  9.48e-03  6.37e-02  2.35e-02  0.700   0.3
    4    -664.1725716562330035    -3.75e-02  1.13e-02  5.79e-02  1.44e-02  0.000   0.3
    5    -664.2601391330617844    -8.76e-02  6.86e-03  6.09e-02  9.02e-03  0.000   0.3
                              *** Initializing SOSCF ***
---------------------------------------S-O-S-C-F--------------------------------------
Iteration    Energy (Eh)           Delta-E    RMSDP     MaxDP     MaxGrad    Time(sec)
--------------------------------------------------------------------------------------
    6    -664.2609983878662661    -8.59e-04  2.17e-03  1.90e-02  2.98e-03     0.3
               *** Restarting incremental Fock matrix formation ***
    7    -664.2610665615914058    -6.82e-05  1.36e-03  6.98e-03  7.50e-04     0.3
    8    -664.2610165409089404     5.00e-05  8.60e-04  4.36e-03  2.01e-03     0.3
    9    -664.2610819180108592    -6.54e-05  5.37e-04  2.54e-03  1.62e-04     0.3
   10    -664.2610774911547651     4.43e-06  2.27e-04  9.68e-04  3.65e-04     0.3
   11    -664.2610837591757900    -6.27e-06  2.21e-04  1.94e-03  7.17e-05     0.3
   12    -664.2610833471667320     4.12e-07  1.08e-04  8.39e-04  1.32e-04     0.3
   13    -664.2610839733845296    -6.26e-07  1.14e-04  8.37e-04  3.48e-05     0.3
   14    -664.2610838472264732     1.26e-07  5.48e-05  5.03e-04  5.24e-05     0.3
   15    -664.2610840152278797    -1.68e-07  8.23e-05  5.83e-04  4.07e-06     0.3
   16    -664.2610840027293762     1.25e-08  2.26e-05  7.70e-05  8.96e-06     0.3
   17    -664.2610840079162244    -5.19e-09  5.99e-05  2.88e-04  1.02e-06     0.3
                 **** Energy Check signals convergence ****

               *****************************************************
               *                     SUCCESS                       *
               *           SCF CONVERGED AFTER  17 CYCLES          *
               *****************************************************

             **** ENERGY FILE WAS UPDATED (run_tight.en.tmp) ****

----------------
TOTAL SCF ENERGY
----------------

Total Energy       :       -664.26108401486067 Eh          -18075.46303 eV

Components:
Nuclear Repulsion  :        752.10800318474844 Eh           20465.89923 eV
Electronic Energy  :      -1416.36908719960911 Eh          -38541.36227 eV
One Electron Energy:      -2399.09441590122105 Eh          -65282.67796 eV
Two Electron Energy:        982.72532870161194 Eh           26741.31570 eV

Virial components:
Potential Energy   :      -1325.73094102114260 Eh          -36074.97292 eV
Kinetic Energy     :        661.46985700628193 Eh           17999.50989 eV
Virial Ratio       :          2.00421973424641

DFT components:
N(Alpha)           :       46.999999928792 electrons
N(Beta)            :       46.999999928792 electrons
N(Total)           :       93.999999857584 electrons
E(X)               :      -83.360341612161 Eh       
E(C)               :       -3.178179936664 Eh       
E(XC)              :      -86.538521548824 Eh       

---------------
SCF CONVERGENCE
---------------

  Last Energy change         ...    5.1868e-09  Tolerance :   1.0000e-08
  Last MAX-Density change    ...    2.8782e-04  Tolerance :   1.0000e-07
  Last RMS-Density change    ...    5.9850e-05  Tolerance :   5.0000e-09
  Last DIIS Error            ...    2.9800e-03  Tolerance :   5.0000e-07
  Last Orbital Gradient      ...    1.0237e-06  Tolerance :   1.0000e-05
  Last Orbital Rotation      ...    3.0987e-06  Tolerance :   1.0000e-05


----------------
ORBITAL ENERGIES
----------------

  NO   OCC          E(Eh)            E(eV) 
   0   2.0000     -18.806247      -511.7440 
   1   2.0000     -18.806228      -511.7435 
   2   2.0000     -18.751767      -510.2615 
   3   2.0000     -18.746139      -510.1084 
   4   2.0000     -14.009083      -381.2065 
   5   2.0000     -10.020370      -272.6681 
   6   2.0000     -10.017186      -272.5815 
   7   2.0000      -9.956242      -270.9231 
   8   2.0000      -9.920496      -269.9504 
   9   2.0000      -9.916462      -269.8406 
  10   2.0000      -9.907450      -269.5954 
  11   2.0000      -9.904575      -269.5172 
  12   2.0000      -9.897563      -269.3264 
  13   2.0000      -1.026605       -27.9353 
  14   2.0000      -1.024174       -27.8692 
  15   2.0000      -0.938153       -25.5284 
  16   2.0000      -0.936512       -25.4838 
  17   2.0000      -0.861614       -23.4457 
  18   2.0000      -0.784273       -21.3412 
  19   2.0000      -0.720079       -19.5943 
  20   2.0000      -0.676945       -18.4206 
  21   2.0000      -0.636144       -17.3104 
  22   2.0000      -0.586485       -15.9591 
  23   2.0000      -0.555778       -15.1235 
  24   2.0000      -0.548068       -14.9137 
  25   2.0000      -0.498637       -13.5686 
  26   2.0000      -0.480313       -13.0700 
  27   2.0000      -0.470131       -12.7929 
  28   2.0000      -0.447334       -12.1726 
  29   2.0000      -0.435278       -11.8445 
  30   2.0000      -0.427884       -11.6433 
  31   2.0000      -0.415691       -11.3115 
  32   2.0000      -0.409817       -11.1517 
  33   2.0000      -0.398761       -10.8508 
  34   2.0000      -0.391135       -10.6433 
  35   2.0000      -0.373209       -10.1555 
  36   2.0000      -0.361608        -9.8399 
  37   2.0000      -0.355896        -9.6844 
  38   2.0000      -0.346870        -9.4388 
  39   2.0000      -0.320978        -8.7343 
  40   2.0000      -0.298174        -8.1137 
  41   2.0000      -0.289070        -7.8660 
  42   2.0000      -0.287503        -7.8234 
  43   2.0000      -0.250114        -6.8060 
  44   2.0000      -0.248668        -6.7666 
  45   2.0000      -0.243499        -6.6260 
  46   2.0000      -0.197239        -5.3671 
  47   0.0000      -0.107828        -2.9342 
  48   0.0000      -0.044617        -1.2141 
  49   0.0000      -0.036603        -0.9960 
  50   0.0000       0.004186         0.1139 
  51   0.0000       0.006938         0.1888 
  52   0.0000       0.015690         0.4269 
  53   0.0000       0.031376         0.8538 
  54   0.0000       0.051422         1.3993 
  55   0.0000       0.065215         1.7746 
  56   0.0000       0.082413         2.2426 
  57   0.0000       0.098899         2.6912 
*Only the first 10 virtual orbitals were printed.
-------
TIMINGS
-------

Total SCF time: 0 days 0 hours 0 min 6 sec 

Total time                  ....       6.679 sec
Sum of individual times     ....       6.425 sec  ( 96.2%)

SCF preparation             ....       1.379 sec  ( 20.6%)
Fock matrix formation       ....       3.698 sec  ( 55.4%)
  Startup                   ....       0.022 sec  (  0.6% of F)
  Split-RI-J                ....       0.839 sec  ( 22.7% of F)
  XC integration            ....       2.523 sec  ( 68.2% of F)
    XC Preparation          ....       0.000 sec  (  0.0% of XC)
    Basis function eval.    ....       0.374 sec  ( 14.8% of XC)
    Density eval.           ....       0.335 sec  ( 13.3% of XC)
    XC-Functional eval.     ....       0.044 sec  (  1.7% of XC)
    XC-Potential eval.      ....       0.272 sec  ( 10.8% of XC)
Diagonalization             ....       0.000 sec  (  0.0%)
Density matrix formation    ....       0.147 sec  (  2.2%)
Total Energy calculation    ....       0.087 sec  (  1.3%)
Population analysis         ....       0.000 sec  (  0.0%)
Orbital Transformation      ....       0.095 sec  (  1.4%)
Orbital Orthonormalization  ....       0.000 sec  (  0.0%)
DIIS solution               ....       0.377 sec  (  5.6%)
SOSCF solution              ....       0.642 sec  (  9.6%)
Finished LeanSCF after   6.7 sec

Maximum memory used throughout the entire LEANSCF-calculation: 20.2 MB


           ************************************************************
           *        Program running with 64 parallel MPI-processes    *
           *              working on a common directory               *
           ************************************************************

------------------------------------------------------------------------------
                         ORCA PROPERTY INTEGRAL CALCULATIONS
------------------------------------------------------------------------------

GBWName                                   ... run_tight.gbw
Number of atoms                           ...     20
Number of basis functions                 ...    289
Max core memory                           ...   4096 MB

Dipole integrals                          ... YES
Quadrupole integrals                      ...  NO
Linear momentum integrals                 ...  NO
Angular momentum integrals                ...  NO
Higher moments length integrals           ...  NO
Higher moments velocity integrals         ...  NO
Kinetic energy integrals                  ...  NO
GIAO right hand sides                     ...  NO
GIAO dipole derivative integrals          ...  NO
SOC integrals                             ...  NO
EPR diamagnetic integrals (GIAO)          ...  NO
EPR gauge integrals                       ...  NO
Field gradient integrals                  ...  NO (   0 nuclei)
Spin-dipole/Fermi contact integrals       ...  NO (   0 nuclei)
Contact density integrals                 ...  NO (   0 nuclei)
Nucleus-orbit integrals                   ...  NO (   0 nuclei)
Geometric perturbations                   ...  NO (  20 nuclei)

Choice of electric origin   ... Center of mass
Position of electric origin ... ( -0.0318, -0.0036, -0.0510) 
Choice of magnetic origin   ... GIAO
Position of magnetic origin ... (  0.0000,  0.0000,  0.0000) 

Calculating integrals                     ... Electric Dipole (Length)     done (  0.0 sec)

Property integrals calculated in   0.0 sec

Maximum memory used throughout the entire PROPINT-calculation: 17.8 MB


-------------------------------------------------------------------------------
                          DFT DISPERSION CORRECTION                            
                                                                               
                              DFTD3 V3.1  Rev 1                                
                          USING Becke-Johnson damping                          
-------------------------------------------------------------------------------
The PBE functional is recognized
Active option DFTDOPT                   ...         4   

molecular C6(AA) [au] = 4860.647211 


            DFT-D V3
 parameters
 s6 scaling factor         :     1.0000 
 a1 scaling factor         :     0.4289 
 s8 scaling factor         :     0.7875 
 a2 scaling factor         :     4.4407 
 ad hoc parameters k1-k3   :    16.0000     1.3333    -4.0000 

 Edisp/kcal,au: -14.174291623923  -0.022588169100 
 E6   /kcal   :  -9.899246192 
 E8   /kcal   :  -4.275045432 
 % E8         :  30.160557898 

-------------------------   ----------------
Dispersion correction           -0.022588169
-------------------------   ----------------


-------------------------   --------------------
FINAL SINGLE POINT ENERGY      -664.283672183961
-------------------------   --------------------



           ************************************************************
           *        Program running with 64 parallel MPI-processes    *
           *              working on a common directory               *
           ************************************************************
------------------------------------------------------------------------------
                         ORCA SCF GRADIENT CALCULATION
------------------------------------------------------------------------------

Nuc. rep. gradient        (SHARK) ... done (  0.0 sec)
HCore & Overlap gradient  (SHARK) ... done (  0.0 sec)
Split-RIJ-J gradient      (SHARK) ... done (  0.2 sec)
XC gradient                       ... done (  0.6 sec)
Dispersion correction             ... done (  0.0 sec)

-------------------
DISPERSION GRADIENT
-------------------

   1   O   :   -0.000222418   -0.000126847   -0.000000930
   2   O   :    0.000232634   -0.000071224    0.000007320
   3   O   :   -0.000297201    0.000039859   -0.000007407
   4   O   :    0.000254404    0.000111989    0.000002983
   5   N   :   -0.000072380    0.000317246   -0.000011577
   6   C   :   -0.000031330    0.000152064   -0.000005496
   7   C   :   -0.000055945   -0.000039683   -0.000000434
   8   C   :    0.000124557   -0.000042369    0.000003968
   9   C   :    0.000078748    0.000115541   -0.000001884
  10   C   :    0.000017469   -0.000229614    0.000006701
  11   C   :    0.000042691   -0.000198944    0.000006370
  12   C   :   -0.000338513   -0.000106471   -0.000004159
  13   C   :    0.000307651    0.000024951    0.000006462
  14   H   :    0.000068966    0.000153090   -0.000002827
  15   H   :   -0.000010720   -0.000187047    0.000004995
  16   H   :    0.000030003   -0.000187429    0.000005865
  17   H   :   -0.000024139    0.000203353   -0.000005921
  18   H   :   -0.000103238    0.000160822   -0.000006908
  19   H   :   -0.000141561   -0.000057825   -0.000001234
  20   H   :    0.000140322   -0.000031462    0.000004115

Difference to translation invariance:
           :    0.0000000000    0.0000000000    0.0000000000

Difference to rotation invariance:
           :    0.0000000000    0.0000000000   -0.0000000000

Norm of the Dispersion gradient    ...    0.0010007858
RMS gradient                       ...    0.0001292009
MAX gradient                       ...    0.0003385126

------------------
CARTESIAN GRADIENT
------------------

   1   O   :    0.008535311    0.002800576    0.000092651
   2   O   :   -0.008628426    0.001383163   -0.000257977
   3   O   :   -0.000558774   -0.000614509   -0.000022298
   4   O   :    0.000487778   -0.000161198   -0.000004764
   5   N   :    0.001106634   -0.002470422   -0.000045026
   6   C   :   -0.002481789    0.003397362   -0.000188774
   7   C   :   -0.001621978   -0.000237000   -0.000011125
   8   C   :    0.004523496   -0.001125112    0.000091095
   9   C   :   -0.000945314   -0.000204047    0.000003093
  10   C   :   -0.000782410    0.000986495   -0.000080533
  11   C   :    0.000864140    0.000970633    0.000009932
  12   C   :   -0.004078987   -0.002651998    0.000060753
  13   C   :    0.002926629   -0.002667338    0.000208499
  14   H   :    0.003265578    0.005256203   -0.000063117
  15   H   :   -0.003487920   -0.005798219    0.000102609
  16   H   :    0.003910149   -0.005639506    0.000230104
  17   H   :    0.003473521    0.005455790    0.000010368
  18   H   :   -0.006270091   -0.001414729   -0.000066014
  19   H   :   -0.007676986    0.000953432   -0.000196362
  20   H   :    0.007439438    0.001780425    0.000126885

Difference to translation invariance:
           :   -0.0000000000    0.0000000000    0.0000000000

Difference to rotation invariance:
           :   -0.0000027655    0.0000010987    0.0000127713

Norm of the Cartesian gradient     ...    0.0241659787
RMS gradient                       ...    0.0031198144
MAX gradient                       ...    0.0086284255

-------
TIMINGS
-------

Total SCF gradient time     ....        0.869 sec

Densities                   ....       0.001 sec  (  0.2%)
One electron gradient       ....       0.030 sec  (  3.4%)
RI-J Coulomb gradient       ....       0.190 sec  ( 21.9%)
XC gradient                 ....       0.605 sec  ( 69.6%)

Maximum memory used throughout the entire SCFGRAD-calculation: 37.5 MB
------------------------------------------------------------------------------
                         ORCA GEOMETRY RELAXATION STEP
------------------------------------------------------------------------------

Reading the OPT-File                    .... done
Getting information on internals        .... done
Copying old internal coords+grads       .... done
Making the new internal coordinates     .... (2022 redundants) done
Validating the new internal coordinates .... (2022 redundants) done
Calculating the B-matrix                .... done
Calculating the G,G- and P matrices     .... done
Transforming gradient to internals      .... done
Projecting the internal gradient        .... done
Number of atoms                         ....  20
Number of internal coordinates          ....  90
Current Energy                          ....  -664.283672184 Eh
Current gradient norm                   ....     0.024165979 Eh/bohr
Maximum allowed component of the step   ....  0.300
Current trust radius                    ....  0.300
Evaluating the initial hessian          ....  (Almloef) done
Projecting the Hessian                  .... done
Forming the augmented Hessian           .... done
Diagonalizing the augmented Hessian     .... done
Last element of RFO vector              ....  0.998461344
Lowest eigenvalues of augmented Hessian:
 -0.001340023  0.012365297  0.014466585  0.017540235  0.018670992
Length of the computed step             ....  0.055537633
The final length of the internal step   ....  0.055537633
Converting the step to Cartesian space:
 Initial RMS(Int)=    0.0058541806
Transforming coordinates:
 Iter   0:  RMS(Cart)=    0.0130292194 RMS(Int)=    0.9365328722
done
Storing new coordinates                 .... done

                                .--------------------.
          ----------------------|Geometry convergence|-------------------------
          Item                value                   Tolerance       Converged
          ---------------------------------------------------------------------
          RMS gradient        0.0026303680            0.0000300000      NO
          MAX gradient        0.0077374011            0.0001000000      NO
          RMS step            0.0058541806            0.0006000000      NO
          MAX step            0.0195953465            0.0010000000      NO
          -------------------------------------------------------------------------
          ........................................................
          Max(Bonds)      0.0104      Max(Angles)    0.16
          Max(Dihed)        0.08      Max(Improp)    0.00
          ---------------------------------------------------------------------

The optimization has not yet converged - more geometry cycles are needed


    ---------------------------------------------------------------------------
                         Redundant Internal Coordinates
                            (Angstroem and degrees)

        Definition                    Value    dE/dq     Step     New-Value
    ----------------------------------------------------------------------------
     1. B(C   5,N   4)                1.3596  0.002295 -0.0019    1.3577   
     2. B(C   6,C   5)                1.4389  0.005170 -0.0051    1.4338   
     3. B(C   8,C   7)                1.3965  0.006840 -0.0060    1.3906   
     4. B(C   8,C   5)                1.4207  0.006332 -0.0059    1.4147   
     5. B(C   9,C   6)                1.4161  0.005727 -0.0053    1.4108   
     6. B(C  10,C   9)                1.3921  0.007508 -0.0064    1.3856   
     7. B(C  10,C   7)                1.4170  0.005480 -0.0052    1.4118   
     8. B(C  11,C   6)                1.4729  0.003886 -0.0044    1.4684   
     9. B(C  11,O   2)                1.2341 -0.000181  0.0001    1.2342   
    10. B(C  11,O   0)                1.3594 -0.003812  0.0032    1.3626   
    11. B(C  12,C   7)                1.4947  0.002248 -0.0028    1.4919   
    12. B(C  12,O   3)                1.2197  0.000103 -0.0001    1.2197   
    13. B(C  12,O   1)                1.3604 -0.003354  0.0028    1.3632   
    14. B(H  13,C   8)                1.1017  0.006183 -0.0094    1.0922   
    15. B(H  14,C   9)                1.0999  0.006761 -0.0103    1.0897   
    16. B(H  15,C  10)                1.0986  0.006862 -0.0104    1.0883   
    17. B(H  16,N   4)                1.0188  0.006452 -0.0081    1.0106   
    18. B(H  17,O   2)                1.8808 -0.000206  0.0043    1.8850   
    19. B(H  17,N   4)                1.0290  0.006211 -0.0082    1.0208   
    20. B(H  18,O   0)                0.9875  0.007737 -0.0087    0.9788   
    21. B(H  19,O   1)                0.9878  0.007650 -0.0086    0.9792   
    22. A(C  11,O   0,H  18)          105.06 -0.000247    0.04    105.10   
    23. A(C  12,O   1,H  19)          105.36 -0.000216    0.03    105.40   
    24. A(C   5,N   4,H  17)          117.68 -0.000827    0.15    117.83   
    25. A(C   5,N   4,H  16)          120.12 -0.000016    0.01    120.12   
    26. A(H  16,N   4,H  17)          122.18  0.000843   -0.16    122.03   
    27. A(C   6,C   5,C   8)          117.68 -0.000183    0.04    117.72   
    28. A(N   4,C   5,C   6)          121.75 -0.000872    0.12    121.88   
    29. A(N   4,C   5,C   8)          120.57  0.001055   -0.16    120.41   
    30. A(C   9,C   6,C  11)          120.71  0.000209   -0.05    120.65   
    31. A(C   5,C   6,C  11)          119.68 -0.000526    0.09    119.77   
    32. A(C   5,C   6,C   9)          119.61  0.000317   -0.03    119.58   
    33. A(C   8,C   7,C  12)          117.02 -0.000084    0.02    117.04   
    34. A(C   8,C   7,C  10)          120.74 -0.000364    0.04    120.78   
    35. A(C  10,C   7,C  12)          122.23  0.000447   -0.06    122.18   
    36. A(C   7,C   8,H  13)          118.40 -0.000478    0.07    118.47   
    37. A(C   5,C   8,H  13)          120.14  0.000075   -0.02    120.12   
    38. A(C   5,C   8,C   7)          121.46  0.000403   -0.05    121.41   
    39. A(C   6,C   9,C  10)          121.85  0.000044   -0.01    121.84   
    40. A(C  10,C   9,H  14)          120.23  0.000274   -0.05    120.18   
    41. A(C   6,C   9,H  14)          117.93 -0.000318    0.05    117.98   
    42. A(C   9,C  10,H  15)          121.21  0.000345   -0.05    121.16   
    43. A(C   7,C  10,H  15)          120.13 -0.000129    0.03    120.17   
    44. A(C   7,C  10,C   9)          118.66 -0.000217    0.01    118.67   
    45. A(O   2,C  11,C   6)          125.69  0.001025   -0.12    125.57   
    46. A(O   0,C  11,C   6)          113.95  0.000328   -0.05    113.90   
    47. A(O   0,C  11,O   2)          120.36 -0.001353    0.16    120.53   
    48. A(O   1,C  12,O   3)          122.22 -0.000828    0.10    122.32   
    49. A(O   3,C  12,C   7)          125.04  0.000332   -0.04    125.01   
    50. A(O   1,C  12,C   7)          112.74  0.000496   -0.07    112.67   
    51. D(C   8,C   5,N   4,H  17)   -179.42 -0.000004    0.01   -179.41   
    52. D(C   8,C   5,N   4,H  16)     -1.05 -0.000004    0.00     -1.05   
    53. D(C   6,C   5,N   4,H  17)      0.70 -0.000013    0.03      0.72   
    54. D(C   6,C   5,N   4,H  16)    179.07 -0.000012    0.02    179.09   
    55. D(C   9,C   6,C   5,C   8)     -0.13 -0.000017    0.04     -0.09   
    56. D(C  11,C   6,C   5,N   4)     -0.32 -0.000001    0.01     -0.31   
    57. D(C  11,C   6,C   5,C   8)    179.80 -0.000011    0.03    179.82   
    58. D(C   9,C   6,C   5,N   4)    179.76 -0.000007    0.02    179.78   
    59. D(C   5,C   8,C   7,C  12)   -179.99  0.000001   -0.00   -179.99   
    60. D(H  13,C   8,C   5,C   6)   -179.92  0.000013   -0.03   -179.95   
    61. D(H  13,C   8,C   5,N   4)      0.19  0.000006   -0.02      0.18   
    62. D(C   5,C   8,C   7,C  10)     -0.02 -0.000005    0.01     -0.01   
    63. D(C   7,C   8,C   5,N   4)   -179.77  0.000008   -0.02   -179.79   
    64. D(H  13,C   8,C   7,C  10)   -179.99 -0.000003    0.01   -179.98   
    65. D(H  13,C   8,C   7,C  12)      0.04  0.000003   -0.01      0.04   
    66. D(C   7,C   8,C   5,C   6)      0.11  0.000016   -0.04      0.07   
    67. D(H  14,C   9,C   6,C  11)      0.09 -0.000003    0.01      0.10   
    68. D(H  14,C   9,C   6,C   5)   -179.98  0.000002   -0.01   -179.99   
    69. D(C  10,C   9,C   6,C  11)   -179.87  0.000002   -0.00   -179.87   
    70. D(C  10,C   9,C   6,C   5)      0.06  0.000007   -0.02      0.04   
    71. D(H  15,C  10,C   9,H  14)      0.06  0.000009   -0.02      0.04   
    72. D(C   7,C  10,C   9,H  14)   -179.92  0.000010   -0.02   -179.94   
    73. D(C   7,C  10,C   9,C   6)      0.04  0.000004   -0.01      0.03   
    74. D(H  15,C  10,C   7,C  12)     -0.07 -0.000011    0.03     -0.05   
    75. D(H  15,C  10,C   7,C   8)    179.96 -0.000005    0.01    179.97   
    76. D(H  15,C  10,C   9,C   6)   -179.98  0.000004   -0.01   -179.99   
    77. D(C   9,C  10,C   7,C  12)    179.91 -0.000011    0.03    179.94   
    78. D(C   9,C  10,C   7,C   8)     -0.05 -0.000005    0.01     -0.04   
    79. D(O   0,C  11,C   6,C   5)   -179.95 -0.000011    0.02   -179.92   
    80. D(C   6,C  11,O   0,H  18)   -179.97  0.000022   -0.06   -180.03   
    81. D(O   2,C  11,O   0,H  18)      0.03 -0.000008    0.03      0.06   
    82. D(O   2,C  11,C   6,C   9)    179.98  0.000027   -0.08    179.90   
    83. D(O   2,C  11,C   6,C   5)      0.05  0.000021   -0.07     -0.01   
    84. D(O   0,C  11,C   6,C   9)     -0.02 -0.000005    0.01     -0.01   
    85. D(O   3,C  12,C   7,C  10)   -179.92 -0.000010    0.03   -179.89   
    86. D(O   3,C  12,C   7,C   8)      0.05 -0.000016    0.05      0.10   
    87. D(O   1,C  12,C   7,C  10)      0.11  0.000018   -0.06      0.05   
    88. D(O   1,C  12,C   7,C   8)   -179.93  0.000012   -0.04   -179.97   
    89. D(C   7,C  12,O   1,H  19)    179.99 -0.000014    0.04    180.03   
    90. D(O   3,C  12,O   1,H  19)      0.01  0.000013   -0.04     -0.03   
    ----------------------------------------------------------------------------

Geometry step timings:
Preparation and reading OPT file:      0.000 s ( 0.875 %)
Internal coordinates            :      0.000 s ( 0.875 %)
B/P matrices and projection     :      0.001 s (36.585 %)
Hessian update/contruction      :      0.000 s (13.966 %)
Making the step                 :      0.001 s (27.479 %)
Converting the step to Cartesian:      0.000 s ( 3.467 %)
Storing new data                :      0.000 s ( 1.102 %)
Checking convergence            :      0.000 s ( 0.907 %)
Final printing                  :      0.000 s (14.679 %)
Total time                      :      0.003 s

Time for energy+gradient        :     17.729 s
Time for complete geometry iter :     19.330 s

         *************************************************************
         *                GEOMETRY OPTIMIZATION CYCLE   2            *
         *************************************************************
---------------------------------
CARTESIAN COORDINATES (ANGSTROEM)
---------------------------------
  O     -3.259042   -1.575107   -0.051555
  O      3.623024   -1.178795    0.088679
  O     -3.535397    0.662566   -0.121945
  O      3.594217    1.083752    0.026422
  N     -1.355751    2.207809   -0.127150
  C     -0.653147    1.047296   -0.073629
  C     -1.302685   -0.230737   -0.050905
  C      1.501564   -0.108634    0.009404
  C      0.761075    1.067289   -0.041205
  C     -0.524683   -1.406473    0.000245
  C      0.860039   -1.366038    0.030293
  C     -2.769032   -0.303923   -0.079068
  C      2.987092    0.026012    0.040431
  H      1.296279    2.019284   -0.056163
  H     -1.045229   -2.363618    0.016368
  H      1.449380   -2.280060    0.069509
  H     -0.871018    3.094614   -0.128158
  H     -2.374741    2.147810   -0.139824
  H     -4.232361   -1.473805   -0.074176
  H      4.579014   -0.967641    0.105728

----------------------------
CARTESIAN COORDINATES (A.U.)
----------------------------
  NO LB      ZA    FRAG     MASS         X           Y           Z
   0 O     8.0000    0    15.999   -6.158696   -2.976521   -0.097425
   1 O     8.0000    0    15.999    6.846524   -2.227600    0.167578
   2 O     8.0000    0    15.999   -6.680932    1.252068   -0.230442
   3 O     8.0000    0    15.999    6.792086    2.047995    0.049930
   4 N     7.0000    0    14.007   -2.561999    4.172154   -0.240278
   5 C     6.0000    0    12.011   -1.234269    1.979102   -0.139138
   6 C     6.0000    0    12.011   -2.461718   -0.436030   -0.096196
   7 C     6.0000    0    12.011    2.837545   -0.205288    0.017770
   8 C     6.0000    0    12.011    1.438224    2.016883   -0.077867
   9 C     6.0000    0    12.011   -0.991507   -2.657848    0.000463
  10 C     6.0000    0    12.011    1.625238   -2.581437    0.057245
  11 C     6.0000    0    12.011   -5.232711   -0.574332   -0.149417
  12 C     6.0000    0    12.011    5.644786    0.049156    0.076403
  13 H     1.0000    0     1.008    2.449613    3.815894   -0.106133
  14 H     1.0000    0     1.008   -1.975196   -4.466591    0.030932
  15 H     1.0000    0     1.008    2.738931   -4.308690    0.131353
  16 H     1.0000    0     1.008   -1.645986    5.847974   -0.242184
  17 H     1.0000    0     1.008   -4.487609    4.058773   -0.264230
  18 H     1.0000    0     1.008   -7.998003   -2.785088   -0.140173
  19 H     1.0000    0     1.008    8.653083   -1.828577    0.199796

--------------------------------
INTERNAL COORDINATES (ANGSTROEM)
--------------------------------
 O      0   0   0     0.000000000000     0.00000000     0.00000000
 O      1   0   0     6.894893852426     0.00000000     0.00000000
 O      1   2   0     2.255771883448    93.77847306     0.00000000
 O      2   1   3     2.263586793784    92.53276636     0.08593512
 N      3   1   2     2.671826614462   118.28288455     0.21469038
 C      5   3   1     1.357685110789    85.85616381   359.71352426
 C      6   5   3     1.433800420964   121.87702585     0.28376689
 C      2   1   3     2.377419326052    30.06220699   359.91420904
 C      8   2   1     1.390567687745   148.98630450   179.89452452
 C      7   6   5     1.410765063178   119.57800770   179.77803337
 C     10   7   6     1.385637648673   121.84190293     0.03756351
 C      3   1   2     1.234202291871    31.35490571     0.15871881
 C      4   2   1     1.219676611030    30.59206229   359.86372060
 H      9   8   2     1.092228205502   118.46569384     0.00000000
 H     10   7   6     1.089658263933   117.97859930   180.00866373
 H     11  10   7     1.088254551523   121.16209188   180.01223331
 H      5   3   1     1.010638934465   153.99568760   182.06897277
 H      5   3   1     1.020832784696    31.97459070   180.44817278
 H      1   2   3     0.978838288802   170.76312825   359.36825084
 H      2   1   3     0.979179714930   170.84071624     0.75484572

---------------------------
INTERNAL COORDINATES (A.U.)
---------------------------
 O      0   0   0     0.000000000000     0.00000000     0.00000000
 O      1   0   0    13.029461103543     0.00000000     0.00000000
 O      1   2   0     4.262791080316    93.77847306     0.00000000
 O      2   1   3     4.277559120612    92.53276636     0.08593512
 N      3   1   2     5.049020578656   118.28288455     0.21469038
 C      5   3   1     2.565653035494    85.85616381   359.71352426
 C      6   5   3     2.709490126322   121.87702585     0.28376689
 C      2   1   3     4.492671431730    30.06220699   359.91420904
 C      8   2   1     2.627792100518   148.98630450   179.89452452
 C      7   6   5     2.665959608710   119.57800770   179.77803337
 C     10   7   6     2.618475676843   121.84190293     0.03756351
 C      3   1   2     2.332304325494    31.35490571     0.15871881
 C      4   2   1     2.304854766795    30.59206229   359.86372060
 H      9   8   2     2.064012184143   118.46569384     0.00000000
 H     10   7   6     2.059155698398   117.97859930   180.00866373
 H     11  10   7     2.056503066373   121.16209188   180.01223331
 H      5   3   1     1.909830806417   153.99568760   182.06897277
 H      5   3   1     1.929094391603    31.97459070   180.44817278
 H      1   2   3     1.849736295231   170.76312825   359.36825084
 H      2   1   3     1.850381497110   170.84071624     0.75484572



           ************************************************************
           *        Program running with 64 parallel MPI-processes    *
           *              working on a common directory               *
           ************************************************************
------------------------------------------------------------------------------
                   ___                                                        
                  /   \      - P O W E R E D   B Y -                         
                 /     \                                                     
                 |  |  |   _    _      __       _____    __    __             
                 |  |  |  | |  | |    /  \     |  _  \  |  |  /  |          
                  \  \/   | |  | |   /    \    | | | |  |  | /  /          
                 / \  \   | |__| |  /  /\  \   | |_| |  |  |/  /          
                |  |  |   |  __  | /  /__\  \  |    /   |      \           
                |  |  |   | |  | | |   __   |  |    \   |  |\   \          
                \     /   | |  | | |  |  |  |  | |\  \  |  | \   \       
                 \___/    |_|  |_| |__|  |__|  |_| \__\ |__|  \__/        
                                                                              
                      - O R C A' S   B I G   F R I E N D -                    
                                      &                                       
                       - I N T E G R A L  F E E D E R -                       
                                                                              
 v1 FN, 2020, v2 2021, v3 2022-2024                                           
------------------------------------------------------------------------------


----------------------
SHARK INTEGRAL PACKAGE
----------------------

Number of atoms                             ...     20
Number of basis functions                   ...    289
Number of shells                            ...    145
Maximum angular momentum                    ...      2
Integral batch strategy                     ... SHARK/LIBINT Hybrid
RI-J (if used) integral strategy            ... SPLIT-RIJ (Revised 2003 algorithm where possible)
Printlevel                                  ...      1
Contraction scheme used                     ... SEGMENTED contraction
Prescreening option                         ... SCHWARTZ
   Thresh                                   ... 2.500e-11
   Tcut                                     ... 2.500e-12
   Tpresel                                  ... 2.500e-12 
Coulomb Range Separation                    ... NOT USED
Exchange Range Separation                   ... NOT USED
Multipole approximations                    ... NOT USED
Finite Nucleus Model                        ... NOT USED
CABS basis                                  ... NOT available
Auxiliary Coulomb fitting basis             ... AVAILABLE
   # of basis functions in Aux-J            ...    714
   # of shells in Aux-J                     ...    230
   Maximum angular momentum in Aux-J        ...      4
Auxiliary J/K fitting basis                 ... NOT available
Auxiliary Correlation fitting basis         ... NOT available
Auxiliary 'external' fitting basis          ... NOT available

Checking pre-screening integrals            ... done (  0.0 sec) Dimension = 145
   => SHARK Basis and OBASIS are compatible. Storing Pre-screening
Shell pair information
Shell pair cut-off parameter TPreSel        ...   2.5e-12
Total number of shell pairs                 ...     10585
Shell pairs after pre-screening             ...      8560
Total number of primitive shell pairs       ...     38533
Primitive shell pairs kept                  ...     21032
          la=0 lb=0:   2872 shell pairs
          la=1 lb=0:   3313 shell pairs
[...]
     29       0.001218   0.000439  -0.000013   0.000008   0.000001  -0.000001
     30      -0.015166   0.044583   0.000393  -0.000085  -0.000184   0.000070
     31       0.028505  -0.067472   0.000832   0.000060  -0.000055   0.000047
     32      -0.001168   0.002960  -0.000016  -0.000003  -0.000003   0.000000
     33      -0.000227  -0.000090  -0.004615   0.000677   0.000204  -0.003228
     34      -0.000795  -0.000353   0.002631  -0.000708   0.000052  -0.001338
     35       0.000019   0.000009  -0.000173   0.000034   0.000003  -0.000029
     36      -0.000046   0.000349   0.000130   0.000093   0.003213  -0.000033
     37       0.000322  -0.000749  -0.000061   0.000074  -0.000908  -0.000036
     38      -0.000010   0.000029   0.000005  -0.000000   0.000100   0.000000
     39      -0.008688  -0.006506   0.002709   0.000267  -0.000037  -0.000031
     40      -0.014990  -0.013213   0.001859  -0.002830  -0.000492   0.000286
     41       0.000238   0.000236  -0.000032   0.000039   0.000013  -0.000007
     42       0.433139   0.185451  -0.000369   0.000976  -0.000021   0.000558
     43       0.808184   0.339254   0.000361   0.000382  -0.000061  -0.000232
     44      -0.013785  -0.005707  -0.000016   0.000011   0.000001   0.000021
     45       0.207515  -0.495222   0.001538   0.000044  -0.000804  -0.000048
     46      -0.328902   0.772050  -0.001905  -0.000289   0.000207   0.000001
     47       0.014208  -0.033542   0.000081  -0.000004  -0.000023  -0.000000
     48      -0.000404   0.000442   0.175026   0.451973  -0.001353  -0.029314
     49      -0.001575   0.000797   0.341260   0.809008  -0.002549  -0.052700
     50       0.000014   0.000009  -0.001721  -0.002780   0.000011   0.000194
     51       0.000716  -0.002443  -0.921446   0.359914  -0.000436  -0.029372
     52       0.000125   0.000218   0.005406  -0.008416  -0.000050  -0.000223
     53       0.000001  -0.000034  -0.013899   0.005112  -0.000002  -0.000398
     54      -0.000286  -0.000094  -0.004852   0.068699  -0.026763   0.992890
     55       0.001292   0.000410   0.003197  -0.005608   0.001902  -0.068534
     56      -0.000046  -0.000015  -0.000186   0.001560  -0.000601   0.022217
     57      -0.000296   0.000448  -0.000512  -0.004716  -0.980572  -0.026106
     58      -0.000644   0.001255  -0.000223  -0.000866  -0.183560  -0.004840
     59       0.000011  -0.000026  -0.000007  -0.000084  -0.017352  -0.000464


-----------
IR SPECTRUM
-----------

 Mode   freq       eps      Int      T**2         TX        TY        TZ
       cm**-1   L/(mol*cm) km/mol    a.u.
----------------------------------------------------------------------------
  6:     43.59   0.000685    3.46  0.004902  (-0.000570 -0.002737  0.069956)
  7:     51.85   0.002647   13.38  0.015932  ( 0.001859  0.001351 -0.126202)
  8:     74.12   0.000027    0.14  0.000113  ( 0.000070 -0.001235  0.010553)
  9:    137.04   0.009050   45.73  0.020608  ( 0.002390  0.002002 -0.143520)
 10:    154.01   0.000150    0.76  0.000304  (-0.017328 -0.000257 -0.001806)
 11:    221.57   0.017986   90.90  0.025332  (-0.002068 -0.000376  0.159146)
 12:    242.81   0.003365   17.01  0.004325  ( 0.000450  0.000869 -0.065760)
 13:    257.86   0.000521    2.63  0.000630  ( 0.024578  0.003869 -0.003376)
 14:    297.94   0.000302    1.52  0.000316  (-0.000966 -0.017692  0.001401)
 15:    364.88   0.001390    7.03  0.001189  ( 0.027956  0.020183 -0.000536)
 16:    403.56   0.002768   13.99  0.002141  (-0.001220  0.001708  0.046218)
 17:    444.22   0.002549   12.88  0.001791  (-0.019616  0.037450 -0.001829)
 18:    489.57   0.003568   18.03  0.002275  ( 0.046722  0.009534  0.000825)
 19:    510.99   0.000786    3.97  0.000480  ( 0.000816 -0.000821 -0.021883)
 20:    546.81   0.000586    2.96  0.000335  ( 0.018263  0.000955 -0.000297)
 21:    551.36   0.011724   59.25  0.006635  (-0.001468  0.002152  0.081417)
 22:    569.06   0.000451    2.28  0.000248  (-0.012568  0.009437 -0.000737)
 23:    601.18   0.018948   95.75  0.009836  (-0.002477  0.002848  0.099103)
 24:    628.87   0.003850   19.46  0.001910  ( 0.015034 -0.040851  0.003946)
 25:    632.02   0.006690   33.81  0.003303  ( 0.000192  0.002717  0.057409)
 26:    659.28   0.001331    6.73  0.000630  ( 0.000589 -0.000621 -0.025087)
 27:    705.66   0.017123   86.53  0.007572  (-0.086410 -0.010178 -0.001377)
 28:    730.38   0.016127   81.50  0.006890  ( 0.001902 -0.002431 -0.082951)
 29:    740.82   0.000664    3.36  0.000280  (-0.004102  0.016206 -0.000644)
 30:    758.64   0.000045    0.23  0.000018  (-0.000405  0.000165  0.004265)
 31:    793.83   0.000257    1.30  0.000101  ( 0.000230 -0.000288 -0.010044)
 32:    850.03   0.001747    8.83  0.000641  ( 0.000716 -0.000684 -0.025306)
 33:    927.59   0.000019    0.09  0.000006  ( 0.000104 -0.000081 -0.002507)
 34:    934.43   0.007724   39.03  0.002580  ( 0.025001 -0.044175  0.001747)
 35:   1028.24   0.002516   12.71  0.000764  (-0.010061  0.025721 -0.000861)
 36:   1053.02   0.044157  223.15  0.013086  (-0.102765 -0.050246 -0.000747)
 37:   1093.23   0.014249   72.01  0.004067  ( 0.040524 -0.049189  0.002362)
 38:   1138.05   0.031499  159.18  0.008637  (-0.047051  0.080078 -0.003341)
 39:   1147.92   0.054430  275.07  0.014797  (-0.121136 -0.010821 -0.002429)
 40:   1168.77   0.033338  168.48  0.008901  (-0.050067 -0.079957  0.001144)
 41:   1269.71   0.001079    5.45  0.000265  (-0.012339 -0.010632 -0.000012)
 42:   1286.77   0.003113   15.73  0.000755  ( 0.026778  0.006141  0.000314)
 43:   1330.41   0.014236   71.94  0.003339  (-0.035491  0.045553 -0.002117)
 44:   1337.21   0.037020  187.08  0.008639  (-0.080771 -0.045988 -0.000576)
 45:   1383.68   0.000210    1.06  0.000047  (-0.006869 -0.000348 -0.000157)
 46:   1438.03   0.006932   35.03  0.001504  ( 0.026026 -0.028706  0.001700)
 47:   1481.78   0.007872   39.78  0.001658  ( 0.038283  0.013859  0.000341)
 48:   1530.61   0.023467  118.59  0.004784  ( 0.060796 -0.032932  0.001956)
 49:   1572.35   0.044752  226.16  0.008882  ( 0.001706 -0.094197  0.002468)
 50:   1619.81   0.014924   75.42  0.002875  (-0.018566  0.050272 -0.001806)
 51:   1685.68   0.063678  321.80  0.011789  (-0.084330  0.068283 -0.003790)
 52:   1731.70   0.056441  285.23  0.010171  ( 0.063059  0.078702 -0.000766)
 53:   3114.75   0.000872    4.41  0.000087  (-0.007040  0.006137 -0.000335)
 54:   3141.87   0.000076    0.39  0.000008  ( 0.001992 -0.001899  0.000095)
 55:   3160.52   0.000055    0.28  0.000005  (-0.001464 -0.001824  0.000015)
 56:   3424.52   0.025285  127.78  0.002304  (-0.046042  0.013521 -0.001161)
 57:   3624.21   0.014741   74.50  0.001269  ( 0.022805  0.027372 -0.000169)
 58:   3632.47   0.016377   82.76  0.001407  (-0.037250  0.004292 -0.000971)
 59:   3637.42   0.015208   76.85  0.001305  ( 0.035138  0.008356  0.000487)

* The epsilon (eps) is given for a Dirac delta lineshape.
** The dipole moment derivative (T) already includes vibrational overlap.

The first frequency considered to be a vibration is 6
The total number of vibrations considered is 54


--------------------------
THERMOCHEMISTRY AT 298.15K
--------------------------

Temperature         ...   298.15 K
Pressure            ...     1.00 atm
Total Mass          ...   181.15 AMU
Quasi RRHO          ...     True
Cut-Off Frequency   ...     1.00 cm^-1

Throughout the following assumptions are being made:
  (1) The electronic state is orbitally nondegenerate
  (2) There are no thermally accessible electronically excited states
  (3) Hindered rotations indicated by low frequency modes are not
      treated as such but are treated as vibrations and this may
      cause some error
  (4) All equations used are the standard statistical mechanics
      equations for an ideal gas
  (5) All vibrations are strictly harmonic

freq.      43.59  E(vib)   ...       0.53 
freq.      51.85  E(vib)   ...       0.52 
freq.      74.12  E(vib)   ...       0.49 
freq.     137.04  E(vib)   ...       0.42 
freq.     154.01  E(vib)   ...       0.40 
freq.     221.57  E(vib)   ...       0.33 
freq.     242.81  E(vib)   ...       0.31 
freq.     257.86  E(vib)   ...       0.30 
freq.     297.94  E(vib)   ...       0.27 
freq.     364.88  E(vib)   ...       0.22 
freq.     403.56  E(vib)   ...       0.19 
freq.     444.22  E(vib)   ...       0.17 
freq.     489.57  E(vib)   ...       0.15 
freq.     510.99  E(vib)   ...       0.14 
freq.     546.81  E(vib)   ...       0.12 
freq.     551.36  E(vib)   ...       0.12 
freq.     569.06  E(vib)   ...       0.11 
freq.     601.18  E(vib)   ...       0.10 
freq.     628.87  E(vib)   ...       0.09 
freq.     632.02  E(vib)   ...       0.09 
freq.     659.28  E(vib)   ...       0.08 
freq.     705.66  E(vib)   ...       0.07 
freq.     730.38  E(vib)   ...       0.06 
freq.     740.82  E(vib)   ...       0.06 
freq.     758.64  E(vib)   ...       0.06 
freq.     793.83  E(vib)   ...       0.05 
freq.     850.03  E(vib)   ...       0.04 
freq.     927.59  E(vib)   ...       0.03 
freq.     934.43  E(vib)   ...       0.03 
freq.    1028.24  E(vib)   ...       0.02 
freq.    1053.02  E(vib)   ...       0.02 
freq.    1093.23  E(vib)   ...       0.02 
freq.    1138.05  E(vib)   ...       0.01 
freq.    1147.92  E(vib)   ...       0.01 
freq.    1168.77  E(vib)   ...       0.01 
freq.    1269.71  E(vib)   ...       0.01 
freq.    1286.77  E(vib)   ...       0.01 
freq.    1330.41  E(vib)   ...       0.01 
freq.    1337.21  E(vib)   ...       0.01 
freq.    1383.68  E(vib)   ...       0.00 
freq.    1438.03  E(vib)   ...       0.00 
freq.    1481.78  E(vib)   ...       0.00 
freq.    1530.61  E(vib)   ...       0.00 
freq.    1572.35  E(vib)   ...       0.00 
freq.    1619.81  E(vib)   ...       0.00 
freq.    1685.68  E(vib)   ...       0.00 
freq.    1731.70  E(vib)   ...       0.00 
freq.    3114.75  E(vib)   ...       0.00 
freq.    3141.87  E(vib)   ...       0.00 
freq.    3160.52  E(vib)   ...       0.00 
freq.    3424.52  E(vib)   ...       0.00 
freq.    3624.21  E(vib)   ...       0.00 
freq.    3632.47  E(vib)   ...       0.00 
freq.    3637.42  E(vib)   ...       0.00 

------------
INNER ENERGY
------------

The inner energy is: U= E(el) + E(ZPE) + E(vib) + E(rot) + E(trans)
    E(el)   - is the total energy from the electronic structure calculation
              = E(kin-el) + E(nuc-el) + E(el-el) + E(nuc-nuc)
    E(ZPE)  - the the zero temperature vibrational energy from the frequency calculation
    E(vib)  - the the finite temperature correction to E(ZPE) due to population
              of excited vibrational states
    E(rot)  - is the rotational thermal energy
    E(trans)- is the translational thermal energy

Summary of contributions to the inner energy U:
Electronic energy                ...   -664.28445198 Eh
Zero point energy                ...      0.14205906 Eh      89.14 kcal/mol
Thermal vibrational correction   ...      0.00906346 Eh       5.69 kcal/mol
Thermal rotational correction    ...      0.00141627 Eh       0.89 kcal/mol
Thermal translational correction ...      0.00141627 Eh       0.89 kcal/mol
-----------------------------------------------------------------------
Total thermal energy                   -664.13049691 Eh


Summary of corrections to the electronic energy:
(perhaps to be used in another calculation)
Total thermal correction                  0.01189600 Eh       7.46 kcal/mol
Non-thermal (ZPE) correction              0.14205906 Eh      89.14 kcal/mol
-----------------------------------------------------------------------
Total correction                          0.15395507 Eh      96.61 kcal/mol


--------
ENTHALPY
--------

The enthalpy is H = U + kB*T
                kB is Boltzmann's constant
Total thermal energy              ...   -664.13049691 Eh 
Thermal Enthalpy correction       ...      0.00094421 Eh       0.59 kcal/mol
-----------------------------------------------------------------------
Total Enthalpy                    ...   -664.12955270 Eh


Note: Only C1 symmetry has been detected, increase convergence thresholds 
      if your molecule has a higher symmetry. Symmetry factor of 1.0 is   
      used for the rotational entropy correction. 
 

Note: Rotational entropy computed according to Herzberg 
Infrared and Raman Spectra, Chapter V,1, Van Nostrand Reinhold, 1945 
Point Group:  C1, Symmetry Number:   1  
Rotational constants in cm-1:     0.063870     0.014874     0.012065 

Vibrational entropy computed according to the QRRHO of S. Grimme
Chem.Eur.J. 2012 18 9955 using a reference frequency of 100.0 cm-1


-------
ENTROPY
-------

The entropy contributions are T*S = T*(S(el)+S(vib)+S(rot)+S(trans))
     S(el)   - electronic entropy
     S(vib)  - vibrational entropy
     S(rot)  - rotational entropy
     S(trans)- translational entropy
The entropies will be listed as multiplied by the temperature to get
units of energy

Electronic entropy                ...      0.00000000 Eh      0.00 kcal/mol
Vibrational entropy               ...      0.01547524 Eh      9.71 kcal/mol
Rotational entropy                ...      0.01488155 Eh      9.34 kcal/mol
Translational entropy             ...      0.01971270 Eh     12.37 kcal/mol
-----------------------------------------------------------------------
Final entropy term                ...      0.05006950 Eh     31.42 kcal/mol

In case the symmetry of your molecule has not been determined correctly
or in case you have a reason to use a different symmetry number we print 
out the resulting rotational entropy values for sn=1,12:

 non-linear molecules -----------------------------------
|  sn= 1 | S(rot)=       0.01488155 Eh      9.34 kcal/mol|
|  sn= 2 | S(rot)=       0.01422709 Eh      8.93 kcal/mol|
|  sn= 3 | S(rot)=       0.01384426 Eh      8.69 kcal/mol|
|  sn= 4 | S(rot)=       0.01357264 Eh      8.52 kcal/mol|
|  sn= 5 | S(rot)=       0.01336195 Eh      8.38 kcal/mol|
|  sn= 6 | S(rot)=       0.01318981 Eh      8.28 kcal/mol|
|  sn= 7 | S(rot)=       0.01304426 Eh      8.19 kcal/mol|
|  sn= 8 | S(rot)=       0.01291818 Eh      8.11 kcal/mol|
|  sn= 9 | S(rot)=       0.01280697 Eh      8.04 kcal/mol|
|  sn=10 | S(rot)=       0.01270749 Eh      7.97 kcal/mol|
|  sn=11 | S(rot)=       0.01261750 Eh      7.92 kcal/mol|
|  sn=12 | S(rot)=       0.01253535 Eh      7.87 kcal/mol|
 linear molecules ---------------------------------------
|  Dinfh | S(rot)=       0.00949671 Eh      5.96 kcal/mol|
|  Cinfv | S(rot)=       0.01015116 Eh      6.37 kcal/mol|
 --------------------------------------------------------


-------------------
GIBBS FREE ENERGY
-------------------

The Gibbs free energy is G = H - T*S

Total enthalpy                    ...   -664.12955270 Eh 
Total entropy correction          ...     -0.05006950 Eh    -31.42 kcal/mol
-----------------------------------------------------------------------
Final Gibbs free energy         ...   -664.17962220 Eh

For completeness - the Gibbs free energy minus the electronic energy
G-E(el)                           ...      0.10482978 Eh     65.78 kcal/mol


Maximum memory used throughout the entire PROP-calculation: 42.7 MB

--------------------------------
SUGGESTED CITATIONS FOR THIS RUN
--------------------------------

Below you find a list of papers that are relevant to this ORCA run
We neither can nor want to force you to cite these papers, but we appreciate if you do
You receive ORCA, which is the product of decades of hard work by many enthusiastic individuals, for free
The only thing we kindly ask in return is that you cite our papers,
We deeply appreciate it, if you show your appreciation for ORCA by not just citing the generic ORCA reference.

Please note that relegating all ORCA citations to the supporting information does *not* help us.
SI sections are not indexed - citations you put there will not count into any citation statistics
But we need these citations in order to attract the funding resources that allow us to do what we are doing

Therefore, if you are a happy ORCA user, please consider citing a few of the papers listed below in the main body of your paper

In addition to the list printed below, the program has created the file run_tight.bibtex that contains the list in bibtex format
You can import this file easily into all common literature databanks and citation aid programs


List of essential papers. We consider these as the minimum necessary citations

  1. Neese, F.
     Software update: the ORCA program system, version 6.0
     WIRES Comput. Molec. Sci. 2025 15(1), e70019
     doi.org/10.1002/wcms.7019

List of papers to cite with high priority. The work reported in these papers was absolutely
necessary for this run to complete.
Our perspective: the developers of density functionals and basis sets usually get cited in chemistry papers
Good! But without the algorithms to do something with them, the functionals or basis sets would not do anything.
Hence, in our opinion, the algorithm design and method developments papers are equally worthy of getting cited

  1. Neese, F.
     An improvement of the resolution of the identity approximation for the formation of the Coulomb matrix
     J. Comp. Chem. 2003 24(14), 1740-1747
     doi.org/10.1002/jcc.10318
  2. Grimme, S.; Antony, J.; Ehrlich, S.; Krieg, H.
     A consistent and accurate ab initio parametrization of density functional dispersion correction (DFT-D) for the 94 elements H-Pu
     J. Chem. Phys. 2010 132 , 154104
     doi.org/10.1063/1.3382344
  3. Grimme, S.; Ehrlich, S.; Goerigk, L.
     Effect of the damping function in dispersion corrected density functional theory
     J. Comput. Chem. 2011 32(7), 1456-1465
     doi.org/10.1002/jcc.21759
  4. Bykov, D.; Petrenko, T.; Izsak, R.; Kossmann, S.; Becker, U.; Valeev, E.; Neese, F.
     Efficient implementation of the analytic second derivatives of Hartree-Fock and hybrid DFT energies: a detailed analysis of different approximations
     Molec. Phys. 2015 113 , 1961-1977
     doi.org/10.1080/00268976.2015.1025114
  5. Neese, F.
     The SHARK Integral Generation and Digestion System
     J. Comp. Chem. 2022 44(3), 381
     doi.org/10.1002/jcc.26942

List of suggested additional citations. These are papers that are important in the 'surrounding' of 
of this run, or papers that preceded the highly important papers. If you like your results we are grateful for a citation.

  1. Neese, F.
     The ORCA program system
     WIRES Comput. Molec. Sci. 2012 2(1), 73-78
     doi.org/10.1002/wcms.81
  2. Neese, F.
     Software update: the ORCA program system, version 4.0
     WIRES Comput. Molec. Sci. 2018 8(1), 1-6
     doi.org/10.1002/wcms.1327
  3. Neese, F.; Wennmohs, F.; Becker, U.; Riplinger, C.
     The ORCA quantum chemistry program package
     J. Chem. Phys. 2020 152(22), 224108
     doi.org/10.1063/5.0004608
  4. Neese, F.
     Software update: The ORCA program system—Version 5.0
     WIRES Comput. Molec. Sci. 2022 12(1), e1606
     doi.org/10.1002/wcms.1606

List of optional additional citations

  1. Neese, F.
     Approximate second-order SCF convergence for spin unrestricted wavefunctions
     Chem. Phys. Lett. 2000 325(1-3), 93-98
     doi.org/10.1016/s0009-2614(00)00662-x

Timings for individual modules:

Sum of individual times          ...      172.427 sec (=   2.874 min)
Startup calculation              ...       42.688 sec (=   0.711 min)  24.8 %
SCF iterations                   ...       56.547 sec (=   0.942 min)  32.8 %
Property integrals               ...       27.251 sec (=   0.454 min)  15.8 %
SCF Response                     ...       17.238 sec (=   0.287 min)  10.0 %
Property calculations            ...        8.379 sec (=   0.140 min)   4.9 %
SCF Gradient evaluation          ...       20.279 sec (=   0.338 min)  11.8 %
Geometry relaxation              ...        0.044 sec (=   0.001 min)   0.0 %
                             ****ORCA TERMINATED NORMALLY****
TOTAL RUN TIME: 0 days 0 hours 3 minutes 7 seconds 237 msec
