
                                 *****************
                                 * O   R   C   A *
                                 *****************

                                            #,                                       
                                            ###                                      
                                            ####                                     
                                            #####                                    
                                            ######                                   
                                           ########,                                 
                                     ,,################,,,,,                         
                               ,,#################################,,                 
                          ,,##########################################,,             
                       ,#########################################, ''#####,          
                    ,#############################################,,   '####,        
                  ,##################################################,,,,####,       
                ,###########''''           ''''###############################       
              ,#####''   ,,,,##########,,,,          '''####'''          '####       
            ,##' ,,,,###########################,,,                        '##       
           ' ,,###''''                  '''############,,,                           
         ,,##''                                '''############,,,,        ,,,,,,###''
      ,#''                                            '''#######################'''  
     '                                                          ''''####''''         
             ,#######,   #######,   ,#######,      ##                                
            ,#'     '#,  ##    ##  ,#'     '#,    #''#        ,####,    ,#,          
            ##       ##  ##   ,#'  ##            #'  '#       #'       ,# #          
            ##       ##  #######   ##           ,######,      #####,      #          
            '#,     ,#'  ##    ##  '#,     ,#' ,#      #,     #,   #      #          
             '#######'   ##     ##  '#######'  #'      '#     '####' #    #          



                #########################################################
                #                        -***-                          #
                #          Department of theory and spectroscopy        #
                #                                                       #
                #                      Frank Neese                      #
                #                                                       #
                #     Directorship, Architecture, Infrastructure        #
                #                    SHARK, DRIVERS                     #
                #        Core code/Algorithms in most modules           #
                #                                                       #
                #        Max Planck Institute fuer Kohlenforschung      #
                #                Kaiser Wilhelm Platz 1                 #
                #                 D-45470 Muelheim/Ruhr                 #
                #                      Germany                          #
                #                                                       #
                #                  All rights reserved                  #
                #                        -***-                          #
                #########################################################


                         Program Version 6.1.0  -  RELEASE   -
                                (GIT: $679e74b$)
                          ($2025-06-10 18:02:51 +0200$)


 With contributions from (in alphabetic order):
[Max-Planck-Institut fuer Kohlenforschung]                               
  Daniel Aravena         : Magnetic Suceptibility                        
  Michael Atanasov       : Ab Initio Ligand Field Theory (pilot matlab implementation)
  Alexander A. Auer      : GIAO ZORA, VPT2 properties, NMR spectrum      
  Ute Becker             : All parallelization in ORCA, NUMFREQ, NUMCALC 
  Giovanni Bistoni       : ED, misc. LED, open-shell LED, HFLD           
  Dmytro Bykov           : pre 5.0 version of the SCF Hessian            
  Marcos Casanova-Páez   : Triplet and SCS-CIS(D). UHF-(DLPNO)-IP/EA/STEOM-CCSD. UHF-CVS-IP/STEOM-CCSD   
  Vijay G. Chilkuri      : MRCI spin determinant printing, contributions to CSF-ICE 
  Pauline Colinet        : FMM embedding                                 
  Dipayan Datta          : RHF DLPNO-CCSD density                        
  Achintya Kumar Dutta   : EOM-CC, STEOM-CC                              
  Nicolas Foglia         : Exact transition moments, OPA infrastructure, MCD improvements    
  Dmitry Ganyushin       : Spin-Orbit,Spin-Spin,Magnetic field MRCI      
  Miquel Garcia-Rates    : C-PCM and meta-GGA Hessian, CCSD/C-PCM, Gaussian charge scheme 
  Tiago L. C. Gouveia    : GS-ROHF, GS-ROCIS                             
  Yang Guo               : DLPNO-NEVPT2, F12-NEVPT2, CIM, IAO-localization        
  Andreas Hansen         : Spin unrestricted coupled pair/coupled cluster methods 
  Ingolf Harden          : AUTO-CI MPn and infrastructure                
  Benjamin Helmich-Paris : MC-RPA, TRAH-(SCF,CASSCF), AVAS, COSX integrals, SCF dyn. polar., MC-PDFT, srDFT 
  Lee Huntington         : MR-EOM, pCC                                   
  Robert Izsak           : Overlap fitted RIJCOSX, COSX-SCS-MP3, EOM     
  Riya Kayal             : Wick's Theorem for AUTO-CI, AUTO-CI UHF-CCSDT 
  Emily Kempfer          : AUTO-CI RHF CISDT and CCSDT, approximate NEVPT4
  Christian Kollmar      : KDIIS, OOCD, Brueckner-CCSD(T), CCSD density, CASPT2, CASPT2-K, improved NEVPT2 
  Axel Koslowski         : Symmetry handling                             
  Simone Kossmann        : meta-GGA functionals, TD-DFT gradient, OOMP2, (MP2 Hessian; deprecated post 5.0) 
  Lucas Lang             : DCDCAS, Hyperfine gauge corrections, ICE-SOC+SSC
  Marvin Lechner         : AUTO-CI (C++ implementation), FIC-MRCC        
  Spencer Leger          : CASSCF response                               
  Dagmar Lenk            : GEPOL surface, SMD, ORCA-2-JSON               
  Dimitrios Liakos       : Extrapolation schemes; Compound Job, Property file
  Dimitrios Manganas     : Further ROCIS development; embedding schemes. LFT, Crystal Embedding 
  Dimitrios Pantazis     : SARC Basis sets                               
  Anastasios Papadopoulos: AUTO-CI, single reference methods and gradients 
  Taras Petrenko         : pre 6.0 DFT Hessian and TD-DFT gradient,  ECA, NRVS 
  Petra Pikulova         : Analytic Raman intensities                    
  Peter Pinski           : DLPNO-MP2, DLPNO-MP2 Gradient                 
  Shashank Vittal Rao    : ES-AILFT, MagRelax                            
  Christoph Reimann      : Effective Core Potentials                     
  Marius Retegan         : Local ZFS, SOC                                
  Christoph Riplinger    : Optimizer, TS searches, QM/MM, DLPNO-CCSD(T), (RO)-DLPNO pert. Triples 
  Michael Roemelt        : Original ROCIS implementation, recursive CI coupling coefficients
  Masaaki Saitow         : Open-shell DLPNO-CCSD energy and density      
  Barbara Sandhoefer     : DKH picture change effects                    
  Yorick L. A. Schmerwitz: GMF and freeze-and-release deltaSCF, NEB S-IDPP initial path                    
  Kantharuban Sivalingam : CASSCF convergence/infrastructure, NEVPT2, NEVPT3, NEVPT4(SD), FIC-MRCI and CEPA variants
  Bernardo de Souza      : ESD, SOC TD-DFT                               
  Georgi L. Stoychev     : AutoAux, RI-MP2 NMR, DLPNO-MP2 response, X2C  
  Van Anh Tran           : RI-MP2 g-tensors                              
  Willem Van den Heuvel  : Paramagnetic NMR                              
  Zikuan Wang            : NOTCH, Electric field optimization            
  Frank Wennmohs         : Technical directorship and infrastructure     
  Hang Xu                : AUTO-CI-Response properties                   
                                                                         
[FACCTs GmbH]                                                            
  Markus Bursch, Nicolas Foglia, Miquel Garcia-Rates, Ingolf Harden, Hagen Neugebauer, Anastasios Papadopoulos, 
  Christoph Riplinger, Bernardo de Souza, Georgi L. Stoychev                                                    
                                                                 
  APM, various basis sets, CI-OPT, improved COSX, DLPNO-Multilevel,           
  DOCKER, DRACO, updates on ESD, Fragmentator, GOAT, IRC, LR-CPCM, L-BFGS, MBIS, meta-GGA TD-DFT gradient, ML-optimized integration grids, 
  MM, NACMEs, nearIR, NEB, NEB-TS, NL-DFT gradient (VV10), 2- and 3-layer-ONIOM, interface openCOSMO-RS, QMMM,   
  Crystal-QMMM, RESP, rigid body optimization, SF, symmetry and pop. for TD-DFT, various functionals, SOLVATOR                                   
                                                                         
[Other institutions]                                                     
  V. Asgeirsson          : NEB                                           
  Christoph Bannwarth    : sTDA-DFT, sTD-DFT, PBEh-3c, B97-3c, D3        
  Giovanni Bistoni       : ETS/NOCV, ADLD/ADEX, COVALED                  
  Martin Brehm           : Molecular dynamics                            
  Ronald Cardenas        : ETS/NOCV                                      
  Martina Colucci        : COVALED                                       
  Sebastian Ehlert       : rSCAN, r2SCAN, r2SCAN-3c, D4, dhf basis sets  
  Marvin Friede          : D4 for Fr, Ra, Ac-Lr                          
  Lars Goerigk           : TD-DFT with DH, B97 family of functionals     
  Stefan Grimme          : VdW corrections, initial TS optimization, DFT functionals, gCP, sTDA/sTD-DF 
  Waldemar Hujo          : DFT-NL                                        
  H. Jonsson             : NEB                                           
  Holger Kruse           : gCP                                           
  Marcel Mueller         : wB97X-3c, vDZP basis set                      
  Hagen Neugebauer       : wr2SCAN, Native XTB                           
  Gianluca Regni         : ADLD/ADEX                                     
  Tobias Risthaus        : pre 6.0 range-separated hybrid DFT and stability analysis
  Lukas Wittmann         : regularized MP2, r2SCAN double-hybrids, wr2SCAN        
                                                                         
We gratefully acknowledge several colleagues who have allowed us to      
interface, adapt or use parts of their codes:                            
  Ed Valeev, F. Pavosevic, A. Kumar             : LibInt (2-el integral package), F12 methods 
  Garnet Chan, S. Sharma, J. Yang, R. Olivares  : DMRG                   
  Ulf Ekstrom                                   : XCFun DFT Library      
  Mihaly Kallay                                 : mrcc  (arbitrary order and MRCC methods)
  Frank Weinhold                                : gennbo (NPA and NBO analysis)           
  Simon Mueller                                 : openCOSMO-RS                            
  Christopher J. Cramer and Donald G. Truhlar   : smd solvation model                     
  S Lehtola, MJT Oliveira, MAL Marques          : LibXC Library                           
  Liviu Ungur et al                             : ANISO software                          


 Your calculation uses the libint2 library for the computation of 2-el integrals
 For citations please refer to: http://libint.valeyev.net

 Your ORCA version has been built with support for libXC version: 7.0.0
 For citations please refer to: https://libxc.gitlab.io

 This ORCA versions uses:
   CBLAS   interface :  Fast vector & matrix operations
   LAPACKE interface :  Fast linear algebra routines
   SCALAPACK package :  Parallel linear algebra routines
   Shared memory     :  Shared parallel matrices
   BLAS/LAPACK       :  OpenBLAS 0.3.29  USE64BITINT DYNAMIC_ARCH NO_AFFINITY Bulldozer SINGLE_THREADED
        Core in use  :  Bulldozer
   Copyright (c) 2011-2014, The OpenBLAS Project


  ***********************************
  * Starting time: Fri Aug 22 13:27:39 2025
  * Host name:     chromium11
  * Process ID:    435993
  * Working dir.:  /local/scratch/mehlhorn/62277
  ***********************************



***************************************
The coordinates will be read from file: start.xyz
***************************************


Your calculation utilizes the geometrical counterpoise correction gCP
Please cite in your paper:
H.Kruse, S. Grimme J.Chem.Phys., 136, (2012), 154101 
   

Your calculation utilizes the atom-pairwise dispersion correction
with the Becke-Johnson damping scheme (D3BJ)


Your calculation employs the composite approach PBEh-3c.
Please cite in your paper:
Grimme, S.; Brandenburg, J. G.; Bannwarth, C.; Hansen A. J. Chem. Phys. 2015, 143, 054107 
   

================================================================================

----- Orbital basis set information -----
Your calculation utilizes the basis: def2-mSVP

----- AuxJ basis set information -----
Your calculation utilizes the auxiliary basis: def2-mSVP/J
================================================================================
                                        WARNINGS
                       Please study these warnings very carefully!
================================================================================

WARNING: Old DensityContainer found on disk!
         Will remove this file - 
         If you want to keep old densities, please start your calculation with a different basename. 


WARNING: Geometry Optimization
  ===> : Switching off AutoStart
         For restart on a previous wavefunction, please use MOREAD

================================================================================
                                       INPUT FILE
================================================================================
NAME = run.inp
|  1> # Geometry optimization for (AlH3)n cluster
|  2> 
|  3> %pal nprocs 24  end
|  4> 
|  5> %geom MaxIter 500 end
|  6> 
|  7> %cpcm
|  8> 	epsilon 1.95778548766667
|  9> end
| 10> 
| 11> %elprop Polar 1 end # invoke raman
| 12> 
| 13> ! PBEh-3c
| 14> ! RKS	# closed shell for AlH3
| 15> ! Freq 	# Frequency analysis to check the stabiltity of the structures
| 16> 
| 17> 
| 18> ! NoPop # population analysis not necessary	
| 19> 
| 20> ! DEFGRID3
| 21> ! ExtremeSCF
| 22> ! VeryTightOpt
| 23> 
| 24> 
| 25> ! SmallPrint
| 26> 
| 27> 
| 28> * xyzFile 0 1 start.xyz # only maingroup elements H and Al so there should be no net spin
| 29> 
| 30>                          ****END OF INPUT****
================================================================================

                       *****************************
                       * Geometry Optimization Run *
                       *****************************

Geometry optimization settings:
Update method            Update   .... BFGS
Choice of coordinates    CoordSys .... (2022) Redundant Internals
Initial Hessian          InHess   .... Almloef's Model
Max. no of cycles        MaxIter  .... 500

Convergence Tolerances:
Energy Change            TolE     ....  2.0000e-07 Eh
Max. Gradient            TolMAXG  ....  3.0000e-05 Eh/bohr
RMS Gradient             TolRMSG  ....  8.0000e-06 Eh/bohr
Max. Displacement        TolMAXD  ....  2.0000e-04 bohr
RMS Displacement         TolRMSD  ....  1.0000e-04 bohr
Strict Convergence                .... False

------------------------------------------------------------------------------
                        ORCA OPTIMIZATION COORDINATE SETUP
------------------------------------------------------------------------------

The optimization will be done in redundant internal coordinates (2022)
Making redundant internal coordinates   ...  (2022 redundants) done
Evaluating the initial hessian          ...  (Almloef) done
Evaluating the coordinates              ...  done
Calculating the B-matrix                .... done
Calculating the G-matrix                .... done
The number of degrees of freedom        ....  117

    -----------------------------------------------------------------
                    Redundant Internal Coordinates


    -----------------------------------------------------------------
         Definition                    Initial Value    Approx d2E/dq
    -----------------------------------------------------------------
      1. B(Al  1,Al  0)                  3.0868         0.060219   
      2. B(H   2,Al  1)                  1.6982         0.270180   
      3. B(H   3,Al  1)                  1.5705         0.431923   
      4. B(H   4,Al  1)                  1.6982         0.270214   
      5. B(H   4,Al  0)                  1.6964         0.271957   
      6. B(H   5,Al  0)                  1.5705         0.431940   
      7. B(H   6,Al  0)                  1.7501         0.223291   
      8. B(H   7,Al  1)                  1.5705         0.431960   
      9. B(Al  8,H   6)                  1.7076         0.261001   
     10. B(Al  8,H   2)                  1.6965         0.271840   
     11. B(Al  8,Al  1)                  3.0893         0.059665   
     12. B(Al  8,Al  0)                  3.0986         0.057668   
     13. B(H   9,Al  8)                  1.5705         0.431927   
     14. B(H  10,Al  8)                  1.5722         0.429275   
     15. B(H  11,Al  0)                  1.5723         0.429126   
     16. A(H   4,Al  0,H   6)           93.5445         0.326131   
     17. A(Al  1,Al  0,H   4)           24.6000         0.304013   
     18. A(Al  1,Al  0,Al  8)           59.9275         0.273630   
     19. A(Al  8,Al  0,H  11)          104.1521         0.325071   
     20. A(H   4,Al  0,H   5)          105.7759         0.364325   
     21. A(H   6,Al  0,H  11)          115.9067         0.351919   
     22. A(Al  1,Al  0,H   5)          129.6854         0.327748   
     23. A(Al  1,Al  0,H  11)           91.4286         0.327395   
     24. A(H   5,Al  0,H  11)          129.2055         0.394267   
     25. A(H   5,Al  0,H   6)           98.9664         0.352308   
     26. A(H   4,Al  0,Al  8)           74.8189         0.301916   
     27. A(Al  1,Al  0,H   6)           84.0318         0.294628   
     28. A(H   5,Al  0,Al  8)          121.0199         0.325420   
     29. A(H   4,Al  0,H  11)          107.4961         0.363918   
     30. A(H   6,Al  0,Al  8)           25.9978         0.292623   
     31. A(H   2,Al  1,H   7)          105.4696         0.363919   
     32. A(H   3,Al  1,H   4)          105.4463         0.363922   
     33. A(Al  0,Al  1,H   3)          124.9901         0.327746   
     34. A(H   2,Al  1,H   4)           94.9404         0.336225   
     35. A(H   4,Al  1,Al  8)           75.0789         0.303251   
     36. A(H   3,Al  1,Al  8)          100.0184         0.327247   
     37. A(H   2,Al  1,H   3)          108.6707         0.363914   
     38. A(H   2,Al  1,Al  8)           24.4768         0.303244   
     39. A(Al  0,Al  1,Al  8)           60.2256         0.275058   
     40. A(H   7,Al  1,Al  8)          125.1476         0.327251   
     41. A(Al  0,Al  1,H   4)           24.5729         0.303700   
     42. A(H   4,Al  1,H   7)          108.6756         0.363927   
     43. A(Al  0,Al  1,H   7)          100.2824         0.327751   
     44. A(Al  0,Al  1,H   2)           74.8162         0.303694   
     45. A(H   3,Al  1,H   7)          128.5610         0.394719   
     46. A(Al  1,H   2,Al  8)          131.0207         0.336561   
     47. A(Al  0,H   4,Al  1)          130.8271         0.336592   
     48. A(Al  0,H   6,Al  8)          127.3073         0.323934   
     49. A(Al  1,Al  8,H   2)           24.5025         0.303542   
     50. A(Al  0,Al  8,H   2)           74.4803         0.301895   
     51. A(Al  0,Al  8,Al  1)           59.8469         0.273244   
     52. A(H   6,Al  8,H  10)           95.9603         0.361392   
     53. A(H   2,Al  8,H  10)          107.5358         0.363913   
     54. A(Al  1,Al  8,H  10)           91.6175         0.326915   
     55. A(Al  0,Al  8,H  10)          104.9907         0.325089   
     56. A(H   6,Al  8,H   9)          113.8755         0.361772   
     57. A(H   9,Al  8,H  10)          129.1918         0.394289   
     58. A(H   2,Al  8,H   9)          105.7599         0.364296   
     59. A(Al  1,Al  8,H   9)          129.5442         0.327247   
     60. A(Al  0,Al  8,H   9)          120.3124         0.325419   
     61. A(H   2,Al  8,H   6)          101.1489         0.334632   
     62. A(Al  1,Al  8,H   6)           84.6045         0.301575   
     63. A(Al  0,Al  8,H   6)           26.6949         0.299944   
     64. D(H   2,Al  1,Al  0,H   4)   -143.9097         0.010000   
     65. D(H   3,Al  1,Al  0,H   6)     70.6910         0.010000   
     66. D(H   3,Al  1,Al  0,H   5)    -26.0212         0.010000   
     67. D(H   3,Al  1,Al  0,Al  8)     81.0363         0.010000   
     68. D(H   2,Al  1,Al  0,Al  8)    -21.3752         0.010000   
     69. D(H   3,Al  1,Al  0,H   4)    -41.4981         0.010000   
     70. D(H   2,Al  1,Al  0,H   6)    -31.7206         0.010000   
     71. D(H   2,Al  1,Al  0,H   5)   -128.4327         0.010000   
     72. D(H   2,Al  1,Al  0,H  11)     84.1804         0.010000   
     73. D(H   3,Al  1,Al  0,H  11)   -173.4080         0.010000   
     74. D(Al  8,H   2,Al  1,H   7)    146.4858         0.010000   
     75. D(Al  8,H   2,Al  1,H   3)    -72.5980         0.010000   
     76. D(Al  8,H   2,Al  1,Al  0)     49.7783         0.010000   
     77. D(Al  8,H   2,Al  1,H   4)     35.5448         0.010000   
     78. D(Al  1,H   4,Al  0,H   5)   -167.6785         0.010000   
     79. D(Al  0,H   4,Al  1,H   7)    -73.3756         0.010000   
     80. D(Al  0,H   4,Al  1,Al  8)     49.2274         0.010000   
     81. D(Al  0,H   4,Al  1,H   3)    145.7244         0.010000   
     82. D(Al  0,H   4,Al  1,H   2)     34.7932         0.010000   
     83. D(Al  1,H   4,Al  0,H  11)     51.2653         0.010000   
     84. D(Al  1,H   4,Al  0,Al  8)    -49.1098         0.010000   
     85. D(Al  1,H   4,Al  0,H   6)    -67.3223         0.010000   
     86. D(Al  8,H   6,Al  0,H   4)     43.4829         0.010000   
     87. D(Al  8,H   6,Al  0,Al  1)     20.7653         0.010000   
     88. D(Al  8,H   6,Al  0,H   5)    150.0741         0.010000   
     89. D(Al  8,H   6,Al  0,H  11)    -67.9219         0.010000   
     90. D(Al  1,Al  8,Al  0,H  11)    -83.3218         0.010000   
     91. D(Al  1,Al  8,Al  0,H   6)    155.9542         0.010000   
     92. D(Al  1,Al  8,Al  0,H   5)    120.8533         0.010000   
     93. D(H   2,Al  8,Al  0,Al  1)     21.4334         0.010000   
     94. D(Al  1,Al  8,Al  0,H   4)     21.3241         0.010000   
     95. D(H   9,Al  8,H   6,Al  0)    110.3871         0.010000   
     96. D(H   2,Al  8,H   6,Al  0)     -2.5655         0.010000   
     97. D(Al  1,Al  8,H   6,Al  0)    -20.7260         0.010000   
     98. D(H  10,Al  8,H   2,Al  1)     51.5441         0.010000   
     99. D(H   9,Al  8,H   2,Al  1)   -167.3983         0.010000   
    100. D(H   6,Al  8,H   2,Al  1)    -48.4338         0.010000   
    101. D(H   6,Al  8,Al  1,H   2)    132.4950         0.010000   
    102. D(H   6,Al  8,Al  1,Al  0)     10.5950         0.010000   
    103. D(H   2,Al  8,Al  1,H   7)    -40.6019         0.010000   
    104. D(H   2,Al  8,Al  1,H   4)   -143.1738         0.010000   
    105. D(H   2,Al  8,Al  1,H   3)    113.3630         0.010000   
    106. D(H   2,Al  8,Al  1,Al  0)   -121.9000         0.010000   
    107. D(Al  0,Al  8,Al  1,H   7)     81.2981         0.010000   
    108. D(Al  0,Al  8,Al  1,H   4)    -21.2738         0.010000   
    109. D(Al  0,Al  8,H   2,Al  1)    -49.6296         0.010000   
    110. D(Al  0,Al  8,Al  1,H   3)   -124.7370         0.010000   
    111. D(Al  0,Al  8,Al  1,H   2)    121.9000         0.010000   
    112. D(H   6,Al  8,Al  0,Al  1)   -155.9542         0.010000   
    113. D(H   2,Al  8,Al  0,H  11)    -61.8883         0.010000   
    114. D(H   2,Al  8,Al  0,H   6)    177.3876         0.010000   
    115. D(H   2,Al  8,Al  0,H   5)    142.2867         0.010000   
    116. D(H  10,Al  8,H   6,Al  0)   -111.7944         0.010000   
    117. D(H   2,Al  8,Al  0,H   4)     42.7575         0.010000   
    -----------------------------------------------------------------

Number of atoms                         .... 12
Number of degrees of freedom            .... 117


         *************************************************************
         *                GEOMETRY OPTIMIZATION CYCLE   1            *
         *************************************************************
---------------------------------
CARTESIAN COORDINATES (ANGSTROEM)
---------------------------------
  Al    -0.242180    1.529540    2.572820
  Al    -0.000080   -0.000610   -0.097100
  H      0.775640   -0.983030    1.050510
  H     -1.153870   -0.827490   -0.769030
  H     -0.763520    0.990640    1.051100
  H     -1.511870    2.138480    3.268160
  H     -0.287760   -0.072280    3.276320
  H      1.146010    0.821110   -0.788210
  Al     0.268670   -1.526660    2.575530
  H      1.550340   -2.115460    3.266240
  H     -1.151900   -2.176570    2.398580
  H      1.187050    2.158020    2.387550

----------------------------
CARTESIAN COORDINATES (A.U.)
----------------------------
  NO LB      ZA    FRAG     MASS         X           Y           Z
   0 Al   13.0000    0    26.982   -0.457654    2.890412    4.861925
   1 Al   13.0000    0    26.982   -0.000151   -0.001153   -0.183492
   2 H     1.0000    0     1.008    1.465747   -1.857657    1.985176
   3 H     1.0000    0     1.008   -2.180498   -1.563729   -1.453256
   4 H     1.0000    0     1.008   -1.442844    1.872038    1.986291
   5 H     1.0000    0     1.008   -2.857020    4.041142    6.175927
   6 H     1.0000    0     1.008   -0.543788   -0.136589    6.191348
   7 H     1.0000    0     1.008    2.165645    1.551673   -1.489501
   8 Al   13.0000    0    26.982    0.507713   -2.884969    4.867046
   9 H     1.0000    0     1.008    2.929718   -3.997640    6.172299
  10 H     1.0000    0     1.008   -2.176776   -4.113121    4.532659
  11 H     1.0000    0     1.008    2.243199    4.078067    4.511816

--------------------------------
INTERNAL COORDINATES (ANGSTROEM)
--------------------------------
 Al     0   0   0     0.000000000000     0.00000000     0.00000000
 Al     1   0   0     3.086817817575     0.00000000     0.00000000
 H      2   1   0     1.698204724672    74.81623333     0.00000000
 H      2   1   3     1.570494133513   124.99014010   102.41153886
 H      1   2   3     1.696419866660    24.59995600   216.09031375
 H      1   2   3     1.570483471833   129.68536782   231.56730256
 H      1   2   3     1.750090597312    84.03181700   328.27943050
 H      2   1   3     1.570470973498   100.28236733   256.60566590
 Al     3   2   1     1.696537107817   131.02066685    49.77831588
 H      9   3   2     1.570491557761   105.75988688   192.60167858
 H      9   3   2     1.572168386497   107.53580541    51.54413068
 H      1   2   3     1.572262852134    91.42857331    84.18041155

---------------------------
INTERNAL COORDINATES (A.U.)
---------------------------
 Al     0   0   0     0.000000000000     0.00000000     0.00000000
 Al     1   0   0     5.833240300526     0.00000000     0.00000000
 H      2   1   0     3.209141848962    74.81623333     0.00000000
 H      2   1   3     2.967803807270   124.99014010   102.41153886
 H      1   2   3     3.205768956131    24.59995600   216.09031375
 H      1   2   3     2.967783659614   129.68536782   231.56730256
 H      1   2   3     3.307191938470    84.03181700   328.27943050
 H      2   1   3     2.967760041184   100.28236733   256.60566590
 Al     3   2   1     3.205990509809   131.02066685    49.77831588
 H      9   3   2     2.967798939805   105.75988688   192.60167858
 H      9   3   2     2.970967686888   107.53580541    51.54413068
 H      1   2   3     2.971146201071    91.42857331    84.18041155

---------------------
BASIS SET INFORMATION
---------------------
There are 2 groups of distinct atoms

 Group   1 Type Al  : 10s7p1d contracted to 4s3p1d pattern {5311/511/1}
 Group   2 Type H   : 4s contracted to 2s pattern {31}

Atom   0Al   basis set group =>   1
Atom   1Al   basis set group =>   1
Atom   2H    basis set group =>   2
Atom   3H    basis set group =>   2
Atom   4H    basis set group =>   2
Atom   5H    basis set group =>   2
Atom   6H    basis set group =>   2
Atom   7H    basis set group =>   2
Atom   8Al   basis set group =>   1
Atom   9H    basis set group =>   2
Atom  10H    basis set group =>   2
Atom  11H    basis set group =>   2
---------------------------------
AUXILIARY/J BASIS SET INFORMATION
---------------------------------
There are 2 groups of distinct atoms

 Group   1 Type Al  : 14s5p5d2f1g contracted to 8s4p3d1f1g pattern {71111111/2111/311/2/1}
 Group   2 Type H   : 5s2p1d contracted to 3s1p1d pattern {311/2/1}

Atom   0Al   basis set group =>   1
Atom   1Al   basis set group =>   1
Atom   2H    basis set group =>   2
Atom   3H    basis set group =>   2
Atom   4H    basis set group =>   2
Atom   5H    basis set group =>   2
Atom   6H    basis set group =>   2
Atom   7H    basis set group =>   2
Atom   8Al   basis set group =>   1
Atom   9H    basis set group =>   2
Atom  10H    basis set group =>   2
Atom  11H    basis set group =>   2


           ************************************************************
           *        Program running with 24 parallel MPI-processes    *
           *              working on a common directory               *
           ************************************************************
------------------------------------------------------------------------------
                             ORCA STARTUP CALCULATIONS
                           -- RI-GTO INTEGRALS CHOSEN --
------------------------------------------------------------------------------
------------------------------------------------------------------------------
                   ___                                                        
                  /   \      - P O W E R E D   B Y -                         
                 /     \                                                     
                 |  |  |   _    _      __       _____    __    __             
                 |  |  |  | |  | |    /  \     |  _  \  |  |  /  |          
                  \  \/   | |  | |   /    \    | | | |  |  | /  /          
                 / \  \   | |__| |  /  /\  \   | |_| |  |  |/  /          
                |  |  |   |  __  | /  /__\  \  |    /   |      \           
                |  |  |   | |  | | |   __   |  |    \   |  |\   \          
                \     /   | |  | | |  |  |  |  | |\  \  |  | \   \       
                 \___/    |_|  |_| |__|  |__|  |_| \__\ |__|  \__/        
                                                                              
                      - O R C A' S   B I G   F R I E N D -                    
                                      &                                       
                       - I N T E G R A L  F E E D E R -                       
                                                                              
 v1 FN, 2020, v2 2021, v3 2022-2024                                           
------------------------------------------------------------------------------


----------------------
SHARK INTEGRAL PACKAGE
----------------------

Number of atoms                             ...     12
Number of basis functions                   ...     72
Number of shells                            ...     42
Maximum angular momentum                    ...      2
Integral batch strategy                     ... SHARK/LIBINT Hybrid
RI-J (if used) integral strategy            ... SPLIT-RIJ (Revised 2003 algorithm where possible)
Printlevel                                  ...      1
Contraction scheme used                     ... SEGMENTED contraction
Prescreening option                         ... SCHWARTZ
   Thresh                                   ... 3.000e-16
   Tcut                                     ... 3.000e-16
   Tpresel                                  ... 3.000e-16 
Coulomb Range Separation                    ... NOT USED
Exchange Range Separation                   ... NOT USED
Multipole approximations                    ... NOT USED
Finite Nucleus Model                        ... NOT USED
CABS basis                                  ... NOT available
Auxiliary Coulomb fitting basis             ... AVAILABLE
   # of basis functions in Aux-J            ...    252
   # of shells in Aux-J                     ...     96
   Maximum angular momentum in Aux-J        ...      4
Auxiliary J/K fitting basis                 ... NOT available
Auxiliary Correlation fitting basis         ... NOT available
Auxiliary 'external' fitting basis          ... NOT available

Checking pre-screening integrals            ... done (  0.0 sec) Dimension = 42
   => SHARK Basis and OBASIS are compatible. Storing Pre-screening
Shell pair information
Shell pair cut-off parameter TPreSel        ...   3.0e-16
Total number of shell pairs                 ...       903
Shell pairs after pre-screening             ...       882
Total number of primitive shell pairs       ...      4191
Primitive shell pairs kept                  ...      3042
          la=0 lb=0:    450 shell pairs
          la=1 lb=0:    264 shell pairs
          la=1 lb=1:     45 shell pairs
          la=2 lb=0:     90 shell pairs
          la=2 lb=1:     27 shell pairs
          la=2 lb=2:      6 shell pairs

Checking whether 4 symmetric matrices of dimension 72 fit in memory
:Max Core in MB      =   4096.00
 MB in use           =      4.47
 MB left             =   4091.53
 MB needed           =      0.08
 Data fit in memory  = YES
Calculating RI/J V-Matrix + Cholesky decomp.... done (  0.0 sec)
Calculating Nuclear repulsion               ... done (  0.0 sec) ENN=    170.556301569600 Eh

Diagonalization of the overlap matrix:
Smallest eigenvalue                        ... 1.150e-02
Time for diagonalization                   ...    0.023 sec
Threshold for overlap eigenvalues          ... 1.000e-07
Number of eigenvalues below threshold      ... 0
Time for construction of square roots      ...    0.001 sec
Total time needed                          ...    0.030 sec

-------------------
DFT GRID GENERATION
-------------------

General Integration Accuracy     IntAcc      ... 4.959
Radial Grid Type                 RadialGrid  ... OptM3 with GC (2021)
Angular Grid (max. ang.)         AngularGrid ... 6 (Lebedev-590)
Angular grid pruning method      GridPruning ... 4 (adaptive)
Weight generation scheme         WeightScheme... mBecke (2022)
Basis function cutoff            BFCut       ... 3.0000e-16
Integration weight cutoff        WCut        ... 1.0000e-14
Partially contracted basis set               ... off
Rotationally invariant grid construction     ... off
Angular grids for H and He will be reduced by one unit

Total number of grid points                  ...   128065
Total number of batches                      ...     2008
Average number of points per batch           ...       63
Average number of grid points per atom       ...    10672

--------------------
COSX GRID GENERATION
--------------------

GRIDX 1
-------
General Integration Accuracy     IntAcc      ... 4.020
Radial Grid Type                 RadialGrid  ... OptM3 with GC (2021)
Angular Grid (max. ang.)         AngularGrid ... 2 (Lebedev-110)
Angular grid pruning method      GridPruning ... 4 (adaptive)
Weight generation scheme         WeightScheme... mBecke (2022)
Basis function cutoff            BFCut       ... 3.0000e-16
Integration weight cutoff        WCut        ... 1.0000e-14
Partially contracted basis set               ... on
Rotationally invariant grid construction     ... off
Angular grids for H and He will be reduced by one unit

Total number of grid points                  ...    12850
Total number of batches                      ...      107
Average number of points per batch           ...      120
Average number of grid points per atom       ...     1071
UseSFitting                                  ... on

GRIDX 2
-------
General Integration Accuracy     IntAcc      ... 4.338
Radial Grid Type                 RadialGrid  ... OptM3 with GC (2021)
Angular Grid (max. ang.)         AngularGrid ... 3 (Lebedev-194)
Angular grid pruning method      GridPruning ... 4 (adaptive)
Weight generation scheme         WeightScheme... mBecke (2022)
Basis function cutoff            BFCut       ... 3.0000e-16
Integration weight cutoff        WCut        ... 1.0000e-14
Partially contracted basis set               ... on
Rotationally invariant grid construction     ... off
Angular grids for H and He will be reduced by one unit

Total number of grid points                  ...    29706
Total number of batches                      ...      238
Average number of points per batch           ...      124
Average number of grid points per atom       ...     2476
UseSFitting                                  ... on

GRIDX 3
-------
General Integration Accuracy     IntAcc      ... 4.871
Radial Grid Type                 RadialGrid  ... OptM3 with GC (2021)
Angular Grid (max. ang.)         AngularGrid ... 4 (Lebedev-302)
Angular grid pruning method      GridPruning ... 4 (adaptive)
Weight generation scheme         WeightScheme... mBecke (2022)
Basis function cutoff            BFCut       ... 3.0000e-16
Integration weight cutoff        WCut        ... 1.0000e-14
Partially contracted basis set               ... on
Rotationally invariant grid construction     ... off
Angular grids for H and He will be reduced by one unit

Total number of grid points                  ...    59585
Total number of batches                      ...      471
Average number of points per batch           ...      126
Average number of grid points per atom       ...     4965
UseSFitting                                  ... on
Grids setup in   4.3 sec
Initializing property integral containers    ... done (  0.0 sec)

SHARK setup successfully completed in   4.6 seconds

Maximum memory used throughout the entire STARTUP-calculation: 26.0 MB


           ************************************************************
           *        Program running with 24 parallel MPI-processes    *
           *              working on a common directory               *
           ************************************************************
-------------------------------------------------------------------------------
                                 ORCA GUESS
                   Start orbitals & Density for SCF / CASSCF
-------------------------------------------------------------------------------

------------
SCF SETTINGS
------------
Hamiltonian:
 Density Functional     Method          .... DFT(GTOs)
 Exchange Functional    Exchange        .... PBE
   PBE kappa parameter   XKappa         ....  1.024500
   PBE mue parameter    XMuePBE         ....  0.123457
 Correlation Functional Correlation     .... PBE
   PBE beta parameter  CBetaPBE         ....  0.030000
 LDA part of GGA corr.  LDAOpt          .... PW91-LDA
 Gradients option       PostSCFGGA      .... off
 Hybrid DFT is turned on
   Fraction HF Exchange ScalHFX         ....  0.420000
   Scaling of DF-GGA-X  ScalDFX         ....  0.580000
   Scaling of DF-GGA-C  ScalDFC         ....  1.000000
   Scaling of DF-LDA-C  ScalLDAC        ....  1.000000
   Perturbative correction              ....  0.000000
 RI-approximation to the Coulomb term is turned on
   Number of AuxJ basis functions       .... 252
   RIJ-COSX (HFX calculated with COS-X)).... on


General Settings:
 Integral files         IntName         .... run
 Hartree-Fock type      HFTyp           .... RHF
 Total Charge           Charge          ....    0
 Multiplicity           Mult            ....    1
 Number of Electrons    NEL             ....   48
 Basis Dimension        Dim             ....   72
 Nuclear Repulsion      ENuc            ....    170.5563015696 Eh

Convergence Acceleration:
 AO-DIIS                CNVDIIS         .... on
   Start iteration      DIISMaxIt       ....    12
   Startup error        DIISStart       ....  0.200000
   # of expansion vecs  DIISMaxEq       ....     5
   Bias factor          DIISBfac        ....   1.050
   Max. coefficient     DIISMaxC        ....  10.000
 MO-DIIS                CNVKDIIS        .... off
 Trust-Rad. Augm. Hess. CNVTRAH         .... auto
   Auto Start mean grad. ratio tolernc. ....  1.125000
   Auto Start start iteration           ....    50
   Auto Start num. interpolation iter.  ....    10
   Max. Number of Micro iterations      ....    24
   Max. Number of Macro iterations      .... Maxiter - #DIIS iter
   Number of Davidson start vectors     ....     2
   Converg. threshold    (grad. norm)   ....   1.000e-09
   Grad. Scal. Fac. for Micro threshold ....   0.100
   Minimum threshold for Micro iter.    ....   1.000e-02
   NR start threshold (gradient norm)   ....   1.000e-04
   Initial trust radius                 ....   0.400
   Minimum AH scaling param. (alpha)    ....   1.000
   Maximum AH scaling param. (alpha)    .... 1000.000
   Quad. conv. algorithm                .... NR
   White noise on init. David. guess    .... on
   Maximum white noise                  ....   0.010
   Pseudo random numbers                .... off
   Inactive MOs                         .... canonical
   Orbital update algorithm             .... Taylor
   Preconditioner                       .... Diag
   Full preconditioner red. dimension   ....   250
 SOSCF                 CNVSOSCF           .... on
   Start iteration     SOSCFMaxIt         ....   150
   Startup grad/error  SOSCFStart         ....  0.003300
   Hessian update      SOSCFHessUp        .... L-BFGS
   Autom. constraints  SOSCFAutoConstrain .... off
 Level Shifting         CNVShift        .... on
   Level shift para.    LevelShift      ....    0.2500
   Turn off err/grad.   ShiftErr        ....    0.0010
 Zerner damping         CNVZerner       .... off
 Static damping         CNVDamp         .... on
   Fraction old density DampFac         ....    0.7000
   Max. Damping (<1)    DampMax         ....    0.9800
   Min. Damping (>=0)   DampMin         ....    0.0000
   Turn off err/grad.   DampErr         ....    0.1000

SCF Procedure:
 Maximum # iterations   MaxIter         ....   125
 SCF integral mode      SCFMode         .... Direct
   Integral package                     .... SHARK and LIBINT hybrid scheme
 Reset frequency        DirectResetFreq ....    20
 Integral Threshold     Thresh          ....  3.000e-16 Eh
 Primitive CutOff       TCut            ....  3.000e-16 Eh

Convergence Tolerance:
 Convergence Check Mode ConvCheckMode   .... All-Criteria
 Convergence forced     ConvForced      .... 0
 Energy Change          TolE            ....  1.000e-14 Eh
 Max Density Change     TolMaxP         ....  1.000e-14
 RMS Density Change     TolRMSP         ....  1.000e-14
 Orbital Gradient       TolG            ....  1.000e-09
 Orbital Rotation angle TolX            ....  1.000e-09
 DIIS Error             TolErr          ....  1.000e-14

--------------------------------
INITIAL GUESS: MINIMAL BASIS EHT
--------------------------------
The minimal basis has 36 functions
EHT matrix was diagonalized
Basis set overlap was calculated now projecting the orbitals
Using GuessMode=FMatrix for the initial guess
C*T matrix was formed
Effective Fockian was calculated
Effective Fockian was diagonalized
Initial density was built
                      ------------------
                      INITIAL GUESS DONE
                      ------------------
             **** ENERGY FILE WAS UPDATED (run.en.tmp) ****
Finished Guess after   0.7 sec
Maximum memory used throughout the entire GUESS-calculation: 6.7 MB


           ************************************************************
           *        Program running with 24 parallel MPI-processes    *
           *              working on a common directory               *
           ************************************************************

-------------------------------------------------------------------------------------------
                                      ORCA LEAN-SCF
                              memory conserving SCF solver
-------------------------------------------------------------------------------------------

--------------------
CPCM SOLVATION MODEL
--------------------
CPCM parameters:
  Epsilon                                         ...       1.9578
  Refrac                                          ...       1.0000
  Rsolv                                           ...       1.3000
  Surface type                                    ... GAUSSIAN VDW
  Discretization scheme                           ... Constant charge density
    Threshold for H atoms                         ...       5.0000 (charges/Ang^2)
    Threshold for non-H atoms                     ...       5.0000 (charges/Ang^2)
  Epsilon function type                           ...         CPCM
Solvent:                                          ... CUSTOM
Radii:
  Scheme                                          ... Element-dependent radii
  Radius for Al used is    4.1725 Bohr (=   2.2080 Ang.)
  Radius for H  used is    2.4944 Bohr (=   1.3200 Ang.)
Calculating surface                               ...        done! (  0.0s)
Cavity surface points                             ...         1116
Cavity Volume                                     ...     916.5501
Cavity Surface-area                               ...     549.3596
Calculating surface distance matrix               ...        done! (  0.0s)
Performing Cholesky decomposition & store         ...        done! (  0.1s)
Overall time for CPCM initialization              ...                 0.1s

----------------------------------------D-I-I-S--------------------------------------------
Iteration    Energy (Eh)           Delta-E    RMSDP     MaxDP     DIISErr   Damp  Time(sec)
-------------------------------------------------------------------------------------------
               ***  Starting incremental Fock matrix formation  ***
    1    -730.6808591705164417     0.00e+00  4.92e-02  9.23e-02  3.41e-01  0.700   0.7
    2    -730.9940310562610648    -3.13e-01  4.07e-02  7.32e-02  2.43e-01  0.700   0.4
                               ***Turning on AO-DIIS***
    3    -731.2134777984257425    -2.19e-01  2.90e-02  4.86e-02  1.68e-01  0.700   0.4
    4    -731.3634805802355459    -1.50e-01  2.07e-02  3.34e-02  1.17e-01  0.700   0.4
    5    -731.4669880835714366    -1.04e-01  1.48e-02  2.33e-02  8.21e-02  0.700   0.4
    6    -731.5388239259167449    -7.18e-02  3.50e-02  5.46e-02  5.74e-02  0.000   0.4
                              *** Initializing SOSCF ***
---------------------------------------S-O-S-C-F--------------------------------------
Iteration    Energy (Eh)           Delta-E    RMSDP     MaxDP     MaxGrad    Time(sec)
--------------------------------------------------------------------------------------
    7    -731.7046787209596914    -1.66e-01  7.78e-04  1.57e-03  6.94e-04     0.4
               *** Restarting incremental Fock matrix formation ***
    8    -731.7046932229778804    -1.45e-05  5.20e-04  1.33e-03  2.45e-04     0.5
    9    -731.7046960851049562    -2.86e-06  1.31e-04  3.35e-04  5.19e-05     0.5
   10    -731.7046962062231614    -1.21e-07  4.79e-06  9.37e-06  2.35e-06     0.5
   11    -731.7046962065708158    -3.48e-10  1.14e-06  2.49e-06  6.80e-07     0.5
   12    -731.7046962065772959    -6.48e-12  2.32e-07  7.94e-07  9.44e-08     0.5
   13    -731.7046962065685420     8.75e-12  3.12e-08  9.45e-08  1.65e-08     0.5
   14    -731.7046962065680873     4.55e-13  3.52e-09  5.49e-09  2.65e-09     0.4
   15    -731.7046962065684284    -3.41e-13  3.89e-10  6.89e-10  1.01e-09     0.4
   16    -731.7046962065682010     2.27e-13  0.00e+00  0.00e+00  9.94e-10     0.4
                           ***RMSP convergence achieved***
                           ***MAXP convergence achieved***
                       ***Gradient convergence achieved***
                    ***Orbital Rotation convergence achieved***
   17    -731.7046962065682010     0.00e+00  0.00e+00  0.00e+00  9.94e-10     0.2
                          ***Energy convergence achieved***

               *****************************************************
               *                     SUCCESS                       *
               *           SCF CONVERGED AFTER  17 CYCLES          *
               *****************************************************

Recomputing exchange energy using gridx3       ... done (    0.512 sec)
Old exchange energy                            :    -24.179625478 Eh
New exchange energy                            :    -24.179624452 Eh
Exchange energy change after final integration :      0.000001026 Eh
Total energy after final integration           :   -731.704695181 Eh
             **** ENERGY FILE WAS UPDATED (run.en.tmp) ****

----------------
TOTAL SCF ENERGY
----------------

Total Energy       :       -731.70469518058735 Eh          -19910.69700 eV

Components:
Nuclear Repulsion  :        170.55630156960038 Eh            4641.07291 eV
Electronic Energy  :       -902.25628915754100 Eh          -24551.64181 eV
One Electron Energy:      -1355.30885362460185 Eh          -36879.82884 eV
Two Electron Energy:        453.05256446706090 Eh           12328.18703 eV
CPCM Dielectric    :         -0.00470861862756 Eh              -0.12813 eV

Virial components:
Potential Energy   :      -1461.82682672728674 Eh          -39778.33025 eV
Kinetic Energy     :        730.12213154669939 Eh           19867.63325 eV
Virial Ratio       :          2.00216753275310

DFT components:
N(Alpha)           :       24.000003130187 electrons
N(Beta)            :       24.000003130187 electrons
N(Total)           :       48.000006260373 electrons
E(X)               :      -32.159233533161 Eh       
E(C)               :       -2.218447052254 Eh       
E(XC)              :      -34.377680585415 Eh       

CPCM Solvation Model Properties:
Surface-charge          :         -0.05377294522731
Corrected charge        :          0.00000000000000
Outlying charge corr.   :          0.00011030571834 Eh               0.00300 eV
Free-energy (cav+disp)  :  This term is not implemented in the current solvation scheme

---------------
SCF CONVERGENCE
---------------

  Last Energy change         ...    0.0000e+00  Tolerance :   1.0000e-14
  Last MAX-Density change    ...    0.0000e+00  Tolerance :   1.0000e-14
  Last RMS-Density change    ...    0.0000e+00  Tolerance :   1.0000e-14
  Last DIIS Error            ...    6.9368e-04  Tolerance :   1.0000e-14
  Last Orbital Gradient      ...    9.9419e-10  Tolerance :   1.0000e-09
  Last Orbital Rotation      ...    0.0000e+00  Tolerance :   1.0000e-09


----------------
ORBITAL ENERGIES
----------------

  NO   OCC          E(Eh)            E(eV) 
   0   2.0000     -56.619196     -1540.6866 
   1   2.0000     -56.616712     -1540.6191 
   2   2.0000     -56.615181     -1540.5774 
   3   2.0000      -4.360363      -118.6515 
   4   2.0000      -4.358152      -118.5913 
   5   2.0000      -4.356852      -118.5560 
   6   2.0000      -2.851252       -77.5865 
   7   2.0000      -2.849528       -77.5396 
   8   2.0000      -2.849055       -77.5267 
   9   2.0000      -2.847511       -77.4847 
  10   2.0000      -2.847327       -77.4797 
  11   2.0000      -2.846264       -77.4508 
  12   2.0000      -2.845105       -77.4192 
  13   2.0000      -2.842861       -77.3582 
  14   2.0000      -2.841576       -77.3232 
  15   2.0000      -0.590951       -16.0806 
  16   2.0000      -0.489099       -13.3091 
  17   2.0000      -0.487847       -13.2750 
  18   2.0000      -0.396157       -10.7800 
  19   2.0000      -0.386333       -10.5127 
  20   2.0000      -0.378424       -10.2974 
  21   2.0000      -0.367784       -10.0079 
  22   2.0000      -0.358161        -9.7460 
  23   2.0000      -0.351506        -9.5650 
  24   0.0000      -0.000393        -0.0107 
  25   0.0000       0.004791         0.1304 
  26   0.0000       0.006039         0.1643 
  27   0.0000       0.026099         0.7102 
  28   0.0000       0.048849         1.3293 
  29   0.0000       0.069468         1.8903 
  30   0.0000       0.075891         2.0651 
  31   0.0000       0.106361         2.8942 
  32   0.0000       0.109389         2.9766 
  33   0.0000       0.118619         3.2278 
  34   0.0000       0.163633         4.4527 
*Only the first 10 virtual orbitals were printed.
-------
TIMINGS
-------

Total SCF time: 0 days 0 hours 0 min 9 sec 

Total time                  ....       9.298 sec
Sum of individual times     ....       8.943 sec  ( 96.2%)

SCF preparation             ....       0.827 sec  (  8.9%)
Fock matrix formation       ....       7.724 sec  ( 83.1%)
  Startup                   ....       0.010 sec  (  0.1% of F)
  Split-RI-J                ....       0.353 sec  (  4.6% of F)
  Chain of spheres X        ....       4.343 sec  ( 56.2% of F)
  XC integration            ....       1.971 sec  ( 25.5% of F)
    XC Preparation          ....       0.000 sec  (  0.0% of XC)
    Basis function eval.    ....       0.496 sec  ( 25.2% of XC)
    Density eval.           ....       0.231 sec  ( 11.7% of XC)
    XC-Functional eval.     ....       0.118 sec  (  6.0% of XC)
    XC-Potential eval.      ....       0.220 sec  ( 11.1% of XC)
  CPCM terms                ....       1.040 sec  ( 13.5% of F)
Diagonalization             ....       0.000 sec  (  0.0%)
Density matrix formation    ....       0.058 sec  (  0.6%)
Total Energy calculation    ....       0.043 sec  (  0.5%)
Population analysis         ....       0.000 sec  (  0.0%)
Orbital Transformation      ....       0.019 sec  (  0.2%)
Orbital Orthonormalization  ....       0.000 sec  (  0.0%)
DIIS solution               ....       0.136 sec  (  1.5%)
SOSCF solution              ....       0.136 sec  (  1.5%)
Finished LeanSCF after   9.3 sec

Maximum memory used throughout the entire LEANSCF-calculation: 7.8 MB


           ************************************************************
           *        Program running with 24 parallel MPI-processes    *
           *              working on a common directory               *
           ************************************************************

------------------------------------------------------------------------------
                         ORCA PROPERTY INTEGRAL CALCULATIONS
------------------------------------------------------------------------------

GBWName                                   ... run.gbw
Number of atoms                           ...     12
Number of basis functions                 ...     72
Max core memory                           ...   4096 MB

Dipole integrals                          ... YES
Quadrupole integrals                      ...  NO
Linear momentum integrals                 ...  NO
Angular momentum integrals                ...  NO
Higher moments length integrals           ...  NO
Higher moments velocity integrals         ...  NO
Kinetic energy integrals                  ...  NO
GIAO right hand sides                     ...  NO
GIAO dipole derivative integrals          ...  NO
SOC integrals                             ...  NO
EPR diamagnetic integrals (GIAO)          ...  NO
EPR gauge integrals                       ...  NO
Field gradient integrals                  ...  NO (   0 nuclei)
Spin-dipole/Fermi contact integrals       ...  NO (   0 nuclei)
Contact density integrals                 ...  NO (   0 nuclei)
Nucleus-orbit integrals                   ...  NO (   0 nuclei)
Geometric perturbations                   ...  NO (  12 nuclei)

Choice of electric origin   ... Center of mass
Position of electric origin ... (  0.0105, -0.0001,  3.1816) 
Choice of magnetic origin   ... GIAO
Position of magnetic origin ... (  0.0000,  0.0000,  0.0000) 

Calculating integrals                     ... Electric Dipole (Length)     done (  0.0 sec)

Property integrals calculated in   0.0 sec

Maximum memory used throughout the entire PROPINT-calculation: 6.8 MB


-------------------------------------------------------------------------------
                          DFT DISPERSION CORRECTION                            
                                                                               
                              DFTD3 V3.1  Rev 1                                
                          USING Becke-Johnson damping                          
-------------------------------------------------------------------------------
The PBEh-3c composite method is recognized
Using three-body term ABC
Active option DFTDOPT                   ...         4   

molecular C6(AA) [au] = 2779.045509 


            DFT-D V3
 parameters
 s6 scaling factor         :     1.0000 
 a1 scaling factor         :     0.4860 
 s8 scaling factor         :     0.0000 
 a2 scaling factor         :     4.5000 
 Damping factor alpha9(ATM):    16.0000 
 ad hoc parameters k1-k3   :    16.0000     1.3333    -4.0000 

 Edisp/kcal,au: -2.722594560136  -0.004338730142 
 E6   /kcal   :  -2.731345543 
 E8   /kcal   :  -0.000000000 
 E6(ABC)      :   0.008750983 
 % E8         :   0.000000000 
 % E6(ABC)    :  -0.321420704 

-------------------------   ----------------
Dispersion correction           -0.004338730
-------------------------   ----------------

------------------   -----------------
gCP correction             0.020028743
------------------   -----------------

-------------------------   --------------------
FINAL SINGLE POINT ENERGY      -731.689005167330
-------------------------   --------------------



           ************************************************************
           *        Program running with 24 parallel MPI-processes    *
           *              working on a common directory               *
           ************************************************************
------------------------------------------------------------------------------
                         ORCA SCF GRADIENT CALCULATION
------------------------------------------------------------------------------

Nuc. rep. gradient        (SHARK) ... done (  0.0 sec)
HCore & Overlap gradient  (SHARK) ... done (  0.0 sec)
Split-RIJ-J gradient      (SHARK) ... done (  0.3 sec)
done (  2.4 sec)
XC gradient                       ... done (  0.7 sec)
CPCM gradient                     ... done (  0.3 sec)
Dispersion correction             ... done (  0.1 sec)

-------------------
DISPERSION GRADIENT
-------------------

   1   Al  :   -0.000018584    0.000116228    0.000068621
   2   Al  :    0.000001618    0.000000525   -0.000136270
   3   H   :    0.000032616   -0.000043882   -0.000027916
   4   H   :   -0.000036796   -0.000018621   -0.000080671
   5   H   :   -0.000030251    0.000044342   -0.000027159
   6   H   :   -0.000040883    0.000056322    0.000040324
   7   H   :   -0.000012900   -0.000003133    0.000064872
   8   H   :    0.000036187    0.000018267   -0.000079605
   9   Al  :    0.000019691   -0.000115888    0.000068922
  10   H   :    0.000044937   -0.000056581    0.000040437
  11   H   :   -0.000038149   -0.000079828    0.000034747
  12   H   :    0.000042512    0.000082249    0.000033697

Difference to translation invariance:
           :    0.0000000000    0.0000000000    0.0000000000

Difference to rotation invariance:
           :   -0.0000000000   -0.0000000000    0.0000000000

Norm of the Dispersion gradient    ...    0.0003401954
RMS gradient                       ...    0.0000566992
MAX gradient                       ...    0.0001362704
gCP correction                   ... done

------------------
CARTESIAN GRADIENT
------------------

   1   Al  :    0.005755280    0.007402575   -0.002269588
   2   Al  :    0.000819981   -0.000539368   -0.001216475
   3   H   :    0.000119050   -0.000883223   -0.001170005
   4   H   :    0.000134869    0.000157640    0.000361588
   5   H   :   -0.000591666   -0.000575974    0.000816459
   6   H   :   -0.000043792   -0.002244723    0.000317177
   7   H   :   -0.009774497   -0.006950792    0.004076104
   8   H   :   -0.000424837   -0.000073962    0.000216966
   9   Al  :    0.005695554   -0.001096832   -0.000768180
  10   H   :   -0.000372647   -0.001397003   -0.000617133
  11   H   :   -0.000416381    0.003757212    0.001589105
  12   H   :   -0.000900914    0.002444449   -0.001336018

Difference to translation invariance:
           :   -0.0000000000   -0.0000000000   -0.0000000000

Difference to rotation invariance:
           :    0.0000647988   -0.0000407194   -0.0001974022

Norm of the Cartesian gradient     ...    0.0180868770
RMS gradient                       ...    0.0030144795
MAX gradient                       ...    0.0097744968

-------
TIMINGS
-------

Total SCF gradient time     ....        3.851 sec

Densities                   ....       0.004 sec  (  0.1%)
One electron gradient       ....       0.037 sec  (  0.9%)
RI-J Coulomb gradient       ....       0.278 sec  (  7.2%)
COSX gradient               ....       2.389 sec  ( 62.0%)
XC gradient                 ....       0.728 sec  ( 18.9%)
CPCM gradient               ....       0.266 sec  (  6.9%)
   A-Matrix (El+Nuc)        ....       0.006 sec  (  0.1%)
   Potential                ....       0.261 sec  (  6.8%)

Maximum memory used throughout the entire SCFGRAD-calculation: 26.5 MB
------------------------------------------------------------------------------
                         ORCA GEOMETRY RELAXATION STEP
------------------------------------------------------------------------------

Reading the OPT-File                    .... done
Getting information on internals        .... done
Copying old internal coords+grads       .... done
Making the new internal coordinates     .... (2022 redundants) done
Validating the new internal coordinates .... (2022 redundants) done
Calculating the B-matrix                .... done
Calculating the G,G- and P matrices     .... done
Transforming gradient to internals      .... done
Projecting the internal gradient        .... done
Number of atoms                         ....  12
Number of internal coordinates          .... 117
Current Energy                          ....  -731.689005167 Eh
Current gradient norm                   ....     0.018086877 Eh/bohr
Maximum allowed component of the step   ....  0.300
Current trust radius                    ....  0.300
Evaluating the initial hessian          ....  (Almloef) done
Projecting the Hessian                  .... done
Forming the augmented Hessian           .... done
Diagonalizing the augmented Hessian     .... done
Last element of RFO vector              ....  0.995538340
Lowest eigenvalues of augmented Hessian:
 -0.000823457  0.019023112  0.020092551  0.028844864  0.062028081
Length of the computed step             ....  0.094780785
The final length of the internal step   ....  0.094780785
Converting the step to Cartesian space:
 Initial RMS(Int)=    0.0087624867
Transforming coordinates:
 Iter   0:  RMS(Cart)=    0.0097650673 RMS(Int)=    0.0088365253
done
Storing new coordinates                 .... done

                                .--------------------.
          ----------------------|Geometry convergence|-------------------------
          Item                value                   Tolerance       Converged
          ---------------------------------------------------------------------
          RMS gradient        0.0011437559            0.0000080000      NO
          MAX gradient        0.0058551028            0.0000300000      NO
          RMS step            0.0087624867            0.0001000000      NO
          MAX step            0.0275005008            0.0002000000      NO
          -------------------------------------------------------------------------
          ........................................................
          Max(Bonds)      0.0146      Max(Angles)    1.30
          Max(Dihed)        1.37      Max(Improp)    0.00
          ---------------------------------------------------------------------

The optimization has not yet converged - more geometry cycles are needed


    ---------------------------------------------------------------------------
                         Redundant Internal Coordinates
                            (Angstroem and degrees)

        Definition                    Value    dE/dq     Step     New-Value
    ----------------------------------------------------------------------------
     1. B(Al  1,Al  0)                3.0868  0.000673 -0.0029    3.0840   
     2. B(H   2,Al  1)                1.6982 -0.000096 -0.0000    1.6982   
     3. B(H   3,Al  1)                1.5705 -0.000335  0.0004    1.5709   
     4. B(H   4,Al  1)                1.6982  0.000313 -0.0020    1.6962   
     5. B(H   4,Al  0)                1.6964 -0.000126 -0.0005    1.6959   
     6. B(H   5,Al  0)                1.5705 -0.000692  0.0008    1.5713   
     7. B(H   6,Al  0)                1.7501  0.005855 -0.0146    1.7355   
     8. B(H   7,Al  1)                1.5705 -0.000446  0.0005    1.5710   
     9. B(Al  8,H   6)                1.7076  0.000424 -0.0014    1.7062   
    10. B(Al  8,H   2)                1.6965  0.000869 -0.0014    1.6951   
    11. B(Al  8,Al  1)                3.0893 -0.000058 -0.0012    3.0882   
    12. B(Al  8,Al  0)                3.0986  0.001493 -0.0065    3.0921   
    13. B(H   9,Al  8)                1.5705 -0.000048  0.0001    1.5706   
    14. B(H  10,Al  8)                1.5722 -0.001361  0.0017    1.5738   
    15. B(H  11,Al  0)                1.5723  0.000312 -0.0004    1.5719   
    16. A(H   4,Al  0,H   6)           93.54  0.000020    0.43     93.97   
    17. A(Al  1,Al  0,H   4)           24.60 -0.000157    0.01     24.61   
    18. A(Al  1,Al  0,Al  8)           59.93 -0.000226    0.08     60.00   
    19. A(Al  8,Al  0,H  11)          104.15  0.001598   -0.37    103.78   
    20. A(H   4,Al  0,H   5)          105.78 -0.000260    0.07    105.85   
    21. A(H   6,Al  0,H  11)          115.91  0.002423   -1.06    114.85   
    22. A(Al  1,Al  0,H   5)          129.69 -0.000494    0.10    129.78   
    23. A(Al  1,Al  0,H  11)           91.43  0.000354    0.02     91.45   
    24. A(H   5,Al  0,H  11)          129.21 -0.000114   -0.05    129.16   
    25. A(H   5,Al  0,H   6)           98.97 -0.001966    0.70     99.67   
    26. A(H   4,Al  0,Al  8)           74.82 -0.000467    0.15     74.96   
    27. A(Al  1,Al  0,H   6)           84.03  0.000586    0.11     84.14   
    28. A(H   5,Al  0,Al  8)          121.02 -0.001025    0.27    121.29   
    29. A(H   4,Al  0,H  11)          107.50 -0.000150    0.11    107.60   
    30. A(H   6,Al  0,Al  8)           26.00  0.001003   -0.18     25.82   
    31. A(H   2,Al  1,H   7)          105.47  0.000163   -0.06    105.41   
    32. A(H   3,Al  1,H   4)          105.45 -0.000129    0.06    105.50   
    33. A(Al  0,Al  1,H   3)          124.99 -0.000304    0.02    125.01   
    34. A(H   2,Al  1,H   4)           94.94  0.000274   -0.05     94.89   
    35. A(H   4,Al  1,Al  8)           75.08 -0.000079    0.00     75.08   
    36. A(H   3,Al  1,Al  8)          100.02 -0.000574    0.03    100.05   
    37. A(H   2,Al  1,H   3)          108.67 -0.000517    0.06    108.73   
    38. A(H   2,Al  1,Al  8)           24.48  0.000355   -0.02     24.46   
    39. A(Al  0,Al  1,Al  8)           60.23  0.000235   -0.10     60.13   
    40. A(H   7,Al  1,Al  8)          125.15  0.000403   -0.04    125.11   
    41. A(Al  0,Al  1,H   4)           24.57 -0.000220    0.03     24.61   
    42. A(H   4,Al  1,H   7)          108.68  0.000037   -0.00    108.67   
    43. A(Al  0,Al  1,H   7)          100.28  0.000066    0.06    100.34   
    44. A(Al  0,Al  1,H   2)           74.82  0.000547   -0.14     74.68   
    45. A(H   3,Al  1,H   7)          128.56  0.000202   -0.02    128.54   
    46. A(Al  1,H   2,Al  8)          131.02 -0.000573    0.01    131.03   
    47. A(Al  0,H   4,Al  1)          130.83  0.000377   -0.05    130.78   
    48. A(Al  0,H   6,Al  8)          127.31 -0.002861    0.58    127.89   
    49. A(Al  1,Al  8,H   2)           24.50  0.000218    0.00     24.51   
    50. A(Al  0,Al  8,H   2)           74.48  0.000232   -0.01     74.47   
    51. A(Al  0,Al  8,Al  1)           59.85 -0.000009    0.02     59.87   
    52. A(H   6,Al  8,H  10)           95.96 -0.004665    1.30     97.26   
    53. A(H   2,Al  8,H  10)          107.54  0.001170   -0.16    107.37   
    54. A(Al  1,Al  8,H  10)           91.62 -0.000047   -0.01     91.61   
    55. A(Al  0,Al  8,H  10)          104.99 -0.003148    0.51    105.50   
    56. A(H   6,Al  8,H   9)          113.88  0.001436   -0.60    113.27   
    57. A(H   9,Al  8,H  10)          129.19  0.000615   -0.07    129.12   
    58. A(H   2,Al  8,H   9)          105.76 -0.000239   -0.13    105.63   
    59. A(Al  1,Al  8,H   9)          129.54  0.000159   -0.14    129.41   
    60. A(Al  0,Al  8,H   9)          120.31  0.001791   -0.24    120.07   
    61. A(H   2,Al  8,H   6)          101.15  0.002074   -0.39    100.76   
    62. A(Al  1,Al  8,H   6)           84.60  0.001596   -0.14     84.46   
    63. A(Al  0,Al  8,H   6)           26.69  0.001858   -0.40     26.29   
    64. D(H   2,Al  1,Al  0,H   4)   -143.91  0.000320   -0.24   -144.15   
    65. D(H   3,Al  1,Al  0,H   6)     70.69 -0.001114    0.56     71.26   
    66. D(H   3,Al  1,Al  0,H   5)    -26.02  0.000955   -0.44    -26.46   
    67. D(H   3,Al  1,Al  0,Al  8)     81.04 -0.000407   -0.05     80.98   
    68. D(H   2,Al  1,Al  0,Al  8)    -21.38 -0.000170   -0.03    -21.40   
    69. D(H   3,Al  1,Al  0,H   4)    -41.50  0.000083   -0.27    -41.77   
    70. D(H   2,Al  1,Al  0,H   6)    -31.72 -0.000876    0.59    -31.13   
    71. D(H   2,Al  1,Al  0,H   5)   -128.43  0.001192   -0.41   -128.85   
    72. D(H   2,Al  1,Al  0,H  11)     84.18  0.001510   -0.48     83.70   
    73. D(H   3,Al  1,Al  0,H  11)   -173.41  0.001272   -0.51   -173.92   
    74. D(Al  8,H   2,Al  1,H   7)    146.49 -0.000082    0.10    146.59   
    75. D(Al  8,H   2,Al  1,H   3)    -72.60 -0.000107    0.08    -72.52   
    76. D(Al  8,H   2,Al  1,Al  0)     49.78 -0.000249    0.06     49.84   
    77. D(Al  8,H   2,Al  1,H   4)     35.54 -0.000244    0.13     35.68   
    78. D(Al  1,H   4,Al  0,H   5)   -167.68  0.000761   -0.15   -167.82   
    79. D(Al  0,H   4,Al  1,H   7)    -73.38  0.000137   -0.18    -73.56   
    80. D(Al  0,H   4,Al  1,Al  8)     49.23  0.000543   -0.22     49.00   
    81. D(Al  0,H   4,Al  1,H   3)    145.72 -0.000057   -0.21    145.52   
    82. D(Al  0,H   4,Al  1,H   2)     34.79  0.000425   -0.26     34.53   
    83. D(Al  1,H   4,Al  0,H  11)     51.27  0.001261   -0.23     51.04   
    84. D(Al  1,H   4,Al  0,Al  8)    -49.11 -0.000357    0.15    -48.95   
    85. D(Al  1,H   4,Al  0,H   6)    -67.32 -0.001318    0.72    -66.60   
    86. D(Al  8,H   6,Al  0,H   4)     43.48  0.000699   -1.24     42.24   
    87. D(Al  8,H   6,Al  0,Al  1)     20.77  0.000638   -1.12     19.64   
    88. D(Al  8,H   6,Al  0,H   5)    150.07  0.000219   -1.01    149.06   
    89. D(Al  8,H   6,Al  0,H  11)    -67.92  0.000237   -1.32    -69.25   
    90. D(Al  1,Al  8,Al  0,H  11)    -83.32  0.000627   -0.28    -83.60   
    91. D(Al  1,Al  8,Al  0,H   6)    155.95 -0.000836    1.33    157.29   
    92. D(Al  1,Al  8,Al  0,H   5)    120.85 -0.000354    0.06    120.91   
    93. D(H   2,Al  8,Al  0,Al  1)     21.43  0.000085    0.03     21.47   
    94. D(Al  1,Al  8,Al  0,H   4)     21.32  0.000038   -0.06     21.26   
    95. D(H   9,Al  8,H   6,Al  0)    110.39  0.000709    0.74    111.12   
    96. D(H   2,Al  8,H   6,Al  0)     -2.57 -0.000759    1.35     -1.22   
    97. D(Al  1,Al  8,H   6,Al  0)    -20.73 -0.000650    1.12    -19.60   
    98. D(H  10,Al  8,H   2,Al  1)     51.54 -0.003257    0.48     52.02   
    99. D(H   9,Al  8,H   2,Al  1)   -167.40 -0.001651    0.14   -167.26   
   100. D(H   6,Al  8,H   2,Al  1)    -48.43  0.000742   -0.75    -49.18   
   101. D(H   6,Al  8,Al  1,H   2)    132.49  0.001329   -0.82    131.67   
   102. D(H   6,Al  8,Al  1,Al  0)     10.59  0.001014   -0.71      9.89   
   103. D(H   2,Al  8,Al  1,H   7)    -40.60 -0.000312    0.14    -40.46   
   104. D(H   2,Al  8,Al  1,H   4)   -143.17 -0.000258    0.14   -143.03   
   105. D(H   2,Al  8,Al  1,H   3)    113.36 -0.000248    0.09    113.45   
   106. D(H   2,Al  8,Al  1,Al  0)   -121.90 -0.000315    0.12   -121.78   
   107. D(Al  0,Al  8,Al  1,H   7)     81.30  0.000004    0.03     81.33   
   108. D(Al  0,Al  8,Al  1,H   4)    -21.27  0.000057    0.02    -21.25   
   109. D(Al  0,Al  8,H   2,Al  1)    -49.63  0.000313   -0.10    -49.73   
   110. D(Al  0,Al  8,Al  1,H   3)   -124.74  0.000068   -0.03   -124.76   
   111. D(Al  0,Al  8,Al  1,H   2)    121.90  0.000315   -0.12    121.78   
   112. D(H   6,Al  8,Al  0,Al  1)   -155.95  0.000836   -1.33   -157.29   
   113. D(H   2,Al  8,Al  0,H  11)    -61.89  0.000712   -0.24    -62.13   
   114. D(H   2,Al  8,Al  0,H   6)    177.39 -0.000751    1.37    178.76   
   115. D(H   2,Al  8,Al  0,H   5)    142.29 -0.000269    0.09    142.38   
   116. D(H  10,Al  8,H   6,Al  0)   -111.79 -0.001198    1.27   -110.53   
   117. D(H   2,Al  8,Al  0,H   4)     42.76  0.000123   -0.03     42.73   
    ----------------------------------------------------------------------------

Geometry step timings:
Preparation and reading OPT file:      0.000 s ( 0.397 %)
Internal coordinates            :      0.000 s ( 0.541 %)
B/P matrices and projection     :      0.002 s (17.493 %)
Hessian update/contruction      :      0.001 s (10.036 %)
Making the step                 :      0.007 s (58.683 %)
Converting the step to Cartesian:      0.000 s ( 2.480 %)
Storing new data                :      0.000 s ( 0.577 %)
Checking convergence            :      0.000 s ( 0.550 %)
Final printing                  :      0.001 s ( 9.234 %)
Total time                      :      0.011 s

Time for energy+gradient        :     21.957 s
Time for complete geometry iter :     22.731 s

         *************************************************************
         *                GEOMETRY OPTIMIZATION CYCLE   2            *
         *************************************************************
---------------------------------
CARTESIAN COORDINATES (ANGSTROEM)
---------------------------------
  Al    -0.245050    1.525772    2.572519
  Al    -0.002436   -0.000381   -0.096342
  H      0.772749   -0.980799    1.053300
  H     -1.155617   -0.827878   -0.769515
  H     -0.765003    0.990871    1.049503
  H     -1.512858    2.142270    3.266543
  H     -0.272334   -0.061881    3.273080
  H      1.145331    0.820326   -0.787111
  Al     0.264602   -1.523972    2.576499
  H      1.548815   -2.106167    3.268217
  H     -1.150527   -2.187247    2.390870
  H      1.188858    2.144775    2.394906

----------------------------
CARTESIAN COORDINATES (A.U.)
----------------------------
  NO LB      ZA    FRAG     MASS         X           Y           Z
   0 Al   13.0000    0    26.982   -0.463077    2.883292    4.861356
   1 Al   13.0000    0    26.982   -0.004603   -0.000720   -0.182060
   2 H     1.0000    0     1.008    1.460283   -1.853442    1.990449
   3 H     1.0000    0     1.008   -2.183800   -1.564462   -1.454173
   4 H     1.0000    0     1.008   -1.445646    1.872475    1.983273
   5 H     1.0000    0     1.008   -2.858887    4.048304    6.172872
   6 H     1.0000    0     1.008   -0.514636   -0.116938    6.185225
   7 H     1.0000    0     1.008    2.164362    1.550192   -1.487424
   8 Al   13.0000    0    26.982    0.500025   -2.879889    4.868878
   9 H     1.0000    0     1.008    2.926836   -3.980078    6.176036
  10 H     1.0000    0     1.008   -2.174181   -4.133298    4.518089
  11 H     1.0000    0     1.008    2.246616    4.053037    4.525717

--------------------------------
INTERNAL COORDINATES (ANGSTROEM)
--------------------------------
 Al     0   0   0     0.000000000000     0.00000000     0.00000000
 Al     1   0   0     3.083962455907     0.00000000     0.00000000
 H      2   1   0     1.698178283902    74.67774081     0.00000000
 H      2   1   3     1.570904229962   125.01386530   102.38842788
 H      1   2   3     1.695891720673    24.61193968   215.84514227
 H      1   2   3     1.571329578083   129.78141325   231.15380933
 H      1   2   3     1.735561359003    84.13772358   328.86547954
 H      2   1   3     1.571015839520   100.33866107   256.69518060
 Al     3   2   1     1.695105916079   131.03261409    49.84275459
 H      9   3   2     1.570550315500   105.63030071   192.73889731
 H      9   3   2     1.573842609216   107.37357172    52.02182697
 H      1   2   3     1.571878441393    91.45138105    83.69572545

---------------------------
INTERNAL COORDINATES (A.U.)
---------------------------
 Al     0   0   0     0.000000000000     0.00000000     0.00000000
 Al     1   0   0     5.827844448960     0.00000000     0.00000000
 H      2   1   0     3.209091883146    74.67774081     0.00000000
 H      2   1   3     2.968578777247   125.01386530   102.38842788
 H      1   2   3     3.204770904857    24.61193968   215.84514227
 H      1   2   3     2.969382568707   129.78141325   231.15380933
 H      1   2   3     3.279735657131    84.13772358   328.86547954
 H      2   1   3     2.968789688746   100.33866107   256.69518060
 Al     3   2   1     3.203285949379   131.03261409    49.84275459
 H      9   3   2     2.967909975838   105.63030071   192.73889731
 H      9   3   2     2.974131509314   107.37357172    52.02182697
 H      1   2   3     2.970419770048    91.45138105    83.69572545



           ************************************************************
           *        Program running with 24 parallel MPI-processes    *
           *              working on a common directory               *
           ************************************************************
------------------------------------------------------------------------------
                   ___                                                        
                  /   \      - P O W E R E D   B Y -                         
                 /     \                                                     
                 |  |  |   _    _      __       _____    __    __             
                 |  |  |  | |  | |    /  \     |  _  \  |  |  /  |          
                  \  \/   | |  | |   /    \    | | | |  |  | /  /          
                 / \  \   | |__| |  /  /\  \   | |_| |  |  |/  /          
                |  |  |   |  __  | /  /__\  \  |    /   |      \           
                |  |  |   | |  | | |   __   |  |    \   |  |\   \          
                \     /   | |  | | |  |  |  |  | |\  \  |  | \   \       
                 \___/    |_|  |_| |__|  |__|  |_| \__\ |__|  \__/        
                                                                              
                      - O R C A' S   B I G   F R I E N D -                    
                                      &                                       
[...]
     10      -0.119823  -0.233748  -0.311672  -0.179478   0.064797   0.102398
     11      -0.097003  -0.185515  -0.258465  -0.147656   0.051226   0.086233
     12       0.002918  -0.009786  -0.002673  -0.008233   0.015180  -0.015278
     13      -0.055075   0.079259   0.046354   0.055244  -0.062407   0.047624
     14      -0.107750   0.147263   0.080382   0.100068  -0.117262   0.092499
     15      -0.111528  -0.121590   0.004716   0.481894  -0.047982   0.541821
     16       0.071180   0.080292  -0.001555  -0.333132   0.031286  -0.373552
     17       0.053375   0.059764  -0.005668  -0.245627   0.027975  -0.275519
     18       0.014743  -0.024874   0.011568  -0.020515  -0.023642  -0.028499
     19      -0.120878   0.161747  -0.095374   0.122533   0.113364   0.117947
     20       0.002886   0.000377  -0.002464   0.001809   0.000827  -0.000085
     21       0.055089   0.330783  -0.156417  -0.287923  -0.493250   0.279689
     22       0.032484   0.182724  -0.084945  -0.163057  -0.281854   0.153829
     23      -0.031255  -0.207971   0.102453   0.188282   0.322955  -0.178839
     24       0.003811   0.000671  -0.024190   0.022921  -0.015859  -0.019336
     25       0.008298   0.010527  -0.011878   0.005301   0.002735  -0.004813
     26       0.000391  -0.006790  -0.008164   0.007295  -0.005991  -0.009070
     27       0.062084   0.370615   0.159009  -0.300889   0.538975   0.390030
     28      -0.005778  -0.057785  -0.028811   0.050668  -0.089795  -0.064381
     29       0.034455   0.203404   0.087570  -0.170662   0.308857   0.216484
     30      -0.194839  -0.353658   0.500889  -0.297206  -0.118036   0.156327
     31      -0.161974  -0.299606   0.429324  -0.257893  -0.095619   0.132555
     32      -0.025631  -0.051932   0.065803  -0.041281  -0.015258   0.018624
     33       0.877502  -0.304974   0.002503  -0.046666  -0.012150   0.181269
     34       0.195995  -0.068058   0.000723  -0.005590  -0.003989   0.044985
     35       0.024522  -0.008508  -0.000154   0.001592   0.000830   0.007849


-----------
IR SPECTRUM
-----------

 Mode   freq       eps      Int      T**2         TX        TY        TZ
       cm**-1   L/(mol*cm) km/mol    a.u.
----------------------------------------------------------------------------
  6:     56.86   0.000296    1.49  0.001622  (-0.001848 -0.018399  0.035776)
  7:     90.39   0.001296    6.55  0.004473  ( 0.065905 -0.007964 -0.008128)
  8:    118.65   0.000133    0.67  0.000349  (-0.002794 -0.016301 -0.008663)
  9:    242.31   0.000589    2.98  0.000759  (-0.003015  0.014359 -0.023321)
 10:    287.34   0.002973   15.02  0.003229  (-0.046978  0.025289  0.019550)
 11:    327.29   0.000985    4.98  0.000939  (-0.027314  0.010394  0.009241)
 12:    435.05   0.000519    2.62  0.000372  ( 0.013289 -0.010657 -0.009065)
 13:    437.27   0.000619    3.13  0.000442  ( 0.002741 -0.011686  0.017248)
 14:    450.43   0.002455   12.41  0.001701  ( 0.003914 -0.020843  0.035373)
 15:    506.39   0.000298    1.51  0.000184  ( 0.001393 -0.007548  0.011181)
 16:    553.95   0.035947  181.66  0.020250  ( 0.101397 -0.080219 -0.059448)
 17:    570.23   0.031568  159.53  0.017276  ( 0.013520 -0.067369  0.112047)
 18:    680.93   0.190632  963.38  0.087365  (-0.018457 -0.281455 -0.088356)
 19:    682.61   0.182682  923.20  0.083515  (-0.031450  0.083941 -0.274736)
 20:    732.48   0.001011    5.11  0.000431  (-0.018920  0.003504  0.007773)
 21:    764.47   0.050546  255.44  0.020633  ( 0.010626 -0.073783  0.122787)
 22:    777.47   0.061330  309.94  0.024617  ( 0.003301 -0.135479 -0.079065)
 23:    804.99   0.027836  140.67  0.010791  (-0.088126 -0.049810 -0.023321)
 24:   1002.87   0.089247  451.02  0.027771  ( 0.149210 -0.056366 -0.048272)
 25:   1070.62   0.050072  253.05  0.014595  (-0.010366  0.061198 -0.103646)
 26:   1136.96   0.011529   58.26  0.003164  ( 0.051873 -0.015371 -0.015405)
 27:   1830.13   0.010156   51.32  0.001732  (-0.003712  0.019339 -0.036660)
 28:   1890.46   0.309096  1562.05  0.051023  (-0.023069  0.191391  0.117732)
 29:   1908.28   0.323507  1634.87  0.052904  (-0.021215  0.118108 -0.196224)
 30:   2003.60   0.015303   77.34  0.002384  (-0.037527  0.025221  0.018417)
 31:   2011.40   0.010042   50.75  0.001558  ( 0.038607 -0.004035 -0.007159)
 32:   2013.71   0.010075   50.92  0.001561  (-0.002994  0.020399 -0.033709)
 33:   2018.42   0.032821  165.87  0.005074  ( 0.057356  0.038613  0.017140)
 34:   2019.87   0.000833    4.21  0.000129  ( 0.007126 -0.004499  0.007594)
 35:   2020.84   0.093547  472.75  0.014446  (-0.117862 -0.023533 -0.000734)

* The epsilon (eps) is given for a Dirac delta lineshape.
** The dipole moment derivative (T) already includes vibrational overlap.

--------------
RAMAN SPECTRUM  
--------------

 Mode    freq (cm**-1)   Activity   Depolarization
-------------------------------------------------------------------
   6:        56.86      0.199446      0.746818
   7:        90.39      0.494408      0.685257
   8:       118.65      1.985310      0.632694
   9:       242.31      5.802643      0.749837
  10:       287.34      7.458823      0.567189
  11:       327.29     14.551512      0.464593
  12:       435.05     15.742548      0.749699
  13:       437.27     19.121592      0.749999
  14:       450.43      7.316943      0.750000
  15:       506.39      5.033972      0.749983
  16:       553.95      8.057143      0.665151
  17:       570.23      0.596658      0.748450
  18:       680.93     12.399147      0.748827
  19:       682.61     11.509379      0.749987
  20:       732.48     10.782383      0.727131
  21:       764.47     13.141457      0.750000
  22:       777.47     10.228324      0.693094
  23:       804.99     11.953657      0.681602
  24:      1002.87     14.223403      0.355762
  25:      1070.62     13.233379      0.748831
  26:      1136.96    149.675963      0.038040
  27:      1830.13      2.044086      0.749985
  28:      1890.46     25.974036      0.746749
  29:      1908.28     12.473791      0.749991
  30:      2003.60    373.696548      0.075990
  31:      2011.40    378.476584      0.020445
  32:      2013.71     43.817735      0.746329
  33:      2018.42    129.731797      0.278174
  34:      2019.87     50.249662      0.743557
  35:      2020.84     55.677520      0.621855

The first frequency considered to be a vibration is 6
The total number of vibrations considered is 30


--------------------------
THERMOCHEMISTRY AT 298.15K
--------------------------

Temperature         ...   298.15 K
Pressure            ...     1.00 atm
Total Mass          ...    90.02 AMU
Quasi RRHO          ...     True
Cut-Off Frequency   ...     1.00 cm^-1

Throughout the following assumptions are being made:
  (1) The electronic state is orbitally nondegenerate
  (2) There are no thermally accessible electronically excited states
  (3) Hindered rotations indicated by low frequency modes are not
      treated as such but are treated as vibrations and this may
      cause some error
  (4) All equations used are the standard statistical mechanics
      equations for an ideal gas
  (5) All vibrations are strictly harmonic

freq.      56.86  E(vib)   ...       0.51 
freq.      90.39  E(vib)   ...       0.47 
freq.     118.65  E(vib)   ...       0.44 
freq.     242.31  E(vib)   ...       0.31 
freq.     287.34  E(vib)   ...       0.27 
freq.     327.29  E(vib)   ...       0.24 
freq.     435.05  E(vib)   ...       0.17 
freq.     437.27  E(vib)   ...       0.17 
freq.     450.43  E(vib)   ...       0.17 
freq.     506.39  E(vib)   ...       0.14 
freq.     553.95  E(vib)   ...       0.12 
freq.     570.23  E(vib)   ...       0.11 
freq.     680.93  E(vib)   ...       0.08 
freq.     682.61  E(vib)   ...       0.08 
freq.     732.48  E(vib)   ...       0.06 
freq.     764.47  E(vib)   ...       0.06 
freq.     777.47  E(vib)   ...       0.05 
freq.     804.99  E(vib)   ...       0.05 
freq.    1002.87  E(vib)   ...       0.02 
freq.    1070.62  E(vib)   ...       0.02 
freq.    1136.96  E(vib)   ...       0.01 
freq.    1830.13  E(vib)   ...       0.00 
freq.    1890.46  E(vib)   ...       0.00 
freq.    1908.28  E(vib)   ...       0.00 
freq.    2003.60  E(vib)   ...       0.00 
freq.    2011.40  E(vib)   ...       0.00 
freq.    2013.71  E(vib)   ...       0.00 
freq.    2018.42  E(vib)   ...       0.00 
freq.    2019.87  E(vib)   ...       0.00 
freq.    2020.84  E(vib)   ...       0.00 

------------
INNER ENERGY
------------

The inner energy is: U= E(el) + E(ZPE) + E(vib) + E(rot) + E(trans)
    E(el)   - is the total energy from the electronic structure calculation
              = E(kin-el) + E(nuc-el) + E(el-el) + E(nuc-nuc)
    E(ZPE)  - the the zero temperature vibrational energy from the frequency calculation
    E(vib)  - the the finite temperature correction to E(ZPE) due to population
              of excited vibrational states
    E(rot)  - is the rotational thermal energy
    E(trans)- is the translational thermal energy

Summary of contributions to the inner energy U:
Electronic energy                ...   -731.69220755 Eh
Zero point energy                ...      0.06708354 Eh      42.10 kcal/mol
Thermal vibrational correction   ...      0.00567745 Eh       3.56 kcal/mol
Thermal rotational correction    ...      0.00141627 Eh       0.89 kcal/mol
Thermal translational correction ...      0.00141627 Eh       0.89 kcal/mol
-----------------------------------------------------------------------
Total thermal energy                   -731.61661401 Eh


Summary of corrections to the electronic energy:
(perhaps to be used in another calculation)
Total thermal correction                  0.00851000 Eh       5.34 kcal/mol
Non-thermal (ZPE) correction              0.06708354 Eh      42.10 kcal/mol
-----------------------------------------------------------------------
Total correction                          0.07559354 Eh      47.44 kcal/mol


--------
ENTHALPY
--------

The enthalpy is H = U + kB*T
                kB is Boltzmann's constant
Total thermal energy              ...   -731.61661401 Eh 
Thermal Enthalpy correction       ...      0.00094421 Eh       0.59 kcal/mol
-----------------------------------------------------------------------
Total Enthalpy                    ...   -731.61566980 Eh


Note: Only C1 symmetry has been detected, increase convergence thresholds 
      if your molecule has a higher symmetry. Symmetry factor of 1.0 is   
      used for the rotational entropy correction. 
 

Note: Rotational entropy computed according to Herzberg 
Infrared and Raman Spectra, Chapter V,1, Van Nostrand Reinhold, 1945 
Point Group:  C1, Symmetry Number:   1  
Rotational constants in cm-1:     0.106740     0.100887     0.055757 

Vibrational entropy computed according to the QRRHO of S. Grimme
Chem.Eur.J. 2012 18 9955 using a reference frequency of 100.0 cm-1


-------
ENTROPY
-------

The entropy contributions are T*S = T*(S(el)+S(vib)+S(rot)+S(trans))
     S(el)   - electronic entropy
     S(vib)  - vibrational entropy
     S(rot)  - rotational entropy
     S(trans)- translational entropy
The entropies will be listed as multiplied by the temperature to get
units of energy

Electronic entropy                ...      0.00000000 Eh      0.00 kcal/mol
Vibrational entropy               ...      0.00963719 Eh      6.05 kcal/mol
Rotational entropy                ...      0.01301271 Eh      8.17 kcal/mol
Translational entropy             ...      0.01872231 Eh     11.75 kcal/mol
-----------------------------------------------------------------------
Final entropy term                ...      0.04137221 Eh     25.96 kcal/mol

In case the symmetry of your molecule has not been determined correctly
or in case you have a reason to use a different symmetry number we print 
out the resulting rotational entropy values for sn=1,12:

 non-linear molecules -----------------------------------
|  sn= 1 | S(rot)=       0.01301271 Eh      8.17 kcal/mol|
|  sn= 2 | S(rot)=       0.01235825 Eh      7.75 kcal/mol|
|  sn= 3 | S(rot)=       0.01197542 Eh      7.51 kcal/mol|
|  sn= 4 | S(rot)=       0.01170380 Eh      7.34 kcal/mol|
|  sn= 5 | S(rot)=       0.01149311 Eh      7.21 kcal/mol|
|  sn= 6 | S(rot)=       0.01132097 Eh      7.10 kcal/mol|
|  sn= 7 | S(rot)=       0.01117542 Eh      7.01 kcal/mol|
|  sn= 8 | S(rot)=       0.01104934 Eh      6.93 kcal/mol|
|  sn= 9 | S(rot)=       0.01093813 Eh      6.86 kcal/mol|
|  sn=10 | S(rot)=       0.01083865 Eh      6.80 kcal/mol|
|  sn=11 | S(rot)=       0.01074866 Eh      6.74 kcal/mol|
|  sn=12 | S(rot)=       0.01066651 Eh      6.69 kcal/mol|
 linear molecules ---------------------------------------
|  Dinfh | S(rot)=       0.00805142 Eh      5.05 kcal/mol|
|  Cinfv | S(rot)=       0.00870587 Eh      5.46 kcal/mol|
 --------------------------------------------------------


-------------------
GIBBS FREE ENERGY
-------------------

The Gibbs free energy is G = H - T*S

Total enthalpy                    ...   -731.61566980 Eh 
Total entropy correction          ...     -0.04137221 Eh    -25.96 kcal/mol
-----------------------------------------------------------------------
Final Gibbs free energy         ...   -731.65704201 Eh

For completeness - the Gibbs free energy minus the electronic energy
G-E(el)                           ...      0.03516554 Eh     22.07 kcal/mol


Maximum memory used throughout the entire PROP-calculation: 26.7 MB

--------------------------------
SUGGESTED CITATIONS FOR THIS RUN
--------------------------------

Below you find a list of papers that are relevant to this ORCA run
We neither can nor want to force you to cite these papers, but we appreciate if you do
You receive ORCA, which is the product of decades of hard work by many enthusiastic individuals, for free
The only thing we kindly ask in return is that you cite our papers,
We deeply appreciate it, if you show your appreciation for ORCA by not just citing the generic ORCA reference.

Please note that relegating all ORCA citations to the supporting information does *not* help us.
SI sections are not indexed - citations you put there will not count into any citation statistics
But we need these citations in order to attract the funding resources that allow us to do what we are doing

Therefore, if you are a happy ORCA user, please consider citing a few of the papers listed below in the main body of your paper

In addition to the list printed below, the program has created the file run.bibtex that contains the list in bibtex format
You can import this file easily into all common literature databanks and citation aid programs


List of essential papers. We consider these as the minimum necessary citations

  1. Neese, F.
     Software update: the ORCA program system, version 6.0
     WIRES Comput. Molec. Sci. 2025 15(1), e70019
     doi.org/10.1002/wcms.7019

List of papers to cite with high priority. The work reported in these papers was absolutely
necessary for this run to complete.
Our perspective: the developers of density functionals and basis sets usually get cited in chemistry papers
Good! But without the algorithms to do something with them, the functionals or basis sets would not do anything.
Hence, in our opinion, the algorithm design and method developments papers are equally worthy of getting cited

  1. Neese, F.
     An improvement of the resolution of the identity approximation for the formation of the Coulomb matrix
     J. Comp. Chem. 2003 24(14), 1740-1747
     doi.org/10.1002/jcc.10318
  2. Neese, F.; Wennmohs, F.; Hansen, A.; Becker, U.
     Efficient, approximate and parallel Hartree-Fock and hybrid DFT calculations. A 'chain-of-spheres' algorithm for the Hartree-Fock exchange
     Chem. Phys. 2009 356(1-3), 98-109
     doi.org/10.1016/j.chemphys.2008.10.036
  3. Grimme, S.; Antony, J.; Ehrlich, S.; Krieg, H.
     A consistent and accurate ab initio parametrization of density functional dispersion correction (DFT-D) for the 94 elements H-Pu
     J. Chem. Phys. 2010 132 , 154104
     doi.org/10.1063/1.3382344
  4. Grimme, S.; Ehrlich, S.; Goerigk, L.
     Effect of the damping function in dispersion corrected density functional theory
     J. Comput. Chem. 2011 32(7), 1456-1465
     doi.org/10.1002/jcc.21759
  5. Bykov, D.; Petrenko, T.; Izsak, R.; Kossmann, S.; Becker, U.; Valeev, E.; Neese, F.
     Efficient implementation of the analytic second derivatives of Hartree-Fock and hybrid DFT energies: a detailed analysis of different approximations
     Molec. Phys. 2015 113 , 1961-1977
     doi.org/10.1080/00268976.2015.1025114
  6. Garcia-Rates, M.; Neese, F.
     Efficient implementation of the analytical second derivatives of hartree-fock and hybrid DFT energies within the framework of the conductor-like polarizable continuum model
     J. Comput. Chem. 2019 40 , 1816-1828
     doi.org/10.1002/jcc.25833
  7. Garcia-Rates, M.; Neese, F.
     Effect of the Solute Cavity on the Solvation Energy and its Derivatives within the Framework of the Gaussian Charge Scheme
     J. Comput. Chem. 2020 41 , 922-939
     doi.org/10.1002/jcc.26139
  8. Helmich-Paris, B.; de Souza, B.; Neese, F.; Izsák, R.
     An improved chain of spheres for exchange algorithm
     J. Chem. Phys. 2021 155(10), 104109
     doi.org/10.1063/5.0058766
  9. Neese, F.
     The SHARK Integral Generation and Digestion System
     J. Comp. Chem. 2022 44(3), 381
     doi.org/10.1002/jcc.26942
 10. Petra, P.; Frank, N.
     Efficient calculation of analytic Raman intensities
     to be submitted 2025  , 

List of suggested additional citations. These are papers that are important in the 'surrounding' of 
of this run, or papers that preceded the highly important papers. If you like your results we are grateful for a citation.

  1. Izsak, R.; Neese, F.
     An overlap fitted chain of spheres exchange method
     J. Chem. Phys. 2011 135 , 144105
     doi.org/10.1063/1.3646921
  2. Izsak, R.; Hansen, A.; Neese, F.
     The resolution of identity and chain of spheres approximations for the LPNO-CCSD singles Fock term
     Molec. Phys. 2012 110 , 2413-2417
     doi.org/10.1080/00268976.2012.687466
  3. Neese, F.
     The ORCA program system
     WIRES Comput. Molec. Sci. 2012 2(1), 73-78
     doi.org/10.1002/wcms.81
  4. Izsak, R.; Neese, F.; Klopper, W.
     Robust fitting techniques in the chain of spheres approximation to the Fock exchange: The role of the complementary space
     J. Chem. Phys. 2013 139 , 
     doi.org/10.1063/1.4819264
  5. Neese, F.
     Software update: the ORCA program system, version 4.0
     WIRES Comput. Molec. Sci. 2018 8(1), 1-6
     doi.org/10.1002/wcms.1327
  6. Neese, F.; Wennmohs, F.; Becker, U.; Riplinger, C.
     The ORCA quantum chemistry program package
     J. Chem. Phys. 2020 152(22), 224108
     doi.org/10.1063/5.0004608
  7. Neese, F.
     Software update: The ORCA program system—Version 5.0
     WIRES Comput. Molec. Sci. 2022 12(1), e1606
     doi.org/10.1002/wcms.1606

List of optional additional citations

  1. Neese, F.
     Approximate second-order SCF convergence for spin unrestricted wavefunctions
     Chem. Phys. Lett. 2000 325(1-3), 93-98
     doi.org/10.1016/s0009-2614(00)00662-x

Timings for individual modules:

Sum of individual times          ...     1255.748 sec (=  20.929 min)
Startup calculation              ...      330.339 sec (=   5.506 min)  26.3 %
SCF iterations                   ...      504.964 sec (=   8.416 min)  40.2 %
Property integrals               ...       67.013 sec (=   1.117 min)   5.3 %
SCF Response                     ...        9.827 sec (=   0.164 min)   0.8 %
Property calculations            ...       55.235 sec (=   0.921 min)   4.4 %
SCF Gradient evaluation          ...      287.775 sec (=   4.796 min)  22.9 %
Geometry relaxation              ...        0.595 sec (=   0.010 min)   0.0 %
                             ****ORCA TERMINATED NORMALLY****
TOTAL RUN TIME: 0 days 0 hours 21 minutes 56 seconds 58 msec
