
                                 *****************
                                 * O   R   C   A *
                                 *****************

                                            #,                                       
                                            ###                                      
                                            ####                                     
                                            #####                                    
                                            ######                                   
                                           ########,                                 
                                     ,,################,,,,,                         
                               ,,#################################,,                 
                          ,,##########################################,,             
                       ,#########################################, ''#####,          
                    ,#############################################,,   '####,        
                  ,##################################################,,,,####,       
                ,###########''''           ''''###############################       
              ,#####''   ,,,,##########,,,,          '''####'''          '####       
            ,##' ,,,,###########################,,,                        '##       
           ' ,,###''''                  '''############,,,                           
         ,,##''                                '''############,,,,        ,,,,,,###''
      ,#''                                            '''#######################'''  
     '                                                          ''''####''''         
             ,#######,   #######,   ,#######,      ##                                
            ,#'     '#,  ##    ##  ,#'     '#,    #''#        ,####,    ,#,          
            ##       ##  ##   ,#'  ##            #'  '#       #'       ,# #          
            ##       ##  #######   ##           ,######,      #####,      #          
            '#,     ,#'  ##    ##  '#,     ,#' ,#      #,     #,   #      #          
             '#######'   ##     ##  '#######'  #'      '#     '####' #    #          



                #########################################################
                #                        -***-                          #
                #          Department of theory and spectroscopy        #
                #                                                       #
                #                      Frank Neese                      #
                #                                                       #
                #     Directorship, Architecture, Infrastructure        #
                #                    SHARK, DRIVERS                     #
                #        Core code/Algorithms in most modules           #
                #                                                       #
                #        Max Planck Institute fuer Kohlenforschung      #
                #                Kaiser Wilhelm Platz 1                 #
                #                 D-45470 Muelheim/Ruhr                 #
                #                      Germany                          #
                #                                                       #
                #                  All rights reserved                  #
                #                        -***-                          #
                #########################################################


                         Program Version 6.1.0  -  RELEASE   -
                                (GIT: $679e74b$)
                          ($2025-06-10 18:02:51 +0200$)


 With contributions from (in alphabetic order):
[Max-Planck-Institut fuer Kohlenforschung]                               
  Daniel Aravena         : Magnetic Suceptibility                        
  Michael Atanasov       : Ab Initio Ligand Field Theory (pilot matlab implementation)
  Alexander A. Auer      : GIAO ZORA, VPT2 properties, NMR spectrum      
  Ute Becker             : All parallelization in ORCA, NUMFREQ, NUMCALC 
  Giovanni Bistoni       : ED, misc. LED, open-shell LED, HFLD           
  Dmytro Bykov           : pre 5.0 version of the SCF Hessian            
  Marcos Casanova-Páez   : Triplet and SCS-CIS(D). UHF-(DLPNO)-IP/EA/STEOM-CCSD. UHF-CVS-IP/STEOM-CCSD   
  Vijay G. Chilkuri      : MRCI spin determinant printing, contributions to CSF-ICE 
  Pauline Colinet        : FMM embedding                                 
  Dipayan Datta          : RHF DLPNO-CCSD density                        
  Achintya Kumar Dutta   : EOM-CC, STEOM-CC                              
  Nicolas Foglia         : Exact transition moments, OPA infrastructure, MCD improvements    
  Dmitry Ganyushin       : Spin-Orbit,Spin-Spin,Magnetic field MRCI      
  Miquel Garcia-Rates    : C-PCM and meta-GGA Hessian, CCSD/C-PCM, Gaussian charge scheme 
  Tiago L. C. Gouveia    : GS-ROHF, GS-ROCIS                             
  Yang Guo               : DLPNO-NEVPT2, F12-NEVPT2, CIM, IAO-localization        
  Andreas Hansen         : Spin unrestricted coupled pair/coupled cluster methods 
  Ingolf Harden          : AUTO-CI MPn and infrastructure                
  Benjamin Helmich-Paris : MC-RPA, TRAH-(SCF,CASSCF), AVAS, COSX integrals, SCF dyn. polar., MC-PDFT, srDFT 
  Lee Huntington         : MR-EOM, pCC                                   
  Robert Izsak           : Overlap fitted RIJCOSX, COSX-SCS-MP3, EOM     
  Riya Kayal             : Wick's Theorem for AUTO-CI, AUTO-CI UHF-CCSDT 
  Emily Kempfer          : AUTO-CI RHF CISDT and CCSDT, approximate NEVPT4
  Christian Kollmar      : KDIIS, OOCD, Brueckner-CCSD(T), CCSD density, CASPT2, CASPT2-K, improved NEVPT2 
  Axel Koslowski         : Symmetry handling                             
  Simone Kossmann        : meta-GGA functionals, TD-DFT gradient, OOMP2, (MP2 Hessian; deprecated post 5.0) 
  Lucas Lang             : DCDCAS, Hyperfine gauge corrections, ICE-SOC+SSC
  Marvin Lechner         : AUTO-CI (C++ implementation), FIC-MRCC        
  Spencer Leger          : CASSCF response                               
  Dagmar Lenk            : GEPOL surface, SMD, ORCA-2-JSON               
  Dimitrios Liakos       : Extrapolation schemes; Compound Job, Property file
  Dimitrios Manganas     : Further ROCIS development; embedding schemes. LFT, Crystal Embedding 
  Dimitrios Pantazis     : SARC Basis sets                               
  Anastasios Papadopoulos: AUTO-CI, single reference methods and gradients 
  Taras Petrenko         : pre 6.0 DFT Hessian and TD-DFT gradient,  ECA, NRVS 
  Petra Pikulova         : Analytic Raman intensities                    
  Peter Pinski           : DLPNO-MP2, DLPNO-MP2 Gradient                 
  Shashank Vittal Rao    : ES-AILFT, MagRelax                            
  Christoph Reimann      : Effective Core Potentials                     
  Marius Retegan         : Local ZFS, SOC                                
  Christoph Riplinger    : Optimizer, TS searches, QM/MM, DLPNO-CCSD(T), (RO)-DLPNO pert. Triples 
  Michael Roemelt        : Original ROCIS implementation, recursive CI coupling coefficients
  Masaaki Saitow         : Open-shell DLPNO-CCSD energy and density      
  Barbara Sandhoefer     : DKH picture change effects                    
  Yorick L. A. Schmerwitz: GMF and freeze-and-release deltaSCF, NEB S-IDPP initial path                    
  Kantharuban Sivalingam : CASSCF convergence/infrastructure, NEVPT2, NEVPT3, NEVPT4(SD), FIC-MRCI and CEPA variants
  Bernardo de Souza      : ESD, SOC TD-DFT                               
  Georgi L. Stoychev     : AutoAux, RI-MP2 NMR, DLPNO-MP2 response, X2C  
  Van Anh Tran           : RI-MP2 g-tensors                              
  Willem Van den Heuvel  : Paramagnetic NMR                              
  Zikuan Wang            : NOTCH, Electric field optimization            
  Frank Wennmohs         : Technical directorship and infrastructure     
  Hang Xu                : AUTO-CI-Response properties                   
                                                                         
[FACCTs GmbH]                                                            
  Markus Bursch, Nicolas Foglia, Miquel Garcia-Rates, Ingolf Harden, Hagen Neugebauer, Anastasios Papadopoulos, 
  Christoph Riplinger, Bernardo de Souza, Georgi L. Stoychev                                                    
                                                                 
  APM, various basis sets, CI-OPT, improved COSX, DLPNO-Multilevel,           
  DOCKER, DRACO, updates on ESD, Fragmentator, GOAT, IRC, LR-CPCM, L-BFGS, MBIS, meta-GGA TD-DFT gradient, ML-optimized integration grids, 
  MM, NACMEs, nearIR, NEB, NEB-TS, NL-DFT gradient (VV10), 2- and 3-layer-ONIOM, interface openCOSMO-RS, QMMM,   
  Crystal-QMMM, RESP, rigid body optimization, SF, symmetry and pop. for TD-DFT, various functionals, SOLVATOR                                   
                                                                         
[Other institutions]                                                     
  V. Asgeirsson          : NEB                                           
  Christoph Bannwarth    : sTDA-DFT, sTD-DFT, PBEh-3c, B97-3c, D3        
  Giovanni Bistoni       : ETS/NOCV, ADLD/ADEX, COVALED                  
  Martin Brehm           : Molecular dynamics                            
  Ronald Cardenas        : ETS/NOCV                                      
  Martina Colucci        : COVALED                                       
  Sebastian Ehlert       : rSCAN, r2SCAN, r2SCAN-3c, D4, dhf basis sets  
  Marvin Friede          : D4 for Fr, Ra, Ac-Lr                          
  Lars Goerigk           : TD-DFT with DH, B97 family of functionals     
  Stefan Grimme          : VdW corrections, initial TS optimization, DFT functionals, gCP, sTDA/sTD-DF 
  Waldemar Hujo          : DFT-NL                                        
  H. Jonsson             : NEB                                           
  Holger Kruse           : gCP                                           
  Marcel Mueller         : wB97X-3c, vDZP basis set                      
  Hagen Neugebauer       : wr2SCAN, Native XTB                           
  Gianluca Regni         : ADLD/ADEX                                     
  Tobias Risthaus        : pre 6.0 range-separated hybrid DFT and stability analysis
  Lukas Wittmann         : regularized MP2, r2SCAN double-hybrids, wr2SCAN        
                                                                         
We gratefully acknowledge several colleagues who have allowed us to      
interface, adapt or use parts of their codes:                            
  Ed Valeev, F. Pavosevic, A. Kumar             : LibInt (2-el integral package), F12 methods 
  Garnet Chan, S. Sharma, J. Yang, R. Olivares  : DMRG                   
  Ulf Ekstrom                                   : XCFun DFT Library      
  Mihaly Kallay                                 : mrcc  (arbitrary order and MRCC methods)
  Frank Weinhold                                : gennbo (NPA and NBO analysis)           
  Simon Mueller                                 : openCOSMO-RS                            
  Christopher J. Cramer and Donald G. Truhlar   : smd solvation model                     
  S Lehtola, MJT Oliveira, MAL Marques          : LibXC Library                           
  Liviu Ungur et al                             : ANISO software                          


 Your calculation uses the libint2 library for the computation of 2-el integrals
 For citations please refer to: http://libint.valeyev.net

 Your ORCA version has been built with support for libXC version: 7.0.0
 For citations please refer to: https://libxc.gitlab.io

 This ORCA versions uses:
   CBLAS   interface :  Fast vector & matrix operations
   LAPACKE interface :  Fast linear algebra routines
   SCALAPACK package :  Parallel linear algebra routines
   Shared memory     :  Shared parallel matrices
   BLAS/LAPACK       :  OpenBLAS 0.3.29  USE64BITINT DYNAMIC_ARCH NO_AFFINITY Zen SINGLE_THREADED
        Core in use  :  Zen
   Copyright (c) 2011-2014, The OpenBLAS Project


  ***********************************
  * Starting time: Mon Jul  7 13:54:32 2025
  * Host name:     gadolinium01
  * Process ID:    3762623
  * Working dir.:  /local/scratch/mehlhorn/61514
  ***********************************



***************************************
The coordinates will be read from file: start.xyz
***************************************


Your calculation utilizes the atom-pairwise dispersion correction
with the Becke-Johnson damping scheme (D3BJ)


================================================================================

----- Orbital basis set information -----
Your calculation utilizes the basis: def-TZVP
   H-Kr: A. Schäfer, C. Huber, R. Ahlrichs; J. Chem. Phys. 100, 5829 (1994)
   Rb-At: K. Eichkorn, F. Weigend, O. Treutler, R. Ahlrichs; Theor. Chem. Acc. 97, 119 (1997)
   Rn: F. Weigend, R. Ahlrichs; Phys. Chem. Chem. Phys. 7, 3297 (2005)
   Fr-Ra: I. S. Lim, P. Schwerdtfeger, B. Metz, H. Stoll, J. Chem. Phys. 122, 104103 (2005)
   Ac-Lr: X. Cao, M. Dolg, J. Molec. Struct. Theochem. 673 (2004)
----- AuxJ basis set information -----
Your calculation utilizes the auxiliary basis: def2/J
   H-Rn: F. Weigend, Phys. Chem. Chem. Phys. 8, 1057 (2006).
   Fr-Lr: K. Eichkorn, F. Weigend, O. Treutler, R. Ahlrichs; Theor. Chem. Acc. 97, 119 (1997).

================================================================================
                                        WARNINGS
                       Please study these warnings very carefully!
================================================================================


WARNING: Geometry Optimization
  ===> : Switching off AutoStart
         For restart on a previous wavefunction, please use MOREAD

================================================================================
                                       INPUT FILE
================================================================================
NAME = run.inp
|  1> # Geometry optimization for (AlH3)n cluster
|  2> 
|  3> %pal nprocs 64 end
|  4> 
|  5> ! PBE 	# functional used for the MOF calculations later (non-expensive)
|  6> ! RKS	# closed shell for AlH3
|  7> ! D3BJ  # better geometries at low cost
|  8> ! def-TZVP def-ECP def2/J
|  9> ! Freq 	# Frequency analysis to check the stabiltity of the structures
| 10> 
| 11> ! NoPop # population analysis not necessary	
| 12> 
| 13> ! RI 		# speed up calculation 
| 14> ! DEFGRID3 # dense integration grid in space
| 15> ! TightSCF # 
| 16> ! TightOpt # thight convergence criteria for geometry optimizations
| 17> 
| 18> ! SmallPrint
| 19> 
| 20> 
| 21> * xyzFile 0 1 start.xyz # pc-3 PBE geometry
| 22> 
| 23>                          ****END OF INPUT****
================================================================================

                       *****************************
                       * Geometry Optimization Run *
                       *****************************

Geometry optimization settings:
Update method            Update   .... BFGS
Choice of coordinates    CoordSys .... (2022) Redundant Internals
Initial Hessian          InHess   .... Almloef's Model
Max. no of cycles        MaxIter  .... 60

Convergence Tolerances:
Energy Change            TolE     ....  1.0000e-06 Eh
Max. Gradient            TolMAXG  ....  1.0000e-04 Eh/bohr
RMS Gradient             TolRMSG  ....  3.0000e-05 Eh/bohr
Max. Displacement        TolMAXD  ....  1.0000e-03 bohr
RMS Displacement         TolRMSD  ....  6.0000e-04 bohr
Strict Convergence                .... False

------------------------------------------------------------------------------
                        ORCA OPTIMIZATION COORDINATE SETUP
------------------------------------------------------------------------------

The optimization will be done in redundant internal coordinates (2022)
Making redundant internal coordinates   ...  (2022 redundants) done
Evaluating the initial hessian          ...  (Almloef) done
Evaluating the coordinates              ...  done
Calculating the B-matrix                .... done
Calculating the G-matrix                .... done
The number of degrees of freedom        ....  253

    -----------------------------------------------------------------
                    Redundant Internal Coordinates


    -----------------------------------------------------------------
         Definition                    Initial Value    Approx d2E/dq
    -----------------------------------------------------------------
      1. B(H   1,Al  0)                  1.5835         0.411773   
      2. B(Al  4,Al  0)                  2.6251         0.328358   
      3. B(H   5,Al  4)                  1.5848         0.409851   
      4. B(H   6,Al  4)                  1.5865         0.407255   
      5. B(H   7,Al  0)                  1.8089         0.179925   
      6. B(Al  8,Al  0)                  3.1614         0.045783   
      7. B(H   9,Al  8)                  1.5834         0.411961   
      8. B(H  10,Al  4)                  1.7192         0.250148   
      9. B(H  10,Al  0)                  1.7928         0.190886   
     10. B(H  11,Al  8)                  1.7656         0.210939   
     11. B(Al 12,Al  8)                  2.7904         0.178921   
     12. B(Al 12,H   7)                  1.6757         0.293481   
     13. B(Al 12,H   3)                  1.6394         0.335316   
     14. B(Al 12,Al  0)                  2.7863         0.181644   
     15. B(H  13,Al  8)                  1.8085         0.180196   
     16. B(H  13,Al 12)                  1.6756         0.293549   
     17. B(H  14,Al 12)                  1.5764         0.422596   
     18. B(Al 16,H  15)                  1.5848         0.409802   
     19. B(Al 16,H  11)                  1.7288         0.241432   
     20. B(Al 16,Al  8)                  2.6255         0.327935   
     21. B(Al 16,H   2)                  1.5866         0.407169   
     22. B(H  17,Al  8)                  1.7264         0.243567   
     23. B(H  17,Al  0)                  1.7277         0.242463   
     24. B(H  18,Al  4)                  1.7296         0.240759   
     25. B(H  18,Al  0)                  1.7650         0.211361   
     26. B(H  19,Al 16)                  1.7193         0.250031   
     27. B(H  19,Al  8)                  1.7925         0.191072   
     28. A(Al  4,Al  0,H  18)           40.7985         0.387132   
     29. A(H   7,Al  0,H  18)          146.3782         0.302297   
     30. A(Al  4,Al  0,H  17)          124.6827         0.396540   
     31. A(H   1,Al  0,Al 12)          136.7172         0.392225   
     32. A(H  17,Al  0,H  18)           88.5462         0.317195   
     33. A(Al  8,Al  0,H  18)           83.3582         0.279873   
     34. A(H   1,Al  0,H  17)          104.9108         0.354376   
     35. A(Al  4,Al  0,H  10)           40.5711         0.380335   
     36. A(Al  8,Al  0,H  17)           23.7472         0.285897   
     37. A(H  10,Al  0,H  17)          150.2967         0.311993   
     38. A(H  10,Al  0,H  18)           81.3257         0.305171   
     39. A(Al 12,Al  0,H  18)          112.1603         0.349742   
     40. A(Al 12,Al  0,H  17)           73.7022         0.357971   
     41. A(Al  4,Al  0,Al  8)          109.7649         0.346241   
     42. A(H   1,Al  0,Al  8)          128.3724         0.310972   
     43. A(H   7,Al  0,Al 12)           35.2926         0.340410   
     44. A(H   7,Al  0,H  17)           87.5942         0.309028   
     45. A(Al  4,Al  0,H   7)          120.7477         0.376461   
     46. A(Al  4,Al  0,Al 12)          101.9201         0.440404   
     47. A(H   1,Al  0,H  10)          104.7884         0.340392   
     48. A(H   1,Al  0,H  18)          111.0337         0.346257   
     49. A(H   7,Al  0,H  10)           85.7121         0.297434   
     50. A(H  10,Al  0,Al 12)           84.3670         0.343798   
     51. A(Al  8,Al  0,Al 12)           55.5270         0.313979   
     52. A(H   1,Al  0,Al  4)          112.4067         0.435707   
     53. A(H   7,Al  0,Al  8)           79.8104         0.273041   
     54. A(Al  8,Al  0,H  10)          126.6602         0.275521   
     55. A(H   1,Al  0,H   7)          102.2246         0.337050   
     56. A(Al  0,Al  4,H  10)           42.7058         0.398720   
     57. A(Al  0,Al  4,H   5)          118.2411         0.435340   
     58. A(H   5,Al  4,H   6)          128.8181         0.387110   
     59. A(Al  0,Al  4,H   6)          112.9286         0.434842   
     60. A(H   6,Al  4,H  18)          107.4416         0.353292   
     61. A(H   5,Al  4,H  18)          109.3753         0.353672   
     62. A(Al  0,Al  4,H  18)           41.8200         0.396050   
     63. A(H   6,Al  4,H  10)          108.3000         0.355590   
     64. A(H   5,Al  4,H  10)          109.4695         0.355974   
     65. A(H  10,Al  4,H  18)           84.4794         0.325687   
     66. A(Al  0,H   7,Al 12)          106.1226         0.318747   
     67. A(H   9,Al  8,Al 12)          136.6663         0.391222   
     68. A(Al  0,Al  8,Al 12)           55.4042         0.313211   
     69. A(H  13,Al  8,H  19)           85.5831         0.297551   
     70. A(Al 12,Al  8,H  17)           73.5992         0.357329   
     71. A(H  13,Al  8,Al 16)          120.6036         0.376476   
     72. A(Al 12,Al  8,Al 16)          101.8557         0.439102   
     73. A(H  11,Al  8,Al 16)           40.7673         0.386910   
     74. A(H   9,Al  8,Al 16)          112.5192         0.435642   
     75. A(Al  0,Al  8,Al 16)          109.5128         0.346166   
     76. A(H  17,Al  8,H  19)          149.9510         0.312271   
     77. A(Al  0,Al  8,H  19)          126.3026         0.275562   
     78. A(Al 16,Al  8,H  19)           40.5658         0.380314   
     79. A(Al 12,Al  8,H  19)           84.2510         0.342984   
     80. A(H  11,Al  8,H  19)           81.2867         0.305121   
     81. A(H   9,Al  8,H  19)          104.9272         0.340473   
     82. A(Al  0,Al  8,H   9)          128.5873         0.310995   
     83. A(H   9,Al  8,H  11)          111.1293         0.346167   
     84. A(Al 12,Al  8,H  13)           35.1806         0.339637   
     85. A(H  11,Al  8,H  13)          146.2041         0.302273   
     86. A(Al  0,Al  8,H  11)           83.2464         0.279787   
     87. A(H   9,Al  8,H  13)          102.2969         0.337160   
     88. A(Al 16,Al  8,H  17)          124.4409         0.396767   
     89. A(H  13,Al  8,H  17)           87.6293         0.309329   
     90. A(Al  0,Al  8,H  13)           79.7527         0.273104   
     91. A(H  11,Al  8,H  17)           88.4037         0.317327   
     92. A(H   9,Al  8,H  17)          105.1180         0.354676   
     93. A(Al  0,Al  8,H  17)           23.7653         0.286099   
     94. A(H  11,Al  8,Al 12)          112.1161         0.348735   
     95. A(Al  0,H  10,Al  4)           96.7232         0.313573   
     96. A(Al  8,H  11,Al 16)           97.4067         0.316872   
     97. A(H   3,Al 12,H   7)           95.6723         0.353510   
     98. A(Al  0,Al 12,H   7)           38.5848         0.369851   
     99. A(Al  0,Al 12,H   3)           57.6711         0.378451   
    100. A(H  13,Al 12,H  14)          118.3881         0.367744   
    101. A(Al  8,Al 12,H  14)          145.1121         0.392970   
    102. A(H   7,Al 12,H  14)          118.4233         0.367729   
    103. A(H   3,Al 12,H  14)          125.1063         0.376265   
    104. A(Al  0,Al 12,H  14)          145.1367         0.394011   
    105. A(Al  8,Al 12,H  13)           38.4500         0.368907   
    106. A(H   7,Al 12,H  13)           97.5035         0.345665   
    107. A(H   3,Al 12,H  13)           95.7931         0.353524   
    108. A(Al  0,Al 12,H  13)           94.0525         0.369866   
    109. A(H   7,Al 12,Al  8)           93.9800         0.368893   
    110. A(H   3,Al 12,Al  8)           57.9279         0.377463   
    111. A(Al  0,Al 12,Al  8)           69.0688         0.395284   
    112. A(Al  8,H  13,Al 12)          106.3695         0.318837   
    113. A(H  11,Al 16,H  15)          109.3700         0.353832   
    114. A(Al  8,Al 16,H  15)          118.2691         0.435230   
    115. A(H   2,Al 16,H  15)          128.8425         0.387088   
    116. A(Al  8,Al 16,H  11)           41.8260         0.396155   
    117. A(H   2,Al 16,H  11)          107.4828         0.353446   
    118. A(H   2,Al 16,Al  8)          112.8779         0.434725   
    119. A(H  15,Al 16,H  19)          109.4545         0.355938   
    120. A(H  11,Al 16,H  19)           84.4654         0.325812   
    121. A(Al  8,Al 16,H  19)           42.6885         0.398597   
    122. A(H   2,Al 16,H  19)          108.2545         0.355549   
    123. A(Al  0,H  17,Al  8)          132.4875         0.324639   
    124. A(Al  0,H  18,Al  4)           97.3815         0.316831   
    125. A(Al  8,H  19,Al 16)           96.7457         0.313599   
    126. D(H   5,Al  4,Al  0,H  18)    -87.9628         0.010000   
    127. D(H   6,Al  4,Al  0,H   1)     -5.8119         0.010000   
    128. D(H   5,Al  4,Al  0,Al 12)     22.2455         0.010000   
    129. D(H   5,Al  4,Al  0,H  10)     88.6178         0.010000   
    130. D(H   5,Al  4,Al  0,H   1)    175.3483         0.010000   
    131. D(H   5,Al  4,Al  0,H   7)     54.5663         0.010000   
    132. D(H   5,Al  4,Al  0,H  17)    -56.0590         0.010000   
    133. D(H   6,Al  4,Al  0,H   7)   -126.5939         0.010000   
    134. D(H   5,Al  4,Al  0,Al  8)    -35.1490         0.010000   
    135. D(H   6,Al  4,Al  0,Al  8)    143.6907         0.010000   
    136. D(H   6,Al  4,Al  0,H  10)    -92.5424         0.010000   
    137. D(Al 12,H   7,Al  0,Al  8)     42.1439         0.010000   
    138. D(Al 12,H   7,Al  0,H  10)    -86.3049         0.010000   
    139. D(Al 12,H   7,Al  0,Al  4)    -64.8850         0.010000   
    140. D(Al 12,H   7,Al  0,H  18)    -19.0045         0.010000   
    141. D(Al 12,H   7,Al  0,H  17)     64.7353         0.010000   
    142. D(Al 12,H   7,Al  0,H   1)    169.4742         0.010000   
    143. D(H  11,Al  8,Al  0,H  17)    101.4978         0.010000   
    144. D(H  11,Al  8,Al  0,H   7)   -150.8861         0.010000   
    145. D(H  11,Al  8,Al  0,H  18)     -0.1120         0.010000   
    146. D(H  11,Al  8,Al  0,H  10)    -74.0936         0.010000   
    147. D(H   9,Al  8,Al  0,Al  4)   -143.4265         0.010000   
    148. D(H   9,Al  8,Al  0,H  18)   -111.8212         0.010000   
    149. D(H   9,Al  8,Al  0,Al 12)    125.4551         0.010000   
    150. D(H  11,Al  8,Al  0,Al 12)   -122.8357         0.010000   
    151. D(H  11,Al  8,Al  0,Al  4)    -31.7174         0.010000   
    152. D(H  11,Al  8,Al  0,H   1)    111.5234         0.010000   
    153. D(H   9,Al  8,Al  0,H  17)    -10.2114         0.010000   
    154. D(H   9,Al  8,Al  0,H   1)     -0.1857         0.010000   
    155. D(H   9,Al  8,Al  0,H  10)    174.1972         0.010000   
    156. D(H   9,Al  8,Al  0,H   7)     97.4047         0.010000   
    157. D(Al  0,H  10,Al  4,H  18)     -2.2899         0.010000   
    158. D(Al  0,H  10,Al  4,H   5)   -110.9133         0.010000   
    159. D(Al  4,H  10,Al  0,H  17)     73.6430         0.010000   
    160. D(Al  4,H  10,Al  0,Al 12)    115.7414         0.010000   
    161. D(Al  4,H  10,Al  0,Al  8)     77.2247         0.010000   
    162. D(Al  4,H  10,Al  0,H  18)      2.2593         0.010000   
    163. D(Al  0,H  10,Al  4,H   6)    104.2813         0.010000   
    164. D(Al  4,H  10,Al  0,H   1)   -107.3274         0.010000   
    165. D(Al  4,H  10,Al  0,H   7)    151.1462         0.010000   
    166. D(Al 16,H  11,Al  8,H  19)      2.3153         0.010000   
    167. D(Al 16,H  11,Al  8,H  17)    153.9957         0.010000   
    168. D(Al 16,H  11,Al  8,H  13)     70.6588         0.010000   
    169. D(Al 16,H  11,Al  8,Al 12)     82.4304         0.010000   
    170. D(Al 16,H  11,Al  8,H   9)   -100.4028         0.010000   
    171. D(Al 16,H  11,Al  8,Al  0)    130.7262         0.010000   
    172. D(H  14,Al 12,H   7,Al  0)    144.8458         0.010000   
    173. D(H  13,Al 12,H   7,Al  0)    -87.0884         0.010000   
    174. D(Al  8,Al 12,H   7,Al  0)    -48.5933         0.010000   
    175. D(H   7,Al 12,Al  0,H  17)   -109.7160         0.010000   
    176. D(H   7,Al 12,Al  0,H  10)     90.5330         0.010000   
    177. D(H   7,Al 12,Al  0,Al  8)   -126.7658         0.010000   
    178. D(H   3,Al 12,H   7,Al  0)      9.5378         0.010000   
    179. D(H   7,Al 12,Al  0,H   1)    -15.0944         0.010000   
    180. D(H   3,Al 12,Al  0,H  17)     81.5366         0.010000   
    181. D(H   3,Al 12,Al  0,H  18)      0.0258         0.010000   
    182. D(H   3,Al 12,Al  0,H  10)    -78.2144         0.010000   
    183. D(H   7,Al 12,Al  0,Al  4)    127.3141         0.010000   
    184. D(H   3,Al 12,Al  0,Al  8)     64.4867         0.010000   
    185. D(H   3,Al 12,Al  0,H   7)   -168.7474         0.010000   
    186. D(Al  0,Al 12,Al  8,H   9)   -111.9018         0.010000   
    187. D(H   3,Al 12,Al  0,Al  4)    -41.4333         0.010000   
    188. D(H   3,Al 12,Al  0,H   1)    176.1582         0.010000   
    189. D(H   3,Al 12,Al  8,H  17)    -81.2221         0.010000   
    190. D(H   3,Al 12,Al  8,Al 16)     41.5028         0.010000   
    191. D(H   3,Al 12,Al  8,H  13)    168.7364         0.010000   
    192. D(H   3,Al 12,Al  8,H  11)      0.0955         0.010000   
    193. D(H   3,Al 12,Al  8,H   9)   -176.0522         0.010000   
    194. D(H   3,Al 12,Al  8,Al  0)    -64.1504         0.010000   
    195. D(Al  0,Al 12,Al  8,H  19)    142.4011         0.010000   
    196. D(Al  0,Al 12,Al  8,H  17)    -17.0717         0.010000   
    197. D(Al  0,Al 12,Al  8,Al 16)    105.6532         0.010000   
    198. D(Al  0,Al 12,Al  8,H  13)   -127.1132         0.010000   
    199. D(Al  0,Al 12,Al  8,H  11)     64.2459         0.010000   
    200. D(Al  8,H  13,Al 12,H  14)   -144.9653         0.010000   
    201. D(Al  8,H  13,Al 12,H   7)     86.9446         0.010000   
    202. D(Al  8,H  13,Al 12,H   3)     -9.5764         0.010000   
    203. D(Al  8,H  13,Al 12,Al  0)     48.3043         0.010000   
    204. D(Al 12,H  13,Al  8,H  19)     86.2847         0.010000   
    205. D(Al 12,H  13,Al  8,H  17)    -64.4210         0.010000   
    206. D(Al 12,H  13,Al  8,Al 16)     64.8623         0.010000   
    207. D(Al 12,H  13,Al  8,H  11)     19.1497         0.010000   
    208. D(Al 12,H  13,Al  8,H   9)   -169.3805         0.010000   
    209. D(Al 12,H  13,Al  8,Al  0)    -41.8421         0.010000   
    210. D(H  19,Al 16,H  11,Al  8)     -2.3973         0.010000   
    211. D(H  15,Al 16,H  11,Al  8)   -111.0982         0.010000   
    212. D(H   2,Al 16,H  11,Al  8)    105.0259         0.010000   
    213. D(H  11,Al 16,Al  8,Al 12)   -110.2210         0.010000   
    214. D(H  11,Al 16,Al  8,H   9)     96.7031         0.010000   
    215. D(H  11,Al 16,Al  8,Al  0)    -52.9808         0.010000   
    216. D(H   2,Al 16,Al  8,H  19)     92.5207         0.010000   
    217. D(H   2,Al 16,Al  8,H  17)   -123.1012         0.010000   
    218. D(H   2,Al 16,Al  8,H  13)    126.5739         0.010000   
    219. D(H  11,Al 16,Al  8,H  13)   -142.4264         0.010000   
    220. D(H   2,Al 16,Al  8,Al 12)    158.7793         0.010000   
    221. D(H   2,Al 16,Al  8,H  11)    -90.9997         0.010000   
    222. D(H   2,Al 16,Al  8,H   9)      5.7033         0.010000   
    223. D(H   2,Al 16,Al  8,Al  0)   -143.9805         0.010000   
    224. D(Al  0,H  17,Al  8,H  19)     -7.3205         0.010000   
    225. D(Al  0,H  17,Al  8,Al 16)    -56.4700         0.010000   
    226. D(Al  0,H  17,Al  8,H  13)     69.6474         0.010000   
    227. D(Al  0,H  17,Al  8,Al 12)     36.8459         0.010000   
    228. D(Al  0,H  17,Al  8,H  11)    -76.7828         0.010000   
    229. D(Al  0,H  17,Al  8,H   9)    171.7473         0.010000   
    230. D(Al  8,H  17,Al  0,H  18)     76.7252         0.010000   
    231. D(Al  8,H  17,Al  0,Al 12)    -36.8866         0.010000   
    232. D(Al  8,H  17,Al  0,H  10)      7.1486         0.010000   
    233. D(Al  8,H  17,Al  0,H   7)    -69.8677         0.010000   
    234. D(Al  8,H  17,Al  0,Al  4)     56.5171         0.010000   
    235. D(Al  8,H  17,Al  0,H   1)   -171.8804         0.010000   
    236. D(Al  0,H  18,Al  4,H   6)   -105.1460         0.010000   
    237. D(Al  0,H  18,Al  4,H   5)    111.0508         0.010000   
    238. D(Al  4,H  18,Al  0,H  17)   -154.2319         0.010000   
    239. D(Al  4,H  18,Al  0,Al 12)    -82.4990         0.010000   
    240. D(Al  4,H  18,Al  0,H  10)     -2.2489         0.010000   
    241. D(Al  4,H  18,Al  0,Al  8)   -130.9915         0.010000   
    242. D(Al  4,H  18,Al  0,H   7)    -70.7780         0.010000   
    243. D(Al  0,H  18,Al  4,H  10)      2.3292         0.010000   
    244. D(Al  4,H  18,Al  0,H   1)    100.3409         0.010000   
    245. D(Al  8,H  19,Al 16,H   2)   -104.2525         0.010000   
    246. D(Al 16,H  19,Al  8,H  17)    -73.5887         0.010000   
    247. D(Al 16,H  19,Al  8,H  13)   -151.0922         0.010000   
    248. D(Al 16,H  19,Al  8,Al 12)   -115.7927         0.010000   
    249. D(Al 16,H  19,Al  8,H  11)     -2.3248         0.010000   
    250. D(Al 16,H  19,Al  8,H   9)    107.3427         0.010000   
    251. D(Al  8,H  19,Al 16,H  11)      2.3579         0.010000   
    252. D(Al 16,H  19,Al  8,Al  0)    -77.2418         0.010000   
    253. D(Al  8,H  19,Al 16,H  15)    110.9706         0.010000   
    -----------------------------------------------------------------

Number of atoms                         .... 20
Number of degrees of freedom            .... 253


         *************************************************************
         *                GEOMETRY OPTIMIZATION CYCLE   1            *
         *************************************************************
---------------------------------
CARTESIAN COORDINATES (ANGSTROEM)
---------------------------------
  Al    -1.199633    1.383165    3.655796
  H     -2.376501    2.441807    3.697352
  H      1.674121   -2.136133   -0.330853
  H      0.336235   -0.407301    3.683934
  Al     1.161380    2.500909    3.915630
  H      2.431724    1.557737    4.005959
  H      1.096539    4.086016    3.930516
  H     -1.766294    0.134022    4.835012
  Al    -0.961110   -1.217219    1.873740
  H     -1.987746   -1.782323    0.808961
  H     -0.072901    1.900414    4.950771
  H      0.333711   -0.308564    1.089481
  Al    -0.737680   -1.176485    4.654877
  H     -1.569599   -1.938988    3.416245
  H     -0.362514   -2.017351    5.934466
  H      2.680526   -1.133842    2.152149
  Al     1.536833   -1.549173    1.136731
  H     -1.633977    0.284854    2.394884
  H      0.128412    1.951746    2.641710
  H      0.333651   -2.453261    1.967979

----------------------------
CARTESIAN COORDINATES (A.U.)
----------------------------
  NO LB      ZA    FRAG     MASS         X           Y           Z
   0 Al   13.0000    0    26.982   -2.266978    2.613803    6.908453
   1 H     1.0000    0     1.008   -4.490936    4.614347    6.986983
   2 H     1.0000    0     1.008    3.163631   -4.036706   -0.625222
   3 H     1.0000    0     1.008    0.635393   -0.769687    6.961627
   4 Al   13.0000    0    26.982    2.194691    4.726033    7.399468
   5 H     1.0000    0     1.008    4.595293    2.943697    7.570165
   6 H     1.0000    0     1.008    2.072159    7.721451    7.427599
   7 H     1.0000    0     1.008   -3.337811    0.253265    9.136849
   8 Al   13.0000    0    26.982   -1.816234   -2.300211    3.540855
   9 H     1.0000    0     1.008   -3.756295   -3.368102    1.528716
  10 H     1.0000    0     1.008   -0.137762    3.591262    9.355602
  11 H     1.0000    0     1.008    0.630622   -0.583101    2.058821
  12 Al   13.0000    0    26.982   -1.394013   -2.223235    8.796442
  13 H     1.0000    0     1.008   -2.966112   -3.664157    6.455767
  14 H     1.0000    0     1.008   -0.685052   -3.812241   11.214516
  15 H     1.0000    0     1.008    5.065460   -2.142651    4.066972
  16 Al   13.0000    0    26.982    2.904193   -2.927512    2.148110
  17 H     1.0000    0     1.008   -3.087769    0.538296    4.525675
  18 H     1.0000    0     1.008    0.242663    3.688265    4.992109
  19 H     1.0000    0     1.008    0.630509   -4.635992    3.718941

--------------------------------
INTERNAL COORDINATES (ANGSTROEM)
--------------------------------
 Al     0   0   0     0.000000000000     0.00000000     0.00000000
 H      1   0   0     1.583498968707     0.00000000     0.00000000
 H      1   2   0     6.044608274341   139.45442754     0.00000000
 H      1   2   3     2.359120692449   172.28016046   263.77274876
 Al     1   2   3     2.625119139919   112.40670691   106.95373714
 H      5   1   2     1.584773025300   118.24111252   175.34832916
 H      5   1   2     1.586502703283   112.92858608   354.18809542
 H      1   2   3     1.808870649453   102.22456376   237.88627538
 Al     4   1   2     2.369783951532    83.90746583    66.54570313
 H      9   4   1     1.583375072299   172.14444751   293.47332024
 H      5   1   2     1.719174613073    42.70578943    86.73048979
 H      9   4   1     1.765581029732    76.22722312    93.34118049
 Al     4   1   2     1.639410607308    86.36991816   340.00326241
 H     13   4   1     1.675622279604    95.79310246    91.13764583
 H     13   4   1     1.576436950019   125.10630531   222.09267456
 H     12   9   4     2.705160052068   107.74140178    49.71020525
 Al    16  12   9     1.584805188082    37.07865698    76.25857535
 H      9   4   1     1.726431537211    71.66517005     0.41695627
 H      5   1   2     1.729588037693    41.81999631   263.31114619
 H     17  16  12     1.719301221552   109.45449181   269.09713064

---------------------------
INTERNAL COORDINATES (A.U.)
---------------------------
 Al     0   0   0     0.000000000000     0.00000000     0.00000000
 H      1   0   0     2.992379384202     0.00000000     0.00000000
 H      1   2   0    11.422654225338   139.45442754     0.00000000
 H      1   2   3     4.458092025596   172.28016046   263.77274876
 Al     1   2   3     4.960756243362   112.40670691   106.95373714
 H      5   1   2     2.994787002243   118.24111252   175.34832916
 H      5   1   2     2.998055619931   112.92858608   354.18809542
 H      1   2   3     3.418270139155   102.22456376   237.88627538
 Al     4   1   2     4.478242664958    83.90746583    66.54570313
 H      9   4   1     2.992145253923   172.14444751   293.47332024
 H      5   1   2     3.248769195098    42.70578943    86.73048979
 H      9   4   1     3.336464613440    76.22722312    93.34118049
 Al     4   1   2     3.098037068858    86.36991816   340.00326241
 H     13   4   1     3.166467212347    95.79310246    91.13764583
 H     13   4   1     2.979034102930   125.10630531   222.09267456
 H     12   9   4     5.112011646832   107.74140178    49.71020525
 Al    16  12   9     2.994847781092    37.07865698    76.25857535
 H      9   4   1     3.262482794293    71.66517005     0.41695627
 H      5   1   2     3.268447715746    41.81999631   263.31114619
 H     17  16  12     3.249008450449   109.45449181   269.09713064

---------------------
BASIS SET INFORMATION
---------------------
There are 2 groups of distinct atoms

 Group   1 Type Al  : 14s9p1d contracted to 5s4p1d pattern {73211/6111/1}
 Group   2 Type H   : 5s1p contracted to 3s1p pattern {311/1}

Atom   0Al   basis set group =>   1
Atom   1H    basis set group =>   2
Atom   2H    basis set group =>   2
Atom   3H    basis set group =>   2
Atom   4Al   basis set group =>   1
Atom   5H    basis set group =>   2
Atom   6H    basis set group =>   2
Atom   7H    basis set group =>   2
Atom   8Al   basis set group =>   1
Atom   9H    basis set group =>   2
Atom  10H    basis set group =>   2
Atom  11H    basis set group =>   2
Atom  12Al   basis set group =>   1
Atom  13H    basis set group =>   2
Atom  14H    basis set group =>   2
Atom  15H    basis set group =>   2
Atom  16Al   basis set group =>   1
Atom  17H    basis set group =>   2
Atom  18H    basis set group =>   2
Atom  19H    basis set group =>   2
---------------------------------
AUXILIARY/J BASIS SET INFORMATION
---------------------------------
There are 2 groups of distinct atoms

 Group   1 Type Al  : 14s5p5d2f1g contracted to 8s4p3d1f1g pattern {71111111/2111/311/2/1}
 Group   2 Type H   : 5s2p1d contracted to 3s1p1d pattern {311/2/1}

Atom   0Al   basis set group =>   1
Atom   1H    basis set group =>   2
Atom   2H    basis set group =>   2
Atom   3H    basis set group =>   2
Atom   4Al   basis set group =>   1
Atom   5H    basis set group =>   2
Atom   6H    basis set group =>   2
Atom   7H    basis set group =>   2
Atom   8Al   basis set group =>   1
Atom   9H    basis set group =>   2
Atom  10H    basis set group =>   2
Atom  11H    basis set group =>   2
Atom  12Al   basis set group =>   1
Atom  13H    basis set group =>   2
Atom  14H    basis set group =>   2
Atom  15H    basis set group =>   2
Atom  16Al   basis set group =>   1
Atom  17H    basis set group =>   2
Atom  18H    basis set group =>   2
Atom  19H    basis set group =>   2


           ************************************************************
           *        Program running with 64 parallel MPI-processes    *
           *              working on a common directory               *
           ************************************************************
------------------------------------------------------------------------------
                             ORCA STARTUP CALCULATIONS
                           -- RI-GTO INTEGRALS CHOSEN --
------------------------------------------------------------------------------
------------------------------------------------------------------------------
                   ___                                                        
                  /   \      - P O W E R E D   B Y -                         
                 /     \                                                     
                 |  |  |   _    _      __       _____    __    __             
                 |  |  |  | |  | |    /  \     |  _  \  |  |  /  |          
                  \  \/   | |  | |   /    \    | | | |  |  | /  /          
                 / \  \   | |__| |  /  /\  \   | |_| |  |  |/  /          
                |  |  |   |  __  | /  /__\  \  |    /   |      \           
                |  |  |   | |  | | |   __   |  |    \   |  |\   \          
                \     /   | |  | | |  |  |  |  | |\  \  |  | \   \       
                 \___/    |_|  |_| |__|  |__|  |_| \__\ |__|  \__/        
                                                                              
                      - O R C A' S   B I G   F R I E N D -                    
                                      &                                       
                       - I N T E G R A L  F E E D E R -                       
                                                                              
 v1 FN, 2020, v2 2021, v3 2022-2024                                           
------------------------------------------------------------------------------


----------------------
SHARK INTEGRAL PACKAGE
----------------------

Number of atoms                             ...     20
Number of basis functions                   ...    200
Number of shells                            ...    110
Maximum angular momentum                    ...      2
Integral batch strategy                     ... SHARK/LIBINT Hybrid
RI-J (if used) integral strategy            ... SPLIT-RIJ (Revised 2003 algorithm where possible)
Printlevel                                  ...      1
Contraction scheme used                     ... SEGMENTED contraction
Prescreening option                         ... SCHWARTZ
   Thresh                                   ... 2.500e-11
   Tcut                                     ... 2.500e-12
   Tpresel                                  ... 2.500e-12 
Coulomb Range Separation                    ... NOT USED
Exchange Range Separation                   ... NOT USED
Multipole approximations                    ... NOT USED
Finite Nucleus Model                        ... NOT USED
CABS basis                                  ... NOT available
Auxiliary Coulomb fitting basis             ... AVAILABLE
   # of basis functions in Aux-J            ...    420
   # of shells in Aux-J                     ...    160
   Maximum angular momentum in Aux-J        ...      4
Auxiliary J/K fitting basis                 ... NOT available
Auxiliary Correlation fitting basis         ... NOT available
Auxiliary 'external' fitting basis          ... NOT available

Checking pre-screening integrals            ... done (  0.0 sec) Dimension = 110
   => SHARK Basis and OBASIS are compatible. Storing Pre-screening
Shell pair information
Shell pair cut-off parameter TPreSel        ...   2.5e-12
Total number of shell pairs                 ...      6105
Shell pairs after pre-screening             ...      5254
Total number of primitive shell pairs       ...     22400
Primitive shell pairs kept                  ...     13192
          la=0 lb=0:   2152 shell pairs
          la=1 lb=0:   2046 shell pairs
          la=1 lb=1:    522 shell pairs
          la=2 lb=0:    344 shell pairs
          la=2 lb=1:    175 shell pairs
          la=2 lb=2:     15 shell pairs

Checking whether 4 symmetric matrices of dimension 200 fit in memory
:Max Core in MB      =   4096.00
 MB in use           =      9.82
 MB left             =   4086.18
 MB needed           =      0.61
 Data fit in memory  = YES
Calculating RI/J V-Matrix + Cholesky decomp.... done (  0.0 sec)
Calculating Nuclear repulsion               ... done (  0.0 sec) ENN=    454.010599055372 Eh

Diagonalization of the overlap matrix:
Smallest eigenvalue                        ... 1.835e-03
Time for diagonalization                   ...    0.006 sec
Threshold for overlap eigenvalues          ... 1.000e-07
Number of eigenvalues below threshold      ... 0
Time for construction of square roots      ...    0.004 sec
Total time needed                          ...    0.012 sec

-------------------
DFT GRID GENERATION
-------------------

General Integration Accuracy     IntAcc      ... 4.959
Radial Grid Type                 RadialGrid  ... OptM3 with GC (2021)
Angular Grid (max. ang.)         AngularGrid ... 6 (Lebedev-590)
Angular grid pruning method      GridPruning ... 4 (adaptive)
Weight generation scheme         WeightScheme... mBecke (2022)
Basis function cutoff            BFCut       ... 1.0000e-11
Integration weight cutoff        WCut        ... 1.0000e-14
Partially contracted basis set               ... off
Rotationally invariant grid construction     ... off
Angular grids for H and He will be reduced by one unit

Total number of grid points                  ...   209922
Total number of batches                      ...     3291
Average number of points per batch           ...       63
Average number of grid points per atom       ...    10496
Grids setup in   2.3 sec
Initializing property integral containers    ... done (  0.0 sec)

SHARK setup successfully completed in   2.5 seconds

Maximum memory used throughout the entire STARTUP-calculation: 43.3 MB


           ************************************************************
           *        Program running with 64 parallel MPI-processes    *
           *              working on a common directory               *
           ************************************************************
-------------------------------------------------------------------------------
                                 ORCA GUESS
                   Start orbitals & Density for SCF / CASSCF
-------------------------------------------------------------------------------

------------
SCF SETTINGS
------------
Hamiltonian:
 Density Functional     Method          .... DFT(GTOs)
 Exchange Functional    Exchange        .... PBE
   PBE kappa parameter   XKappa         ....  0.804000
   PBE mue parameter    XMuePBE         ....  0.219520
 Correlation Functional Correlation     .... PBE
   PBE beta parameter  CBetaPBE         ....  0.066725
 LDA part of GGA corr.  LDAOpt          .... PW91-LDA
 Gradients option       PostSCFGGA      .... off
   NL short-range parameter             ....  6.400000
 RI-approximation to the Coulomb term is turned on
   Number of AuxJ basis functions       .... 420


General Settings:
 Integral files         IntName         .... run
 Hartree-Fock type      HFTyp           .... RHF
 Total Charge           Charge          ....    0
 Multiplicity           Mult            ....    1
 Number of Electrons    NEL             ....   80
 Basis Dimension        Dim             ....  200
 Nuclear Repulsion      ENuc            ....    454.0105990554 Eh

Convergence Acceleration:
 AO-DIIS                CNVDIIS         .... on
   Start iteration      DIISMaxIt       ....    12
   Startup error        DIISStart       ....  0.200000
   # of expansion vecs  DIISMaxEq       ....     5
   Bias factor          DIISBfac        ....   1.050
   Max. coefficient     DIISMaxC        ....  10.000
 MO-DIIS                CNVKDIIS        .... off
 Trust-Rad. Augm. Hess. CNVTRAH         .... auto
   Auto Start mean grad. ratio tolernc. ....  1.125000
   Auto Start start iteration           ....    50
   Auto Start num. interpolation iter.  ....    10
   Max. Number of Micro iterations      ....    24
   Max. Number of Macro iterations      .... Maxiter - #DIIS iter
   Number of Davidson start vectors     ....     2
   Converg. threshold    (grad. norm)   ....   1.000e-05
   Grad. Scal. Fac. for Micro threshold ....   0.100
   Minimum threshold for Micro iter.    ....   1.000e-02
   NR start threshold (gradient norm)   ....   1.000e-04
   Initial trust radius                 ....   0.400
   Minimum AH scaling param. (alpha)    ....   1.000
   Maximum AH scaling param. (alpha)    .... 1000.000
   Quad. conv. algorithm                .... NR
   White noise on init. David. guess    .... on
   Maximum white noise                  ....   0.010
   Pseudo random numbers                .... off
   Inactive MOs                         .... canonical
   Orbital update algorithm             .... Taylor
   Preconditioner                       .... Diag
   Full preconditioner red. dimension   ....   250
 SOSCF                 CNVSOSCF           .... on
   Start iteration     SOSCFMaxIt         ....   150
   Startup grad/error  SOSCFStart         ....  0.003300
   Hessian update      SOSCFHessUp        .... L-BFGS
   Autom. constraints  SOSCFAutoConstrain .... off
 Level Shifting         CNVShift        .... on
   Level shift para.    LevelShift      ....    0.2500
   Turn off err/grad.   ShiftErr        ....    0.0010
 Zerner damping         CNVZerner       .... off
 Static damping         CNVDamp         .... on
   Fraction old density DampFac         ....    0.7000
   Max. Damping (<1)    DampMax         ....    0.9800
   Min. Damping (>=0)   DampMin         ....    0.0000
   Turn off err/grad.   DampErr         ....    0.1000

SCF Procedure:
 Maximum # iterations   MaxIter         ....   125
 SCF integral mode      SCFMode         .... Direct
   Integral package                     .... SHARK and LIBINT hybrid scheme
 Reset frequency        DirectResetFreq ....    20
 Integral Threshold     Thresh          ....  2.500e-11 Eh
 Primitive CutOff       TCut            ....  2.500e-12 Eh

Convergence Tolerance:
 Convergence Check Mode ConvCheckMode   .... Total+1el-Energy
 Convergence forced     ConvForced      .... 0
 Energy Change          TolE            ....  1.000e-08 Eh
 1-El. energy change                    ....  1.000e-05 Eh
 Orbital Gradient       TolG            ....  1.000e-05
 Orbital Rotation angle TolX            ....  1.000e-05
 DIIS Error             TolErr          ....  5.000e-07

------------------------------
INITIAL GUESS: MODEL POTENTIAL
------------------------------
Loading Hartree-Fock densities                     ... done
Calculating cut-offs                               ... done
Initializing the effective Hamiltonian             ... done
Setting up the integral package (SHARK)            ... done
Starting the Coulomb interaction                   ... done (   0.0 sec)
Making the grid                                    ... done (   0.1 sec)
Mapping shells                                     ... done
Starting the XC term evaluation                    ... done (   0.0 sec)
  promolecular density results
     # of electrons  =     79.991336019
     EX              =    -94.599287031
     EC              =     -2.794687851
     EX+EC           =    -97.393974882
Transforming the Hamiltonian                       ... done (   0.0 sec)
Diagonalizing the Hamiltonian                      ... done (   0.0 sec)
Back transforming the eigenvectors                 ... done (   0.0 sec)
Now organizing SCF variables                       ... done
                      ------------------
                      INITIAL GUESS DONE (   0.1 sec)
                      ------------------
             **** ENERGY FILE WAS UPDATED (run.en.tmp) ****
Finished Guess after   1.5 sec
Maximum memory used throughout the entire GUESS-calculation: 12.5 MB


           ************************************************************
           *        Program running with 64 parallel MPI-processes    *
           *              working on a common directory               *
           ************************************************************

-------------------------------------------------------------------------------------------
                                      ORCA LEAN-SCF
                              memory conserving SCF solver
-------------------------------------------------------------------------------------------

----------------------------------------D-I-I-S--------------------------------------------
Iteration    Energy (Eh)           Delta-E    RMSDP     MaxDP     DIISErr   Damp  Time(sec)
-------------------------------------------------------------------------------------------
               ***  Starting incremental Fock matrix formation  ***
    1    -1220.3391629775858291     0.00e+00  6.26e-03  1.86e-02  8.30e-02  0.700   0.2
    2    -1220.3591728217393211    -2.00e-02  5.77e-03  1.73e-02  5.63e-02  0.700   0.2
                               ***Turning on AO-DIIS***
    3    -1220.3720155431703915    -1.28e-02  3.39e-03  9.47e-03  3.38e-02  0.700   0.2
    4    -1220.3796742230847485    -7.66e-03  7.00e-03  1.86e-02  2.19e-02  0.000   0.2
                              *** Initializing SOSCF ***
---------------------------------------S-O-S-C-F--------------------------------------
Iteration    Energy (Eh)           Delta-E    RMSDP     MaxDP     MaxGrad    Time(sec)
--------------------------------------------------------------------------------------
    5    -1220.3950103416832462    -1.53e-02  6.97e-04  4.99e-03  1.78e-03     0.2
               *** Restarting incremental Fock matrix formation ***
    6    -1220.3950511394871228    -4.08e-05  3.82e-04  1.54e-03  4.10e-04     0.2
    7    -1220.3950544352412635    -3.30e-06  1.54e-04  1.41e-03  2.88e-04     0.2
    8    -1220.3950563252924439    -1.89e-06  6.12e-05  4.22e-04  3.55e-05     0.2
    9    -1220.3950564098011000    -8.45e-08  2.32e-05  6.47e-05  2.78e-05     0.2
   10    -1220.3950564689234852    -5.91e-08  6.75e-06  3.70e-05  3.90e-06     0.2
   11    -1220.3950564708025013    -1.88e-09  3.10e-06  1.60e-05  2.20e-06     0.2
                 **** Energy Check signals convergence ****

               *****************************************************
               *                     SUCCESS                       *
               *           SCF CONVERGED AFTER  11 CYCLES          *
               *****************************************************

             **** ENERGY FILE WAS UPDATED (run.en.tmp) ****

----------------
TOTAL SCF ENERGY
----------------

Total Energy       :      -1220.39505647101737 Eh          -33208.63778 eV

Components:
Nuclear Repulsion  :        454.01059905537176 Eh           12354.25648 eV
Electronic Energy  :      -1674.40565552638918 Eh          -45562.89426 eV
One Electron Energy:      -2598.71476618677934 Eh          -70714.62385 eV
Two Electron Energy:        924.30911066039016 Eh           25151.72959 eV

Virial components:
Potential Energy   :      -2436.43809867395066 Eh          -66298.85123 eV
Kinetic Energy     :       1216.04304220293329 Eh           33090.21345 eV
Virial Ratio       :          2.00357883242373

DFT components:
N(Alpha)           :       40.000014443459 electrons
N(Beta)            :       40.000014443459 electrons
N(Total)           :       80.000028886919 electrons
E(X)               :      -95.260450503461 Eh       
E(C)               :       -2.763523639973 Eh       
E(XC)              :      -98.023974143433 Eh       

---------------
SCF CONVERGENCE
---------------

  Last Energy change         ...    1.8790e-09  Tolerance :   1.0000e-08
  Last MAX-Density change    ...    1.6026e-05  Tolerance :   1.0000e-07
  Last RMS-Density change    ...    3.0986e-06  Tolerance :   5.0000e-09
  Last DIIS Error            ...    1.7751e-03  Tolerance :   5.0000e-07
  Last Orbital Gradient      ...    2.1959e-06  Tolerance :   1.0000e-05
  Last Orbital Rotation      ...    4.3294e-06  Tolerance :   1.0000e-05


----------------
ORBITAL ENERGIES
----------------

  NO   OCC          E(Eh)            E(eV) 
   0   2.0000     -55.430763     -1508.3477 
   1   2.0000     -55.430646     -1508.3446 
   2   2.0000     -55.422806     -1508.1312 
   3   2.0000     -55.394795     -1507.3690 
   4   2.0000     -55.394728     -1507.3672 
   5   2.0000      -3.963803      -107.8606 
   6   2.0000      -3.963673      -107.8570 
   7   2.0000      -3.960555      -107.7722 
   8   2.0000      -3.932253      -107.0020 
   9   2.0000      -3.932178      -107.0000 
  10   2.0000      -2.567655       -69.8694 
  11   2.0000      -2.567522       -69.8658 
  12   2.0000      -2.566744       -69.8447 
  13   2.0000      -2.566614       -69.8411 
  14   2.0000      -2.565002       -69.7973 
  15   2.0000      -2.564460       -69.7825 
  16   2.0000      -2.564333       -69.7791 
  17   2.0000      -2.564319       -69.7787 
  18   2.0000      -2.559743       -69.6541 
  19   2.0000      -2.538173       -69.0672 
  20   2.0000      -2.538101       -69.0652 
  21   2.0000      -2.535299       -68.9890 
  22   2.0000      -2.535220       -68.9868 
  23   2.0000      -2.530706       -68.8640 
  24   2.0000      -2.530633       -68.8620 
  25   2.0000      -0.522199       -14.2098 
  26   2.0000      -0.465990       -12.6802 
  27   2.0000      -0.438125       -11.9220 
  28   2.0000      -0.385933       -10.5018 
  29   2.0000      -0.375081       -10.2065 
  30   2.0000      -0.340608        -9.2684 
  31   2.0000      -0.319978        -8.7070 
  32   2.0000      -0.318651        -8.6709 
  33   2.0000      -0.314047        -8.5457 
  34   2.0000      -0.295511        -8.0413 
  35   2.0000      -0.289553        -7.8791 
  36   2.0000      -0.282351        -7.6832 
  37   2.0000      -0.271657        -7.3921 
  38   2.0000      -0.267189        -7.2706 
  39   2.0000      -0.261972        -7.1286 
  40   0.0000      -0.073030        -1.9872 
  41   0.0000      -0.070214        -1.9106 
  42   0.0000      -0.049265        -1.3406 
  43   0.0000      -0.046617        -1.2685 
  44   0.0000      -0.040190        -1.0936 
  45   0.0000      -0.037571        -1.0224 
  46   0.0000      -0.023809        -0.6479 
  47   0.0000      -0.014294        -0.3890 
  48   0.0000      -0.006992        -0.1903 
  49   0.0000      -0.005450        -0.1483 
  50   0.0000       0.008556         0.2328 
*Only the first 10 virtual orbitals were printed.
-------
TIMINGS
-------

Total SCF time: 0 days 0 hours 0 min 3 sec 

Total time                  ....       3.472 sec
Sum of individual times     ....       3.291 sec  ( 94.8%)

SCF preparation             ....       1.374 sec  ( 39.6%)
Fock matrix formation       ....       1.402 sec  ( 40.4%)
  Startup                   ....       0.011 sec  (  0.8% of F)
  Split-RI-J                ....       0.294 sec  ( 21.0% of F)
  XC integration            ....       0.951 sec  ( 67.8% of F)
    XC Preparation          ....       0.000 sec  (  0.0% of XC)
    Basis function eval.    ....       0.153 sec  ( 16.1% of XC)
    Density eval.           ....       0.107 sec  ( 11.2% of XC)
    XC-Functional eval.     ....       0.023 sec  (  2.4% of XC)
    XC-Potential eval.      ....       0.089 sec  (  9.4% of XC)
Diagonalization             ....       0.000 sec  (  0.0%)
Density matrix formation    ....       0.066 sec  (  1.9%)
Total Energy calculation    ....       0.044 sec  (  1.3%)
Population analysis         ....       0.000 sec  (  0.0%)
Orbital Transformation      ....       0.042 sec  (  1.2%)
Orbital Orthonormalization  ....       0.000 sec  (  0.0%)
DIIS solution               ....       0.179 sec  (  5.2%)
SOSCF solution              ....       0.182 sec  (  5.3%)
Finished LeanSCF after   3.5 sec

Maximum memory used throughout the entire LEANSCF-calculation: 13.5 MB


           ************************************************************
           *        Program running with 64 parallel MPI-processes    *
           *              working on a common directory               *
           ************************************************************

------------------------------------------------------------------------------
                         ORCA PROPERTY INTEGRAL CALCULATIONS
------------------------------------------------------------------------------

GBWName                                   ... run.gbw
Number of atoms                           ...     20
Number of basis functions                 ...    200
Max core memory                           ...   4096 MB

Dipole integrals                          ... YES
Quadrupole integrals                      ...  NO
Linear momentum integrals                 ...  NO
Angular momentum integrals                ...  NO
Higher moments length integrals           ...  NO
Higher moments velocity integrals         ...  NO
Kinetic energy integrals                  ...  NO
GIAO right hand sides                     ...  NO
GIAO dipole derivative integrals          ...  NO
SOC integrals                             ...  NO
EPR diamagnetic integrals (GIAO)          ...  NO
EPR gauge integrals                       ...  NO
Field gradient integrals                  ...  NO (   0 nuclei)
Spin-dipole/Fermi contact integrals       ...  NO (   0 nuclei)
Contact density integrals                 ...  NO (   0 nuclei)
Nucleus-orbit integrals                   ...  NO (   0 nuclei)
Geometric perturbations                   ...  NO (  20 nuclei)

Choice of electric origin   ... Center of mass
Position of electric origin ... ( -0.0776, -0.0177,  5.7519) 
Choice of magnetic origin   ... GIAO
Position of magnetic origin ... (  0.0000,  0.0000,  0.0000) 

Calculating integrals                     ... Electric Dipole (Length)     done (  0.0 sec)

Property integrals calculated in   0.0 sec

Maximum memory used throughout the entire PROPINT-calculation: 12.8 MB


-------------------------------------------------------------------------------
                          DFT DISPERSION CORRECTION                            
                                                                               
                              DFTD3 V3.1  Rev 1                                
                          USING Becke-Johnson damping                          
-------------------------------------------------------------------------------
The PBE functional is recognized
Active option DFTDOPT                   ...         4   

molecular C6(AA) [au] = 7710.762889 


            DFT-D V3
 parameters
 s6 scaling factor         :     1.0000 
 a1 scaling factor         :     0.4289 
 s8 scaling factor         :     0.7875 
 a2 scaling factor         :     4.4407 
 ad hoc parameters k1-k3   :    16.0000     1.3333    -4.0000 

 Edisp/kcal,au: -12.991821633178  -0.020703783424 
 E6   /kcal   :  -8.158985403 
 E8   /kcal   :  -4.832836231 
 % E8         :  37.199065436 

-------------------------   ----------------
Dispersion correction           -0.020703783
-------------------------   ----------------


-------------------------   --------------------
FINAL SINGLE POINT ENERGY     -1220.415760254441
-------------------------   --------------------



           ************************************************************
           *        Program running with 64 parallel MPI-processes    *
           *              working on a common directory               *
           ************************************************************
------------------------------------------------------------------------------
                         ORCA SCF GRADIENT CALCULATION
------------------------------------------------------------------------------

Nuc. rep. gradient        (SHARK) ... done (  0.0 sec)
HCore & Overlap gradient  (SHARK) ... done (  0.0 sec)
Split-RIJ-J gradient      (SHARK) ... done (  0.1 sec)
XC gradient                       ... done (  0.4 sec)
Dispersion correction             ... done (  0.0 sec)

-------------------
DISPERSION GRADIENT
-------------------

   1   Al  :   -0.000309305    0.000339701    0.000167620
   2   H   :   -0.000182819    0.000141894    0.000005956
   3   H   :    0.000092890   -0.000051892   -0.000118359
   4   H   :   -0.000023566   -0.000072286    0.000105066
   5   Al  :    0.000353729    0.000619164    0.000194016
   6   H   :    0.000213464    0.000111942    0.000068622
   7   H   :    0.000075015    0.000139860    0.000012820
   8   H   :   -0.000140539   -0.000009030    0.000157192
   9   Al  :   -0.000249194   -0.000314697   -0.000281333
  10   H   :   -0.000162307   -0.000079045   -0.000144625
  11   H   :    0.000023382    0.000139762    0.000121672
  12   H   :    0.000056465   -0.000031255   -0.000236739
  13   Al  :   -0.000214053   -0.000347902    0.000479170
  14   H   :   -0.000126192   -0.000160440    0.000053811
  15   H   :    0.000016845   -0.000114981    0.000170081
  16   H   :    0.000231344   -0.000076156   -0.000061018
  17   Al  :    0.000444741   -0.000353811   -0.000473941
  18   H   :   -0.000183349    0.000040932   -0.000084646
  19   H   :    0.000031930    0.000237750   -0.000052191
  20   H   :    0.000051518   -0.000159512   -0.000083176

Difference to translation invariance:
           :   -0.0000000000    0.0000000000    0.0000000000

Difference to rotation invariance:
           :   -0.0000000000   -0.0000000000   -0.0000000000

Norm of the Dispersion gradient    ...    0.0016230994
RMS gradient                       ...    0.0002095412
MAX gradient                       ...    0.0006191645

------------------
CARTESIAN GRADIENT
------------------

   1   Al  :    0.000380421    0.000211354    0.000006319
   2   H   :    0.001503212   -0.001208483   -0.000071964
   3   H   :    0.000033175    0.000629815    0.001673239
   4   H   :   -0.000855614   -0.000372129    0.000443658
   5   Al  :   -0.001450209   -0.000973970   -0.000176402
   6   H   :   -0.001296033    0.001256170   -0.000083323
   7   H   :    0.000259016   -0.001791566    0.000020631
   8   H   :    0.001425080   -0.000350327   -0.000913938
   9   Al  :    0.000322344   -0.000051565   -0.000205349
  10   H   :    0.001313222    0.000689260    0.001227778
  11   H   :    0.000205346    0.000043898   -0.001719107
  12   H   :    0.000004151   -0.001694219    0.000652979
  13   Al  :   -0.000651253    0.000493389   -0.000806562
  14   H   :    0.001294329    0.001151099    0.000121453
  15   H   :   -0.000366294    0.000916549   -0.001393208
  16   H   :   -0.001123415   -0.000528393   -0.001290168
  17   Al  :   -0.001610572    0.000372741    0.000702211
  18   H   :    0.000759888   -0.000425604    0.000698441
  19   H   :   -0.000211746    0.000016983    0.001763859
  20   H   :    0.000064952    0.001614998   -0.000650549

Difference to translation invariance:
           :    0.0000000000    0.0000000000   -0.0000000001

Difference to rotation invariance:
           :   -0.0000012576    0.0000483342   -0.0000298877

Norm of the Cartesian gradient     ...    0.0072155167
RMS gradient                       ...    0.0009315192
MAX gradient                       ...    0.0017915658

-------
TIMINGS
-------

Total SCF gradient time     ....        0.596 sec

Densities                   ....       0.002 sec  (  0.3%)
One electron gradient       ....       0.023 sec  (  3.9%)
RI-J Coulomb gradient       ....       0.144 sec  ( 24.1%)
XC gradient                 ....       0.385 sec  ( 64.6%)

Maximum memory used throughout the entire SCFGRAD-calculation: 32.5 MB
------------------------------------------------------------------------------
                         ORCA GEOMETRY RELAXATION STEP
------------------------------------------------------------------------------

Reading the OPT-File                    .... done
Getting information on internals        .... done
Copying old internal coords+grads       .... done
Making the new internal coordinates     .... (2022 redundants) done
Validating the new internal coordinates .... (2022 redundants) done
Calculating the B-matrix                .... done
Calculating the G,G- and P matrices     .... done
Transforming gradient to internals      .... done
Projecting the internal gradient        .... done
Number of atoms                         ....  20
Number of internal coordinates          .... 253
Current Energy                          .... -1220.415760254 Eh
Current gradient norm                   ....     0.007215517 Eh/bohr
Maximum allowed component of the step   ....  0.300
Current trust radius                    ....  0.300
Evaluating the initial hessian          ....  (Almloef) done
Projecting the Hessian                  .... done
Forming the augmented Hessian           .... done
Diagonalizing the augmented Hessian     .... done
Last element of RFO vector              ....  0.999639987
Lowest eigenvalues of augmented Hessian:
 -0.000169418  0.021052344  0.029745941  0.033711712  0.035806382
Length of the computed step             ....  0.026840563
The final length of the internal step   ....  0.026840563
Converting the step to Cartesian space:
 Initial RMS(Int)=    0.0016874518
Transforming coordinates:
 Iter   0:  RMS(Cart)=    0.0048431388 RMS(Int)=    0.0016874355
done
Storing new coordinates                 .... done

                                .--------------------.
          ----------------------|Geometry convergence|-------------------------
          Item                value                   Tolerance       Converged
          ---------------------------------------------------------------------
          RMS gradient        0.0004366883            0.0000300000      NO
          MAX gradient        0.0019268757            0.0001000000      NO
          RMS step            0.0016874518            0.0006000000      NO
          MAX step            0.0084512576            0.0010000000      NO
          -------------------------------------------------------------------------
          ........................................................
          Max(Bonds)      0.0045      Max(Angles)    0.06
          Max(Dihed)        0.11      Max(Improp)    0.00
          ---------------------------------------------------------------------

The optimization has not yet converged - more geometry cycles are needed


    ---------------------------------------------------------------------------
                         Redundant Internal Coordinates
                            (Angstroem and degrees)

        Definition                    Value    dE/dq     Step     New-Value
    ----------------------------------------------------------------------------
     1. B(H   1,Al  0)                1.5835 -0.001927  0.0025    1.5860   
     2. B(Al  4,Al  0)                2.6251 -0.001417  0.0027    2.6278   
     3. B(H   5,Al  4)                1.5848 -0.001792  0.0023    1.5871   
     4. B(H   6,Al  4)                1.5865 -0.001800  0.0023    1.5888   
     5. B(H   7,Al  0)                1.8089 -0.000866  0.0025    1.8114   
     6. B(Al  8,Al  0)                3.1614 -0.001106  0.0045    3.1659   
     7. B(H   9,Al  8)                1.5834 -0.001923  0.0025    1.5858   
     8. B(H  10,Al  4)                1.7192 -0.001120  0.0023    1.7215   
     9. B(H  10,Al  0)                1.7928 -0.001134  0.0027    1.7954   
    10. B(H  11,Al  8)                1.7656 -0.001188  0.0026    1.7681   
    11. B(Al 12,Al  8)                2.7904 -0.001041  0.0031    2.7935   
    12. B(Al 12,H   7)                1.6757 -0.001071  0.0023    1.6780   
    13. B(Al 12,H   3)                1.6394 -0.000998  0.0016    1.6410   
    14. B(Al 12,Al  0)                2.7863 -0.001059  0.0032    2.7894   
    15. B(H  13,Al  8)                1.8085 -0.000866  0.0025    1.8110   
    16. B(H  13,Al 12)                1.6756 -0.001100  0.0023    1.6779   
    17. B(H  14,Al 12)                1.5764 -0.001707  0.0021    1.5786   
    18. B(Al 16,H  15)                1.5848 -0.001775  0.0023    1.5871   
    19. B(Al 16,H  11)                1.7288 -0.001107  0.0024    1.7312   
    20. B(Al 16,Al  8)                2.6255 -0.001424  0.0027    2.6282   
    21. B(Al 16,H   2)                1.5866 -0.001778  0.0023    1.5889   
    22. B(H  17,Al  8)                1.7264 -0.000693  0.0024    1.7289   
    23. B(H  17,Al  0)                1.7277 -0.000675  0.0024    1.7301   
    24. B(H  18,Al  4)                1.7296 -0.001088  0.0023    1.7319   
    25. B(H  18,Al  0)                1.7650 -0.001188  0.0026    1.7676   
    26. B(H  19,Al 16)                1.7193 -0.001128  0.0023    1.7216   
    27. B(H  19,Al  8)                1.7925 -0.001132  0.0027    1.7952   
    28. A(Al  4,Al  0,H  18)           40.80 -0.000056    0.02     40.82   
    29. A(H   7,Al  0,H  18)          146.38 -0.000170    0.03    146.41   
    30. A(Al  4,Al  0,H  17)          124.68 -0.000049    0.01    124.69   
    31. A(H   1,Al  0,Al 12)          136.72  0.000015   -0.01    136.70   
    32. A(H  17,Al  0,H  18)           88.55  0.000041   -0.03     88.52   
    33. A(Al  8,Al  0,H  18)           83.36  0.000023    0.01     83.37   
    34. A(H   1,Al  0,H  17)          104.91  0.000104   -0.02    104.89   
    35. A(Al  4,Al  0,H  10)           40.57 -0.000063    0.02     40.59   
    36. A(Al  8,Al  0,H  17)           23.75 -0.000057   -0.00     23.75   
    37. A(H  10,Al  0,H  17)          150.30 -0.000142    0.03    150.33   
    38. A(H  10,Al  0,H  18)           81.33 -0.000119    0.04     81.37   
    39. A(Al 12,Al  0,H  18)          112.16 -0.000016    0.01    112.17   
    40. A(Al 12,Al  0,H  17)           73.70 -0.000064    0.01     73.71   
    41. A(Al  4,Al  0,Al  8)          109.76 -0.000043    0.04    109.81   
    42. A(H   1,Al  0,Al  8)          128.37  0.000051   -0.03    128.35   
    43. A(H   7,Al  0,Al 12)           35.29 -0.000147    0.02     35.31   
    44. A(H   7,Al  0,H  17)           87.59 -0.000088    0.01     87.60   
    45. A(Al  4,Al  0,H   7)          120.75 -0.000096    0.03    120.78   
    46. A(Al  4,Al  0,Al 12)          101.92 -0.000035    0.03    101.95   
    47. A(H   1,Al  0,H  10)          104.79  0.000038   -0.01    104.78   
    48. A(H   1,Al  0,H  18)          111.03  0.000007    0.01    111.04   
    49. A(H   7,Al  0,H  10)           85.71  0.000004    0.00     85.72   
    50. A(H  10,Al  0,Al 12)           84.37 -0.000027    0.01     84.38   
    51. A(Al  8,Al  0,Al 12)           55.53 -0.000007   -0.01     55.52   
    52. A(H   1,Al  0,Al  4)          112.41  0.000004   -0.01    112.39   
    53. A(H   7,Al  0,Al  8)           79.81 -0.000102   -0.01     79.80   
    54. A(Al  8,Al  0,H  10)          126.66 -0.000085    0.03    126.69   
    55. A(H   1,Al  0,H   7)          102.22  0.000156   -0.03    102.19   
    56. A(Al  0,Al  4,H  10)           42.71 -0.000059    0.03     42.74   
    57. A(Al  0,Al  4,H   5)          118.24  0.000147   -0.02    118.22   
    58. A(H   5,Al  4,H   6)          128.82 -0.000249    0.04    128.86   
    59. A(Al  0,Al  4,H   6)          112.93  0.000104   -0.02    112.90   
    60. A(H   6,Al  4,H  18)          107.44  0.000113   -0.02    107.42   
    61. A(H   5,Al  4,H  18)          109.38  0.000135   -0.04    109.34   
    62. A(Al  0,Al  4,H  18)           41.82 -0.000079    0.03     41.85   
    63. A(H   6,Al  4,H  10)          108.30  0.000080   -0.01    108.29   
    64. A(H   5,Al  4,H  10)          109.47  0.000109   -0.03    109.44   
    65. A(H  10,Al  4,H  18)           84.48 -0.000138    0.06     84.54   
    66. A(Al  0,H   7,Al 12)          106.12  0.000246   -0.04    106.08   
    67. A(H   9,Al  8,Al 12)          136.67 -0.000001   -0.01    136.66   
    68. A(Al  0,Al  8,Al 12)           55.40 -0.000012   -0.01     55.39   
    69. A(H  13,Al  8,H  19)           85.58  0.000010    0.00     85.59   
    70. A(Al 12,Al  8,H  17)           73.60 -0.000067    0.01     73.61   
    71. A(H  13,Al  8,Al 16)          120.60 -0.000091    0.03    120.64   
    72. A(Al 12,Al  8,Al 16)          101.86 -0.000023    0.03    101.89   
    73. A(H  11,Al  8,Al 16)           40.77 -0.000060    0.02     40.79   
    74. A(H   9,Al  8,Al 16)          112.52  0.000015   -0.01    112.50   
    75. A(Al  0,Al  8,Al 16)          109.51 -0.000055    0.05    109.56   
    76. A(H  17,Al  8,H  19)          149.95 -0.000156    0.03    149.98   
    77. A(Al  0,Al  8,H  19)          126.30 -0.000100    0.04    126.34   
    78. A(Al 16,Al  8,H  19)           40.57 -0.000064    0.02     40.59   
    79. A(Al 12,Al  8,H  19)           84.25 -0.000020    0.01     84.26   
    80. A(H  11,Al  8,H  19)           81.29 -0.000125    0.04     81.33   
    81. A(H   9,Al  8,H  19)          104.93  0.000054   -0.01    104.92   
    82. A(Al  0,Al  8,H   9)          128.59  0.000052   -0.03    128.56   
    83. A(H   9,Al  8,H  11)          111.13  0.000009    0.00    111.13   
    84. A(Al 12,Al  8,H  13)           35.18 -0.000161    0.02     35.20   
    85. A(H  11,Al  8,H  13)          146.20 -0.000172    0.03    146.24   
    86. A(Al  0,Al  8,H  11)           83.25  0.000019    0.01     83.26   
    87. A(H   9,Al  8,H  13)          102.30  0.000157   -0.03    102.27   
    88. A(Al 16,Al  8,H  17)          124.44 -0.000067    0.02    124.46   
    89. A(H  13,Al  8,H  17)           87.63 -0.000087    0.01     87.64   
    90. A(Al  0,Al  8,H  13)           79.75 -0.000109   -0.01     79.74   
    91. A(H  11,Al  8,H  17)           88.40  0.000029   -0.02     88.38   
    92. A(H   9,Al  8,H  17)          105.12  0.000104   -0.02    105.10   
    93. A(Al  0,Al  8,H  17)           23.77 -0.000054   -0.00     23.76   
    94. A(H  11,Al  8,Al 12)          112.12 -0.000004    0.01    112.12   
    95. A(Al  0,H  10,Al  4)           96.72  0.000121   -0.05     96.67   
[...]
     29       0.089101   0.399783   0.497672  -0.096629  -0.109730  -0.036511
     30      -0.022714  -0.018334   0.016213  -0.008715   0.005286   0.007577
     31      -0.012364  -0.007007   0.004195   0.001725  -0.000912   0.005905
     32       0.000085   0.001203  -0.002695   0.000144   0.000697   0.000302
     33      -0.023996  -0.009116  -0.021415   0.007477   0.003137   0.005549
     34       0.003893   0.006002   0.008331   0.000298   0.001215  -0.002456
     35       0.007876   0.001184   0.003529   0.002303   0.001693  -0.001820
     36       0.000723  -0.000209  -0.000189  -0.000003   0.000754  -0.007259
     37      -0.000128   0.000405   0.001890  -0.000018  -0.000065   0.020371
     38       0.000280  -0.001036   0.001152  -0.000006   0.000196  -0.030744
     39      -0.001776  -0.008089  -0.015349   0.000805  -0.001742   0.003383
     40      -0.001424  -0.004197  -0.009540  -0.000953  -0.001133   0.006826
     41      -0.004243  -0.032950  -0.051950   0.000946   0.001153  -0.008091
     42      -0.003872   0.019214   0.002035  -0.000009  -0.006235   0.216035
     43       0.010153  -0.043115  -0.004795  -0.000147   0.010523  -0.534804
     44      -0.015338   0.065678   0.006695  -0.000303  -0.016230   0.810762
     45       0.288247  -0.138904  -0.129059  -0.389591  -0.400677   0.010612
     46       0.105344  -0.047835  -0.044693  -0.135059  -0.141544   0.002431
     47       0.262765  -0.119976  -0.111669  -0.338459  -0.350427   0.008021
     48      -0.011346   0.005640   0.005401   0.012790   0.013484  -0.000729
     49       0.003885   0.001436   0.001801   0.010857   0.010784   0.000203
     50       0.009738   0.003648   0.004660   0.027362   0.027185   0.000480
     51      -0.002552  -0.007757   0.011984  -0.000288  -0.000831  -0.001596
     52       0.000216   0.017026  -0.135421   0.003409   0.000606   0.004224
     53      -0.000268   0.005535  -0.093345   0.002360  -0.000860  -0.006496
     54      -0.021888  -0.012185   0.017619  -0.007631   0.003323   0.005009
     55      -0.011326  -0.006176   0.007784   0.001330  -0.001587   0.003271
     56      -0.002721  -0.007547   0.006880  -0.001181  -0.000243   0.002089
     57      -0.024688  -0.015017  -0.019837   0.008391   0.005267   0.008257
     58       0.001488  -0.000313  -0.003229   0.001849   0.000390  -0.001397
     59       0.009824   0.004537   0.004532   0.002256   0.001559  -0.004712


-----------
IR SPECTRUM
-----------

 Mode   freq       eps      Int      T**2         TX        TY        TZ
       cm**-1   L/(mol*cm) km/mol    a.u.
----------------------------------------------------------------------------
  6:     48.73   0.000109    0.55  0.000698  ( 0.010471  0.014820 -0.019203)
  7:     51.40   0.000503    2.54  0.003056  (-0.004429  0.045360  0.031294)
  8:     83.55   0.001281    6.47  0.004783  (-0.005492  0.056977  0.038817)
  9:     94.97   0.000067    0.34  0.000220  ( 0.011683 -0.003518  0.008408)
 10:    157.73   0.001877    9.49  0.003714  ( 0.007272 -0.036295  0.048412)
 11:    162.09   0.003013   15.23  0.005800  (-0.005519  0.061200  0.044995)
 12:    213.22   0.001288    6.51  0.001886  (-0.000966 -0.026422  0.034446)
 13:    217.41   0.000531    2.68  0.000762  ( 0.002057 -0.020918 -0.017889)
 14:    270.38   0.000108    0.54  0.000124  (-0.009596 -0.003555  0.004403)
 15:    300.57   0.000564    2.85  0.000586  (-0.001856  0.019970  0.013548)
 16:    310.18   0.000060    0.30  0.000060  (-0.007725 -0.000841  0.000123)
 17:    364.60   0.002080   10.51  0.001780  ( 0.032039  0.017367 -0.021256)
 18:    370.22   0.001201    6.07  0.001013  ( 0.002365 -0.026254 -0.017827)
 19:    392.20   0.000229    1.16  0.000182  (-0.012610  0.001887 -0.004416)
 20:    423.05   0.000149    0.75  0.000110  ( 0.000832 -0.008545 -0.006003)
 21:    442.81   0.000018    0.09  0.000013  ( 0.000325 -0.003098 -0.001727)
 22:    452.96   0.001090    5.51  0.000751  (-0.009899  0.013744 -0.021548)
 23:    501.86   0.001802    9.11  0.001121  ( 0.001986 -0.028003 -0.018238)
 24:    512.18   0.014515   73.35  0.008844  ( 0.062982  0.042068 -0.055741)
 25:    522.53   0.010885   55.01  0.006501  (-0.006129  0.067228  0.044086)
 26:    528.56   0.003021   15.27  0.001784  (-0.026080  0.014901 -0.029690)
 27:    537.10   0.016317   82.46  0.009480  (-0.007448  0.080269  0.054606)
 28:    627.38   0.042543  215.00  0.021161  (-0.052272 -0.079811  0.109814)
 29:    667.06   0.104625  528.73  0.048946  (-0.017096  0.181957  0.124680)
 30:    689.81   0.088510  447.29  0.040041  (-0.190137 -0.046605  0.041438)
 31:    711.68   0.004047   20.45  0.001775  (-0.027783  0.018391 -0.025781)
 32:    714.92   0.011938   60.33  0.005211  ( 0.004074 -0.058376 -0.042270)
 33:    741.32   0.087014  439.73  0.036629  ( 0.015325 -0.157745 -0.107287)
 34:    749.92   0.045862  231.77  0.019085  (-0.083638  0.056059 -0.094587)
 35:    795.86   0.020387  103.03  0.007994  (-0.008973 -0.050759  0.073055)
 36:    817.69   0.000512    2.59  0.000195  ( 0.001721 -0.011766 -0.007354)
 37:    825.22   0.037347  188.73  0.014123  (-0.118364 -0.010570 -0.001048)
 38:   1027.28   0.016454   83.15  0.004998  (-0.037474  0.031169 -0.051212)
 39:   1124.52   0.007515   37.98  0.002085  ( 0.003932 -0.037408 -0.025895)
 40:   1171.21   0.022170  112.04  0.005907  (-0.074939  0.003506 -0.016702)
 41:   1179.81   0.020846  105.35  0.005514  (-0.005530  0.061484  0.041268)
 42:   1216.73   0.120826  610.61  0.030989  (-0.057358 -0.097532  0.134858)
 43:   1347.84   0.102153  516.24  0.023651  ( 0.012064 -0.126412 -0.086752)
 44:   1382.18   0.144222  728.84  0.032562  ( 0.164805  0.051450 -0.052479)
 45:   1403.02   0.014242   71.97  0.003168  ( 0.003762 -0.046265 -0.031829)
 46:   1429.95   0.025868  130.73  0.005645  (-0.043545  0.032022 -0.052190)
 47:   1525.75   0.044208  223.41  0.009042  (-0.005608  0.078733  0.053024)
 48:   1536.25   0.076488  386.54  0.015537  ( 0.112750  0.035614 -0.039451)
 49:   1593.72   0.012208   61.69  0.002390  ( 0.004387 -0.040358 -0.027248)
 50:   1627.15   0.055374  279.84  0.010620  ( 0.081024 -0.030492  0.055904)
 51:   1739.35   0.143926  727.34  0.025822  ( 0.012317 -0.131870 -0.091000)
 52:   1745.38   0.034012  171.88  0.006081  (-0.017988 -0.044791  0.061248)
 53:   1886.95   0.006209   31.38  0.001027  (-0.001651  0.026539  0.017883)
 54:   1888.07   0.018690   94.45  0.003089  (-0.052081 -0.013693  0.013757)
 55:   1902.33   0.014864   75.12  0.002438  (-0.044136  0.011817 -0.018727)
 56:   1903.09   0.003340   16.88  0.000548  (-0.002804 -0.017869 -0.014852)
 57:   1908.37   0.049503  250.17  0.008095  (-0.007010  0.074192  0.050411)
 58:   1913.25   0.041687  210.67  0.006799  ( 0.058577 -0.028545  0.050531)
 59:   1931.15   0.019536   98.72  0.003157  (-0.003966  0.031430 -0.046403)

* The epsilon (eps) is given for a Dirac delta lineshape.
** The dipole moment derivative (T) already includes vibrational overlap.

The first frequency considered to be a vibration is 6
The total number of vibrations considered is 54


--------------------------
THERMOCHEMISTRY AT 298.15K
--------------------------

Temperature         ...   298.15 K
Pressure            ...     1.00 atm
Total Mass          ...   150.03 AMU
Quasi RRHO          ...     True
Cut-Off Frequency   ...     1.00 cm^-1

Throughout the following assumptions are being made:
  (1) The electronic state is orbitally nondegenerate
  (2) There are no thermally accessible electronically excited states
  (3) Hindered rotations indicated by low frequency modes are not
      treated as such but are treated as vibrations and this may
      cause some error
  (4) All equations used are the standard statistical mechanics
      equations for an ideal gas
  (5) All vibrations are strictly harmonic

freq.      48.73  E(vib)   ...       0.53 
freq.      51.40  E(vib)   ...       0.52 
freq.      83.55  E(vib)   ...       0.48 
freq.      94.97  E(vib)   ...       0.47 
freq.     157.73  E(vib)   ...       0.40 
freq.     162.09  E(vib)   ...       0.39 
freq.     213.22  E(vib)   ...       0.34 
freq.     217.41  E(vib)   ...       0.34 
freq.     270.38  E(vib)   ...       0.29 
freq.     300.57  E(vib)   ...       0.26 
freq.     310.18  E(vib)   ...       0.26 
freq.     364.60  E(vib)   ...       0.22 
freq.     370.22  E(vib)   ...       0.21 
freq.     392.20  E(vib)   ...       0.20 
freq.     423.05  E(vib)   ...       0.18 
freq.     442.81  E(vib)   ...       0.17 
freq.     452.96  E(vib)   ...       0.16 
freq.     501.86  E(vib)   ...       0.14 
freq.     512.18  E(vib)   ...       0.14 
freq.     522.53  E(vib)   ...       0.13 
freq.     528.56  E(vib)   ...       0.13 
freq.     537.10  E(vib)   ...       0.12 
freq.     627.38  E(vib)   ...       0.09 
freq.     667.06  E(vib)   ...       0.08 
freq.     689.81  E(vib)   ...       0.07 
freq.     711.68  E(vib)   ...       0.07 
freq.     714.92  E(vib)   ...       0.07 
freq.     741.32  E(vib)   ...       0.06 
freq.     749.92  E(vib)   ...       0.06 
freq.     795.86  E(vib)   ...       0.05 
freq.     817.69  E(vib)   ...       0.05 
freq.     825.22  E(vib)   ...       0.04 
freq.    1027.28  E(vib)   ...       0.02 
freq.    1124.52  E(vib)   ...       0.01 
freq.    1171.21  E(vib)   ...       0.01 
freq.    1179.81  E(vib)   ...       0.01 
freq.    1216.73  E(vib)   ...       0.01 
freq.    1347.84  E(vib)   ...       0.01 
freq.    1382.18  E(vib)   ...       0.01 
freq.    1403.02  E(vib)   ...       0.00 
freq.    1429.95  E(vib)   ...       0.00 
freq.    1525.75  E(vib)   ...       0.00 
freq.    1536.25  E(vib)   ...       0.00 
freq.    1593.72  E(vib)   ...       0.00 
freq.    1627.15  E(vib)   ...       0.00 
freq.    1739.35  E(vib)   ...       0.00 
freq.    1745.38  E(vib)   ...       0.00 
freq.    1886.95  E(vib)   ...       0.00 
freq.    1888.07  E(vib)   ...       0.00 
freq.    1902.33  E(vib)   ...       0.00 
freq.    1903.09  E(vib)   ...       0.00 
freq.    1908.37  E(vib)   ...       0.00 
freq.    1913.25  E(vib)   ...       0.00 
freq.    1931.15  E(vib)   ...       0.00 

------------
INNER ENERGY
------------

The inner energy is: U= E(el) + E(ZPE) + E(vib) + E(rot) + E(trans)
    E(el)   - is the total energy from the electronic structure calculation
              = E(kin-el) + E(nuc-el) + E(el-el) + E(nuc-nuc)
    E(ZPE)  - the the zero temperature vibrational energy from the frequency calculation
    E(vib)  - the the finite temperature correction to E(ZPE) due to population
              of excited vibrational states
    E(rot)  - is the rotational thermal energy
    E(trans)- is the translational thermal energy

Summary of contributions to the inner energy U:
Electronic energy                ...  -1220.41611562 Eh
Zero point energy                ...      0.11090692 Eh      69.59 kcal/mol
Thermal vibrational correction   ...      0.01084557 Eh       6.81 kcal/mol
Thermal rotational correction    ...      0.00141627 Eh       0.89 kcal/mol
Thermal translational correction ...      0.00141627 Eh       0.89 kcal/mol
-----------------------------------------------------------------------
Total thermal energy                  -1220.29153059 Eh


Summary of corrections to the electronic energy:
(perhaps to be used in another calculation)
Total thermal correction                  0.01367811 Eh       8.58 kcal/mol
Non-thermal (ZPE) correction              0.11090692 Eh      69.59 kcal/mol
-----------------------------------------------------------------------
Total correction                          0.12458503 Eh      78.18 kcal/mol


--------
ENTHALPY
--------

The enthalpy is H = U + kB*T
                kB is Boltzmann's constant
Total thermal energy              ...  -1220.29153059 Eh 
Thermal Enthalpy correction       ...      0.00094421 Eh       0.59 kcal/mol
-----------------------------------------------------------------------
Total Enthalpy                    ...  -1220.29058638 Eh


Note: Only C1 symmetry has been detected, increase convergence thresholds 
      if your molecule has a higher symmetry. Symmetry factor of 1.0 is   
      used for the rotational entropy correction. 
 

Note: Rotational entropy computed according to Herzberg 
Infrared and Raman Spectra, Chapter V,1, Van Nostrand Reinhold, 1945 
Point Group:  C1, Symmetry Number:   1  
Rotational constants in cm-1:     0.044117     0.025880     0.020534 

Vibrational entropy computed according to the QRRHO of S. Grimme
Chem.Eur.J. 2012 18 9955 using a reference frequency of 100.0 cm-1


-------
ENTROPY
-------

The entropy contributions are T*S = T*(S(el)+S(vib)+S(rot)+S(trans))
     S(el)   - electronic entropy
     S(vib)  - vibrational entropy
     S(rot)  - rotational entropy
     S(trans)- translational entropy
The entropies will be listed as multiplied by the temperature to get
units of energy

Electronic entropy                ...      0.00000000 Eh      0.00 kcal/mol
Vibrational entropy               ...      0.01855499 Eh     11.64 kcal/mol
Rotational entropy                ...      0.01454370 Eh      9.13 kcal/mol
Translational entropy             ...      0.01944577 Eh     12.20 kcal/mol
-----------------------------------------------------------------------
Final entropy term                ...      0.05254447 Eh     32.97 kcal/mol

In case the symmetry of your molecule has not been determined correctly
or in case you have a reason to use a different symmetry number we print 
out the resulting rotational entropy values for sn=1,12:

 non-linear molecules -----------------------------------
|  sn= 1 | S(rot)=       0.01454370 Eh      9.13 kcal/mol|
|  sn= 2 | S(rot)=       0.01388925 Eh      8.72 kcal/mol|
|  sn= 3 | S(rot)=       0.01350642 Eh      8.48 kcal/mol|
|  sn= 4 | S(rot)=       0.01323479 Eh      8.30 kcal/mol|
|  sn= 5 | S(rot)=       0.01302410 Eh      8.17 kcal/mol|
|  sn= 6 | S(rot)=       0.01285196 Eh      8.06 kcal/mol|
|  sn= 7 | S(rot)=       0.01270641 Eh      7.97 kcal/mol|
|  sn= 8 | S(rot)=       0.01258034 Eh      7.89 kcal/mol|
|  sn= 9 | S(rot)=       0.01246913 Eh      7.82 kcal/mol|
|  sn=10 | S(rot)=       0.01236965 Eh      7.76 kcal/mol|
|  sn=11 | S(rot)=       0.01227966 Eh      7.71 kcal/mol|
|  sn=12 | S(rot)=       0.01219750 Eh      7.65 kcal/mol|
 linear molecules ---------------------------------------
|  Dinfh | S(rot)=       0.00899460 Eh      5.64 kcal/mol|
|  Cinfv | S(rot)=       0.00964905 Eh      6.05 kcal/mol|
 --------------------------------------------------------


-------------------
GIBBS FREE ENERGY
-------------------

The Gibbs free energy is G = H - T*S

Total enthalpy                    ...  -1220.29058638 Eh 
Total entropy correction          ...     -0.05254447 Eh    -32.97 kcal/mol
-----------------------------------------------------------------------
Final Gibbs free energy         ...  -1220.34313084 Eh

For completeness - the Gibbs free energy minus the electronic energy
G-E(el)                           ...      0.07298478 Eh     45.80 kcal/mol


Maximum memory used throughout the entire PROP-calculation: 33.0 MB

--------------------------------
SUGGESTED CITATIONS FOR THIS RUN
--------------------------------

Below you find a list of papers that are relevant to this ORCA run
We neither can nor want to force you to cite these papers, but we appreciate if you do
You receive ORCA, which is the product of decades of hard work by many enthusiastic individuals, for free
The only thing we kindly ask in return is that you cite our papers,
We deeply appreciate it, if you show your appreciation for ORCA by not just citing the generic ORCA reference.

Please note that relegating all ORCA citations to the supporting information does *not* help us.
SI sections are not indexed - citations you put there will not count into any citation statistics
But we need these citations in order to attract the funding resources that allow us to do what we are doing

Therefore, if you are a happy ORCA user, please consider citing a few of the papers listed below in the main body of your paper

In addition to the list printed below, the program has created the file run.bibtex that contains the list in bibtex format
You can import this file easily into all common literature databanks and citation aid programs


List of essential papers. We consider these as the minimum necessary citations

  1. Neese, F.
     Software update: the ORCA program system, version 6.0
     WIRES Comput. Molec. Sci. 2025 15(1), e70019
     doi.org/10.1002/wcms.7019

List of papers to cite with high priority. The work reported in these papers was absolutely
necessary for this run to complete.
Our perspective: the developers of density functionals and basis sets usually get cited in chemistry papers
Good! But without the algorithms to do something with them, the functionals or basis sets would not do anything.
Hence, in our opinion, the algorithm design and method developments papers are equally worthy of getting cited

  1. Neese, F.
     An improvement of the resolution of the identity approximation for the formation of the Coulomb matrix
     J. Comp. Chem. 2003 24(14), 1740-1747
     doi.org/10.1002/jcc.10318
  2. Grimme, S.; Antony, J.; Ehrlich, S.; Krieg, H.
     A consistent and accurate ab initio parametrization of density functional dispersion correction (DFT-D) for the 94 elements H-Pu
     J. Chem. Phys. 2010 132 , 154104
     doi.org/10.1063/1.3382344
  3. Grimme, S.; Ehrlich, S.; Goerigk, L.
     Effect of the damping function in dispersion corrected density functional theory
     J. Comput. Chem. 2011 32(7), 1456-1465
     doi.org/10.1002/jcc.21759
  4. Bykov, D.; Petrenko, T.; Izsak, R.; Kossmann, S.; Becker, U.; Valeev, E.; Neese, F.
     Efficient implementation of the analytic second derivatives of Hartree-Fock and hybrid DFT energies: a detailed analysis of different approximations
     Molec. Phys. 2015 113 , 1961-1977
     doi.org/10.1080/00268976.2015.1025114
  5. Neese, F.
     The SHARK Integral Generation and Digestion System
     J. Comp. Chem. 2022 44(3), 381
     doi.org/10.1002/jcc.26942

List of suggested additional citations. These are papers that are important in the 'surrounding' of 
of this run, or papers that preceded the highly important papers. If you like your results we are grateful for a citation.

  1. Neese, F.
     The ORCA program system
     WIRES Comput. Molec. Sci. 2012 2(1), 73-78
     doi.org/10.1002/wcms.81
  2. Neese, F.
     Software update: the ORCA program system, version 4.0
     WIRES Comput. Molec. Sci. 2018 8(1), 1-6
     doi.org/10.1002/wcms.1327
  3. Neese, F.; Wennmohs, F.; Becker, U.; Riplinger, C.
     The ORCA quantum chemistry program package
     J. Chem. Phys. 2020 152(22), 224108
     doi.org/10.1063/5.0004608
  4. Neese, F.
     Software update: The ORCA program system—Version 5.0
     WIRES Comput. Molec. Sci. 2022 12(1), e1606
     doi.org/10.1002/wcms.1606

List of optional additional citations

  1. Neese, F.
     Approximate second-order SCF convergence for spin unrestricted wavefunctions
     Chem. Phys. Lett. 2000 325(1-3), 93-98
     doi.org/10.1016/s0009-2614(00)00662-x

Timings for individual modules:

Sum of individual times          ...      212.497 sec (=   3.542 min)
Startup calculation              ...       64.045 sec (=   1.067 min)  30.1 %
SCF iterations                   ...       70.461 sec (=   1.174 min)  33.2 %
Property integrals               ...       31.972 sec (=   0.533 min)  15.0 %
SCF Response                     ...        6.744 sec (=   0.112 min)   3.2 %
Property calculations            ...        5.619 sec (=   0.094 min)   2.6 %
SCF Gradient evaluation          ...       33.349 sec (=   0.556 min)  15.7 %
Geometry relaxation              ...        0.307 sec (=   0.005 min)   0.1 %
                             ****ORCA TERMINATED NORMALLY****
TOTAL RUN TIME: 0 days 0 hours 3 minutes 59 seconds 23 msec
