
     Program PWSCF v.7.3.1 starts on 30Apr2025 at 10:23:51 

     This program is part of the open-source Quantum ESPRESSO suite
     for quantum simulation of materials; please cite
         "P. Giannozzi et al., J. Phys.:Condens. Matter 21 395502 (2009);
         "P. Giannozzi et al., J. Phys.:Condens. Matter 29 465901 (2017);
         "P. Giannozzi et al., J. Chem. Phys. 152 154105 (2020);
          URL http://www.quantum-espresso.org", 
     in publications or presentations arising from this work. More details at
     http://www.quantum-espresso.org/quote

     Parallel version (MPI), running on   200 processors

     MPI processes distributed on     1 nodes
     1541142 MiB available memory on the printing compute node when the environment starts

     Waiting for input...
     Reading input from standard input

     Current dimensions of program PWSCF are:
     Max number of different atomic species (ntypx) = 10
     Max number of k-points (npk) =  40000
     Max angular momentum in pseudopotentials (lmaxx) =  4
     file H.pbe-kjpaw_psl.1.0.0.UPF: wavefunction(s)  1S renormalized
     file Zr.pbe-spn-kjpaw_psl.1.0.0.UPF: wavefunction(s)  4S 4P renormalized
     file C.pbe-n-kjpaw_psl.1.0.0.UPF: wavefunction(s)  2S 2P renormalized
     file O.pbe-n-kjpaw_psl.1.0.0.UPF: wavefunction(s)  2S 2P renormalized

     IMPORTANT: XC functional enforced from input :
     Exchange-correlation= PBE
                           (   1   4   3   4   0   0   0)
     Any further DFT definition will be discarded
     Please, verify this is what you really want


     gamma-point specific algorithms are used
     Found identity + (  0.0000 -0.5000 -0.5000) symmetry
     This is a supercell, fractional translations are disabled

     R & G space division:  proc/nbgrp/npool/nimage =     200
     WARNING: too many processors for an effective parallelization!
     wavefunctions fft division:  task group distribution
                                  #TG    x Z-proc =       8     25
     Subspace diagonalization in iterative solution of the eigenvalue problem:
     one sub-group per band group will be used
     custom distributed-memory algorithm (size of sub-group: 10* 10 procs)


     Parallelization info
     --------------------
     sticks:   dense  smooth     PW     G-vecs:    dense   smooth      PW
     Min         126      84     20                13366     7274     900
     Max         128      86     22                13392     7290     924
     Sum       25411   16915   4243              2675353  1456119  182015

     Using Pencil Decomposition


     Title: 
     UiO-66 Erster Versuch                                                      


     bravais-lattice index     =            2
     lattice parameter (alat)  =      39.2052  a.u.
     unit-cell volume          =   15065.0692 (a.u.)^3
     number of atoms/cell      =          440
     number of atomic types    =            4
     number of electrons       =      1920.00
     number of Kohn-Sham states=          960
     kinetic-energy cutoff     =      80.0000  Ry
     charge density cutoff     =     480.0000  Ry
     scf convergence threshold =      3.6E-07
     mixing beta               =       0.7000
     number of iterations used =            8  plain     mixing
     Exchange-correlation= PBE
                           (   1   4   3   4   0   0   0)

     celldm(1)=  39.205203  celldm(2)=   0.000000  celldm(3)=   0.000000
     celldm(4)=   0.000000  celldm(5)=   0.000000  celldm(6)=   0.000000

     crystal axes: (cart. coord. in units of alat)
               a(1) = (  -0.500000   0.000000   0.500000 )  
               a(2) = (   0.000000   0.500000   0.500000 )  
               a(3) = (  -0.500000   0.500000   0.000000 )  

     reciprocal axes: (cart. coord. in units 2 pi/alat)
               b(1) = ( -1.000000 -1.000000  1.000000 )  
               b(2) = (  1.000000  1.000000  1.000000 )  
               b(3) = ( -1.000000  1.000000 -1.000000 )  


     PseudoPot. # 1 for H  read from file:
     /home/mehlhorn/pseudos/UiO-66_pbe-spn-kjpaw/H.pbe-kjpaw_psl.1.0.0.UPF
     MD5 check sum: d81a744832360e4a8af0b0b5b123bc2a
     Pseudo is Projector augmented-wave, Zval =  1.0
     Generated using &quot;atomic&quot; code by A. Dal Corso  v.6.3MaX
     Shape of augmentation charge: PSQ
     Using radial grid of  929 points,  2 beta functions with: 
                l(1) =   0
                l(2) =   0
     Q(r) pseudized with 0 coefficients 


     PseudoPot. # 2 for Zr read from file:
     /home/mehlhorn/pseudos/UiO-66_pbe-spn-kjpaw/Zr.pbe-spn-kjpaw_psl.1.0.0.UPF
     MD5 check sum: 02112c41713a0468aff2bb39ef194e36
     Pseudo is Projector augmented-wave + core cor, Zval = 12.0
     Generated using &quot;atomic&quot; code by A. Dal Corso  v.6.2.2
     Shape of augmentation charge: PSQ
     Using radial grid of 1225 points,  6 beta functions with: 
                l(1) =   0
                l(2) =   0
                l(3) =   1
                l(4) =   1
                l(5) =   2
                l(6) =   2
     Q(r) pseudized with 0 coefficients 


     PseudoPot. # 3 for C  read from file:
     /home/mehlhorn/pseudos/UiO-66_pbe-spn-kjpaw/C.pbe-n-kjpaw_psl.1.0.0.UPF
     MD5 check sum: 5f16ad9a65e90284d1d834d4ab3b0f7d
     Pseudo is Projector augmented-wave + core cor, Zval =  4.0
     Generated using &quot;atomic&quot; code by A. Dal Corso  v.6.3
     Shape of augmentation charge: PSQ
     Using radial grid of 1073 points,  4 beta functions with: 
                l(1) =   0
                l(2) =   0
                l(3) =   1
                l(4) =   1
     Q(r) pseudized with 0 coefficients 


     PseudoPot. # 4 for O  read from file:
     /home/mehlhorn/pseudos/UiO-66_pbe-spn-kjpaw/O.pbe-n-kjpaw_psl.1.0.0.UPF
     MD5 check sum: e99d9cef9b487d1ca56f5b95ecd0fd7a
     Pseudo is Projector augmented-wave + core cor, Zval =  6.0
     Generated using &quot;atomic&quot; code by A. Dal Corso  v.6.3
     Shape of augmentation charge: PSQ
     Using radial grid of 1095 points,  4 beta functions with: 
                l(1) =   0
                l(2) =   0
                l(3) =   1
                l(4) =   1
     Q(r) pseudized with 0 coefficients 


     atomic species   valence    mass     pseudopotential
     H                 1.00     1.00750     H ( 1.00)
     Zr               12.00    91.22400     Zr( 1.00)
     C                 4.00    12.01060     C ( 1.00)
     O                 6.00    15.99900     O ( 1.00)

     12 Sym. Ops., with inversion, found



   Cartesian axes

     site n.     atom                  positions (alat units)
         1        Zr     tau(   1) = (  -0.0598750   0.0598750   0.0000000  )
         2        Zr     tau(   2) = (  -0.4401250   0.4401250   0.0000000  )
         3        Zr     tau(   3) = (  -0.0598750   0.0000000   0.0598750  )
         4        Zr     tau(   4) = (  -0.4401250   0.0000000   0.4401250  )
         5        Zr     tau(   5) = (   0.0000000   0.0598750   0.0598750  )
         6        Zr     tau(   6) = (   0.0000000   0.4401250   0.4401250  )
         7        Zr     tau(   7) = (  -0.3098750   0.5598750   0.2500000  )
         8        Zr     tau(   8) = (  -0.1901250   0.4401250   0.2500000  )
         9        Zr     tau(   9) = (  -0.3098750   0.5000000   0.3098750  )
        10        Zr     tau(  10) = (  -0.6901250   0.5000000   0.6901250  )
        11        Zr     tau(  11) = (  -0.2500000   0.5598750   0.3098750  )
        12        Zr     tau(  12) = (  -0.2500000   0.4401250   0.1901250  )
        13        Zr     tau(  13) = (  -0.5598750   0.3098750   0.2500000  )
        14        Zr     tau(  14) = (  -0.4401250   0.1901250   0.2500000  )
        15        Zr     tau(  15) = (  -0.5598750   0.2500000   0.3098750  )
        16        Zr     tau(  16) = (  -0.4401250   0.2500000   0.1901250  )
        17        Zr     tau(  17) = (  -0.5000000   0.3098750   0.3098750  )
        18        Zr     tau(  18) = (  -0.5000000   0.6901250   0.6901250  )
        19        Zr     tau(  19) = (  -0.3098750   0.3098750   0.5000000  )
        20        Zr     tau(  20) = (  -0.6901250   0.6901250   0.5000000  )
        21        Zr     tau(  21) = (  -0.3098750   0.2500000   0.5598750  )
        22        Zr     tau(  22) = (  -0.1901250   0.2500000   0.4401250  )
        23        Zr     tau(  23) = (  -0.2500000   0.3098750   0.5598750  )
        24        Zr     tau(  24) = (  -0.2500000   0.1901250   0.4401250  )
        25        O      tau(  25) = (  -0.5000000   0.5000000   0.9326000  )
        26        O      tau(  26) = (  -0.5000000   0.5000000   0.0674000  )
        27        O      tau(  27) = (  -0.0674000   0.0674000   0.0674000  )
        28        O      tau(  28) = (  -0.9326000   0.9326000   0.9326000  )
        29        O      tau(  29) = (  -0.5000000   0.9326000   0.5000000  )
        30        O      tau(  30) = (  -0.5000000   0.0674000   0.5000000  )
        31        O      tau(  31) = (  -0.9326000   0.5000000   0.5000000  )
        32        O      tau(  32) = (  -0.0674000   0.5000000   0.5000000  )
        33        O      tau(  33) = (  -0.7500000   0.5000000   0.6826000  )
        34        O      tau(  34) = (  -0.2500000   0.5000000   0.3174000  )
        35        O      tau(  35) = (  -0.3174000   0.5674000   0.3174000  )
        36        O      tau(  36) = (  -0.6826000   0.4326000   0.6826000  )
        37        O      tau(  37) = (  -0.2500000   0.4326000   0.2500000  )
        38        O      tau(  38) = (  -0.7500000   0.5674000   0.7500000  )
        39        O      tau(  39) = (  -0.6826000   0.5000000   0.7500000  )
        40        O      tau(  40) = (  -0.3174000   0.5000000   0.2500000  )
        41        O      tau(  41) = (  -0.5000000   0.7500000   0.6826000  )
        42        O      tau(  42) = (  -0.5000000   0.2500000   0.3174000  )
        43        O      tau(  43) = (  -0.5674000   0.3174000   0.3174000  )
        44        O      tau(  44) = (  -0.4326000   0.6826000   0.6826000  )
        45        O      tau(  45) = (  -0.5000000   0.6826000   0.7500000  )
        46        O      tau(  46) = (  -0.5000000   0.3174000   0.2500000  )
        47        O      tau(  47) = (  -0.4326000   0.2500000   0.2500000  )
        48        O      tau(  48) = (  -0.5674000   0.7500000   0.7500000  )
        49        O      tau(  49) = (  -0.2500000   0.2500000   0.4326000  )
        50        O      tau(  50) = (  -0.7500000   0.7500000   0.5674000  )
        51        O      tau(  51) = (  -0.3174000   0.3174000   0.5674000  )
        52        O      tau(  52) = (  -0.6826000   0.6826000   0.4326000  )
        53        O      tau(  53) = (  -0.7500000   0.6826000   0.5000000  )
        54        O      tau(  54) = (  -0.2500000   0.3174000   0.5000000  )
        55        O      tau(  55) = (  -0.6826000   0.7500000   0.5000000  )
        56        O      tau(  56) = (  -0.3174000   0.2500000   0.5000000  )
        57        O      tau(  57) = (  -0.1321000   0.0851000   0.0470000  )
        58        O      tau(  58) = (  -0.8679000   0.4149000   0.4530000  )
        59        O      tau(  59) = (  -0.5381000   0.0851000   0.4530000  )
        60        O      tau(  60) = (  -0.4619000   0.4149000   0.0470000  )
        61        O      tau(  61) = (  -0.0851000   0.0470000   0.1321000  )
        62        O      tau(  62) = (  -0.4149000   0.4530000   0.8679000  )
        63        O      tau(  63) = (  -0.0851000   0.4530000   0.5381000  )
        64        O      tau(  64) = (  -0.4149000   0.0470000   0.4619000  )
        65        O      tau(  65) = (  -0.0470000   0.1321000   0.0851000  )
        66        O      tau(  66) = (  -0.4530000   0.8679000   0.4149000  )
        67        O      tau(  67) = (  -0.4530000   0.5381000   0.0851000  )
        68        O      tau(  68) = (  -0.0470000   0.4619000   0.4149000  )
        69        O      tau(  69) = (  -0.4149000   0.4619000   0.0470000  )
        70        O      tau(  70) = (  -0.0851000   0.5381000   0.4530000  )
        71        O      tau(  71) = (  -0.4149000   0.8679000   0.4530000  )
        72        O      tau(  72) = (  -0.0851000   0.1321000   0.0470000  )
        73        O      tau(  73) = (  -0.0470000   0.0851000   0.1321000  )
        74        O      tau(  74) = (  -0.4530000   0.4149000   0.8679000  )
        75        O      tau(  75) = (  -0.4530000   0.0851000   0.5381000  )
        76        O      tau(  76) = (  -0.0470000   0.4149000   0.4619000  )
        77        O      tau(  77) = (  -0.5381000   0.4530000   0.0851000  )
        78        O      tau(  78) = (  -0.4619000   0.0470000   0.4149000  )
        79        O      tau(  79) = (  -0.1321000   0.0470000   0.0851000  )
        80        O      tau(  80) = (  -0.8679000   0.4530000   0.4149000  )
        81        O      tau(  81) = (  -0.3821000   0.5851000   0.2970000  )
        82        O      tau(  82) = (  -0.6179000   0.4149000   0.7030000  )
        83        O      tau(  83) = (  -0.7881000   0.5851000   0.7030000  )
        84        O      tau(  84) = (  -0.2119000   0.4149000   0.2970000  )
        85        O      tau(  85) = (  -0.3351000   0.5470000   0.3821000  )
        86        O      tau(  86) = (  -0.6649000   0.4530000   0.6179000  )
        87        O      tau(  87) = (  -0.3351000   0.4530000   0.2881000  )
        88        O      tau(  88) = (  -0.6649000   0.5470000   0.7119000  )
        89        O      tau(  89) = (  -0.2970000   0.6321000   0.3351000  )
        90        O      tau(  90) = (  -0.2030000   0.3679000   0.1649000  )
        91        O      tau(  91) = (  -0.2030000   0.5381000   0.3351000  )
        92        O      tau(  92) = (  -0.2970000   0.4619000   0.1649000  )
        93        O      tau(  93) = (  -0.1649000   0.4619000   0.2970000  )
        94        O      tau(  94) = (  -0.3351000   0.5381000   0.2030000  )
        95        O      tau(  95) = (  -0.1649000   0.3679000   0.2030000  )
        96        O      tau(  96) = (  -0.3351000   0.6321000   0.2970000  )
        97        O      tau(  97) = (  -0.2970000   0.5851000   0.3821000  )
        98        O      tau(  98) = (  -0.7030000   0.4149000   0.6179000  )
        99        O      tau(  99) = (  -0.7030000   0.5851000   0.7881000  )
       100        O      tau( 100) = (  -0.2970000   0.4149000   0.2119000  )
       101        O      tau( 101) = (  -0.2881000   0.4530000   0.3351000  )
       102        O      tau( 102) = (  -0.7119000   0.5470000   0.6649000  )
       103        O      tau( 103) = (  -0.3821000   0.5470000   0.3351000  )
       104        O      tau( 104) = (  -0.6179000   0.4530000   0.6649000  )
       105        O      tau( 105) = (  -0.6321000   0.3351000   0.2970000  )
       106        O      tau( 106) = (  -0.3679000   0.1649000   0.2030000  )
       107        O      tau( 107) = (  -0.5381000   0.3351000   0.2030000  )
       108        O      tau( 108) = (  -0.4619000   0.1649000   0.2970000  )
       109        O      tau( 109) = (  -0.5851000   0.2970000   0.3821000  )
       110        O      tau( 110) = (  -0.4149000   0.7030000   0.6179000  )
       111        O      tau( 111) = (  -0.5851000   0.7030000   0.7881000  )
       112        O      tau( 112) = (  -0.4149000   0.2970000   0.2119000  )
       113        O      tau( 113) = (  -0.5470000   0.3821000   0.3351000  )
       114        O      tau( 114) = (  -0.4530000   0.6179000   0.6649000  )
       115        O      tau( 115) = (  -0.4530000   0.2881000   0.3351000  )
       116        O      tau( 116) = (  -0.5470000   0.7119000   0.6649000  )
       117        O      tau( 117) = (  -0.4149000   0.2119000   0.2970000  )
       118        O      tau( 118) = (  -0.5851000   0.7881000   0.7030000  )
       119        O      tau( 119) = (  -0.4149000   0.6179000   0.7030000  )
       120        O      tau( 120) = (  -0.5851000   0.3821000   0.2970000  )
       121        O      tau( 121) = (  -0.5470000   0.3351000   0.3821000  )
       122        O      tau( 122) = (  -0.4530000   0.6649000   0.6179000  )
       123        O      tau( 123) = (  -0.4530000   0.3351000   0.2881000  )
       124        O      tau( 124) = (  -0.5470000   0.6649000   0.7119000  )
       125        O      tau( 125) = (  -0.5381000   0.2030000   0.3351000  )
       126        O      tau( 126) = (  -0.4619000   0.2970000   0.1649000  )
       127        O      tau( 127) = (  -0.6321000   0.2970000   0.3351000  )
       128        O      tau( 128) = (  -0.3679000   0.2030000   0.1649000  )
       129        O      tau( 129) = (  -0.3821000   0.3351000   0.5470000  )
       130        O      tau( 130) = (  -0.6179000   0.6649000   0.4530000  )
       131        O      tau( 131) = (  -0.2881000   0.3351000   0.4530000  )
       132        O      tau( 132) = (  -0.7119000   0.6649000   0.5470000  )
       133        O      tau( 133) = (  -0.3351000   0.2970000   0.6321000  )
       134        O      tau( 134) = (  -0.1649000   0.2030000   0.3679000  )
       135        O      tau( 135) = (  -0.3351000   0.2030000   0.5381000  )
       136        O      tau( 136) = (  -0.1649000   0.2970000   0.4619000  )
       137        O      tau( 137) = (  -0.2970000   0.3821000   0.5851000  )
       138        O      tau( 138) = (  -0.7030000   0.6179000   0.4149000  )
       139        O      tau( 139) = (  -0.7030000   0.7881000   0.5851000  )
       140        O      tau( 140) = (  -0.2970000   0.2119000   0.4149000  )
       141        O      tau( 141) = (  -0.6649000   0.7119000   0.5470000  )
       142        O      tau( 142) = (  -0.3351000   0.2881000   0.4530000  )
       143        O      tau( 143) = (  -0.6649000   0.6179000   0.4530000  )
       144        O      tau( 144) = (  -0.3351000   0.3821000   0.5470000  )
       145        O      tau( 145) = (  -0.2970000   0.3351000   0.6321000  )
       146        O      tau( 146) = (  -0.2030000   0.1649000   0.3679000  )
       147        O      tau( 147) = (  -0.2030000   0.3351000   0.5381000  )
       148        O      tau( 148) = (  -0.2970000   0.1649000   0.4619000  )
       149        O      tau( 149) = (  -0.7881000   0.7030000   0.5851000  )
       150        O      tau( 150) = (  -0.2119000   0.2970000   0.4149000  )
       151        O      tau( 151) = (  -0.3821000   0.2970000   0.5851000  )
       152        O      tau( 152) = (  -0.6179000   0.7030000   0.4149000  )
       153        C      tau( 153) = (  -0.2027900   0.1013950   0.1013950  )
       154        C      tau( 154) = (  -0.7972100   0.3986050   0.3986050  )
       155        C      tau( 155) = (  -0.5000000   0.1013950   0.3986050  )
       156        C      tau( 156) = (  -0.5000000   0.3986050   0.1013950  )
       157        C      tau( 157) = (  -0.1013950   0.1013950   0.2027900  )
       158        C      tau( 158) = (  -0.3986050   0.3986050   0.7972100  )
       159        C      tau( 159) = (  -0.1013950   0.3986050   0.5000000  )
       160        C      tau( 160) = (  -0.3986050   0.1013950   0.5000000  )
       161        C      tau( 161) = (  -0.1013950   0.2027900   0.1013950  )
       162        C      tau( 162) = (  -0.3986050   0.7972100   0.3986050  )
       163        C      tau( 163) = (  -0.3986050   0.5000000   0.1013950  )
       164        C      tau( 164) = (  -0.1013950   0.5000000   0.3986050  )
       165        C      tau( 165) = (  -0.4527900   0.6013950   0.3513950  )
       166        C      tau( 166) = (  -0.5472100   0.3986050   0.6486050  )
       167        C      tau( 167) = (  -0.7500000   0.6013950   0.6486050  )
       168        C      tau( 168) = (  -0.2500000   0.3986050   0.3513950  )
       169        C      tau( 169) = (  -0.3513950   0.6013950   0.4527900  )
       170        C      tau( 170) = (  -0.6486050   0.3986050   0.5472100  )
       171        C      tau( 171) = (  -0.3513950   0.3986050   0.2500000  )
       172        C      tau( 172) = (  -0.6486050   0.6013950   0.7500000  )
       173        C      tau( 173) = (  -0.3513950   0.7027900   0.3513950  )
       174        C      tau( 174) = (  -0.1486050   0.2972100   0.1486050  )
       175        C      tau( 175) = (  -0.1486050   0.5000000   0.3513950  )
       176        C      tau( 176) = (  -0.3513950   0.5000000   0.1486050  )
       177        C      tau( 177) = (  -0.7027900   0.3513950   0.3513950  )
       178        C      tau( 178) = (  -0.2972100   0.1486050   0.1486050  )
       179        C      tau( 179) = (  -0.5000000   0.3513950   0.1486050  )
       180        C      tau( 180) = (  -0.5000000   0.1486050   0.3513950  )
       181        C      tau( 181) = (  -0.6013950   0.3513950   0.4527900  )
       182        C      tau( 182) = (  -0.3986050   0.6486050   0.5472100  )
       183        C      tau( 183) = (  -0.6013950   0.6486050   0.7500000  )
       184        C      tau( 184) = (  -0.3986050   0.3513950   0.2500000  )
       185        C      tau( 185) = (  -0.6013950   0.4527900   0.3513950  )
       186        C      tau( 186) = (  -0.3986050   0.5472100   0.6486050  )
       187        C      tau( 187) = (  -0.3986050   0.2500000   0.3513950  )
       188        C      tau( 188) = (  -0.6013950   0.7500000   0.6486050  )
       189        C      tau( 189) = (  -0.4527900   0.3513950   0.6013950  )
       190        C      tau( 190) = (  -0.5472100   0.6486050   0.3986050  )
       191        C      tau( 191) = (  -0.2500000   0.3513950   0.3986050  )
       192        C      tau( 192) = (  -0.7500000   0.6486050   0.6013950  )
       193        C      tau( 193) = (  -0.3513950   0.3513950   0.7027900  )
       194        C      tau( 194) = (  -0.1486050   0.1486050   0.2972100  )
       195        C      tau( 195) = (  -0.3513950   0.1486050   0.5000000  )
       196        C      tau( 196) = (  -0.1486050   0.3513950   0.5000000  )
       197        C      tau( 197) = (  -0.3513950   0.4527900   0.6013950  )
       198        C      tau( 198) = (  -0.6486050   0.5472100   0.3986050  )
       199        C      tau( 199) = (  -0.6486050   0.7500000   0.6013950  )
       200        C      tau( 200) = (  -0.3513950   0.2500000   0.3986050  )
       201        C      tau( 201) = (  -0.2262300   0.0926700   0.1335600  )
       202        C      tau( 202) = (  -0.7737700   0.4073300   0.3664400  )
       203        C      tau( 203) = (  -0.4591100   0.0926700   0.3664400  )
       204        C      tau( 204) = (  -0.5408900   0.4073300   0.1335600  )
       205        C      tau( 205) = (  -0.0926700   0.1335600   0.2262300  )
       206        C      tau( 206) = (  -0.4073300   0.3664400   0.7737700  )
       207        C      tau( 207) = (  -0.0926700   0.3664400   0.4591100  )
       208        C      tau( 208) = (  -0.4073300   0.1335600   0.5408900  )
       209        C      tau( 209) = (  -0.1335600   0.2262300   0.0926700  )
       210        C      tau( 210) = (  -0.3664400   0.7737700   0.4073300  )
       211        C      tau( 211) = (  -0.3664400   0.4591100   0.0926700  )
       212        C      tau( 212) = (  -0.1335600   0.5408900   0.4073300  )
       213        C      tau( 213) = (  -0.4073300   0.5408900   0.1335600  )
       214        C      tau( 214) = (  -0.0926700   0.4591100   0.3664400  )
       215        C      tau( 215) = (  -0.4073300   0.7737700   0.3664400  )
       216        C      tau( 216) = (  -0.0926700   0.2262300   0.1335600  )
       217        C      tau( 217) = (  -0.1335600   0.0926700   0.2262300  )
       218        C      tau( 218) = (  -0.3664400   0.4073300   0.7737700  )
       219        C      tau( 219) = (  -0.3664400   0.0926700   0.4591100  )
       220        C      tau( 220) = (  -0.1335600   0.4073300   0.5408900  )
       221        C      tau( 221) = (  -0.4591100   0.3664400   0.0926700  )
       222        C      tau( 222) = (  -0.5408900   0.1335600   0.4073300  )
       223        C      tau( 223) = (  -0.2262300   0.1335600   0.0926700  )
       224        C      tau( 224) = (  -0.7737700   0.3664400   0.4073300  )
       225        C      tau( 225) = (  -0.4762300   0.5926700   0.3835600  )
       226        C      tau( 226) = (  -0.5237700   0.4073300   0.6164400  )
       227        C      tau( 227) = (  -0.7091100   0.5926700   0.6164400  )
       228        C      tau( 228) = (  -0.2908900   0.4073300   0.3835600  )
       229        C      tau( 229) = (  -0.3426700   0.6335600   0.4762300  )
       230        C      tau( 230) = (  -0.6573300   0.3664400   0.5237700  )
       231        C      tau( 231) = (  -0.3426700   0.3664400   0.2091100  )
       232        C      tau( 232) = (  -0.6573300   0.6335600   0.7908900  )
       233        C      tau( 233) = (  -0.3835600   0.7262300   0.3426700  )
       234        C      tau( 234) = (  -0.1164400   0.2737700   0.1573300  )
       235        C      tau( 235) = (  -0.1164400   0.4591100   0.3426700  )
       236        C      tau( 236) = (  -0.3835600   0.5408900   0.1573300  )
       237        C      tau( 237) = (  -0.1573300   0.5408900   0.3835600  )
       238        C      tau( 238) = (  -0.3426700   0.4591100   0.1164400  )
       239        C      tau( 239) = (  -0.1573300   0.2737700   0.1164400  )
       240        C      tau( 240) = (  -0.3426700   0.7262300   0.3835600  )
       241        C      tau( 241) = (  -0.3835600   0.5926700   0.4762300  )
       242        C      tau( 242) = (  -0.6164400   0.4073300   0.5237700  )
       243        C      tau( 243) = (  -0.6164400   0.5926700   0.7091100  )
       244        C      tau( 244) = (  -0.3835600   0.4073300   0.2908900  )
       245        C      tau( 245) = (  -0.2091100   0.3664400   0.3426700  )
       246        C      tau( 246) = (  -0.7908900   0.6335600   0.6573300  )
       247        C      tau( 247) = (  -0.4762300   0.6335600   0.3426700  )
       248        C      tau( 248) = (  -0.5237700   0.3664400   0.6573300  )
       249        C      tau( 249) = (  -0.7262300   0.3426700   0.3835600  )
       250        C      tau( 250) = (  -0.2737700   0.1573300   0.1164400  )
       251        C      tau( 251) = (  -0.4591100   0.3426700   0.1164400  )
       252        C      tau( 252) = (  -0.5408900   0.1573300   0.3835600  )
       253        C      tau( 253) = (  -0.5926700   0.3835600   0.4762300  )
       254        C      tau( 254) = (  -0.4073300   0.6164400   0.5237700  )
       255        C      tau( 255) = (  -0.5926700   0.6164400   0.7091100  )
       256        C      tau( 256) = (  -0.4073300   0.3835600   0.2908900  )
       257        C      tau( 257) = (  -0.6335600   0.4762300   0.3426700  )
       258        C      tau( 258) = (  -0.3664400   0.5237700   0.6573300  )
       259        C      tau( 259) = (  -0.3664400   0.2091100   0.3426700  )
       260        C      tau( 260) = (  -0.6335600   0.7908900   0.6573300  )
       261        C      tau( 261) = (  -0.4073300   0.2908900   0.3835600  )
       262        C      tau( 262) = (  -0.5926700   0.7091100   0.6164400  )
       263        C      tau( 263) = (  -0.4073300   0.5237700   0.6164400  )
       264        C      tau( 264) = (  -0.5926700   0.4762300   0.3835600  )
       265        C      tau( 265) = (  -0.6335600   0.3426700   0.4762300  )
       266        C      tau( 266) = (  -0.3664400   0.6573300   0.5237700  )
       267        C      tau( 267) = (  -0.3664400   0.3426700   0.2091100  )
       268        C      tau( 268) = (  -0.6335600   0.6573300   0.7908900  )
       269        C      tau( 269) = (  -0.4591100   0.1164400   0.3426700  )
       270        C      tau( 270) = (  -0.5408900   0.3835600   0.1573300  )
       271        C      tau( 271) = (  -0.7262300   0.3835600   0.3426700  )
       272        C      tau( 272) = (  -0.2737700   0.1164400   0.1573300  )
       273        C      tau( 273) = (  -0.4762300   0.3426700   0.6335600  )
       274        C      tau( 274) = (  -0.5237700   0.6573300   0.3664400  )
       275        C      tau( 275) = (  -0.2091100   0.3426700   0.3664400  )
       276        C      tau( 276) = (  -0.7908900   0.6573300   0.6335600  )
       277        C      tau( 277) = (  -0.3426700   0.3835600   0.7262300  )
       278        C      tau( 278) = (  -0.1573300   0.1164400   0.2737700  )
       279        C      tau( 279) = (  -0.3426700   0.1164400   0.4591100  )
       280        C      tau( 280) = (  -0.1573300   0.3835600   0.5408900  )
       281        C      tau( 281) = (  -0.3835600   0.4762300   0.5926700  )
       282        C      tau( 282) = (  -0.6164400   0.5237700   0.4073300  )
       283        C      tau( 283) = (  -0.6164400   0.7091100   0.5926700  )
       284        C      tau( 284) = (  -0.3835600   0.2908900   0.4073300  )
       285        C      tau( 285) = (  -0.6573300   0.7908900   0.6335600  )
       286        C      tau( 286) = (  -0.3426700   0.2091100   0.3664400  )
       287        C      tau( 287) = (  -0.6573300   0.5237700   0.3664400  )
       288        C      tau( 288) = (  -0.3426700   0.4762300   0.6335600  )
       289        C      tau( 289) = (  -0.3835600   0.3426700   0.7262300  )
       290        C      tau( 290) = (  -0.1164400   0.1573300   0.2737700  )
       291        C      tau( 291) = (  -0.1164400   0.3426700   0.4591100  )
       292        C      tau( 292) = (  -0.3835600   0.1573300   0.5408900  )
       293        C      tau( 293) = (  -0.7091100   0.6164400   0.5926700  )
       294        C      tau( 294) = (  -0.2908900   0.3835600   0.4073300  )
       295        C      tau( 295) = (  -0.4762300   0.3835600   0.5926700  )
       296        C      tau( 296) = (  -0.5237700   0.6164400   0.4073300  )
       297        C      tau( 297) = (  -0.1517900   0.0758950   0.0758950  )
       298        C      tau( 298) = (  -0.8482100   0.4241050   0.4241050  )
       299        C      tau( 299) = (  -0.5000000   0.0758950   0.4241050  )
       300        C      tau( 300) = (  -0.5000000   0.4241050   0.0758950  )
       301        C      tau( 301) = (  -0.0758950   0.0758950   0.1517900  )
       302        C      tau( 302) = (  -0.4241050   0.4241050   0.8482100  )
       303        C      tau( 303) = (  -0.0758950   0.4241050   0.5000000  )
       304        C      tau( 304) = (  -0.4241050   0.0758950   0.5000000  )
       305        C      tau( 305) = (  -0.0758950   0.1517900   0.0758950  )
       306        C      tau( 306) = (  -0.4241050   0.8482100   0.4241050  )
       307        C      tau( 307) = (  -0.4241050   0.5000000   0.0758950  )
       308        C      tau( 308) = (  -0.0758950   0.5000000   0.4241050  )
       309        C      tau( 309) = (  -0.4017900   0.5758950   0.3258950  )
       310        C      tau( 310) = (  -0.5982100   0.4241050   0.6741050  )
       311        C      tau( 311) = (  -0.7500000   0.5758950   0.6741050  )
       312        C      tau( 312) = (  -0.2500000   0.4241050   0.3258950  )
       313        C      tau( 313) = (  -0.3258950   0.5758950   0.4017900  )
       314        C      tau( 314) = (  -0.6741050   0.4241050   0.5982100  )
       315        C      tau( 315) = (  -0.3258950   0.4241050   0.2500000  )
       316        C      tau( 316) = (  -0.6741050   0.5758950   0.7500000  )
       317        C      tau( 317) = (  -0.3258950   0.6517900   0.3258950  )
       318        C      tau( 318) = (  -0.1741050   0.3482100   0.1741050  )
       319        C      tau( 319) = (  -0.1741050   0.5000000   0.3258950  )
       320        C      tau( 320) = (  -0.3258950   0.5000000   0.1741050  )
       321        C      tau( 321) = (  -0.6517900   0.3258950   0.3258950  )
       322        C      tau( 322) = (  -0.3482100   0.1741050   0.1741050  )
       323        C      tau( 323) = (  -0.5000000   0.3258950   0.1741050  )
       324        C      tau( 324) = (  -0.5000000   0.1741050   0.3258950  )
       325        C      tau( 325) = (  -0.5758950   0.3258950   0.4017900  )
       326        C      tau( 326) = (  -0.4241050   0.6741050   0.5982100  )
       327        C      tau( 327) = (  -0.5758950   0.6741050   0.7500000  )
       328        C      tau( 328) = (  -0.4241050   0.3258950   0.2500000  )
       329        C      tau( 329) = (  -0.5758950   0.4017900   0.3258950  )
       330        C      tau( 330) = (  -0.4241050   0.5982100   0.6741050  )
       331        C      tau( 331) = (  -0.4241050   0.2500000   0.3258950  )
       332        C      tau( 332) = (  -0.5758950   0.7500000   0.6741050  )
       333        C      tau( 333) = (  -0.4017900   0.3258950   0.5758950  )
       334        C      tau( 334) = (  -0.5982100   0.6741050   0.4241050  )
       335        C      tau( 335) = (  -0.2500000   0.3258950   0.4241050  )
       336        C      tau( 336) = (  -0.7500000   0.6741050   0.5758950  )
       337        C      tau( 337) = (  -0.3258950   0.3258950   0.6517900  )
       338        C      tau( 338) = (  -0.1741050   0.1741050   0.3482100  )
       339        C      tau( 339) = (  -0.3258950   0.1741050   0.5000000  )
       340        C      tau( 340) = (  -0.1741050   0.3258950   0.5000000  )
       341        C      tau( 341) = (  -0.3258950   0.4017900   0.5758950  )
       342        C      tau( 342) = (  -0.6741050   0.5982100   0.4241050  )
       343        C      tau( 343) = (  -0.6741050   0.7500000   0.5758950  )
       344        C      tau( 344) = (  -0.3258950   0.2500000   0.4241050  )
       345        H      tau( 345) = (  -0.2100000   0.0705500   0.1394500  )
       346        H      tau( 346) = (  -0.7900000   0.4294500   0.3605500  )
       347        H      tau( 347) = (  -0.4311000   0.0705500   0.3605500  )
       348        H      tau( 348) = (  -0.5689000   0.4294500   0.1394500  )
       349        H      tau( 349) = (  -0.0705500   0.1394500   0.2100000  )
       350        H      tau( 350) = (  -0.4294500   0.3605500   0.7900000  )
       351        H      tau( 351) = (  -0.0705500   0.3605500   0.4311000  )
       352        H      tau( 352) = (  -0.4294500   0.1394500   0.5689000  )
       353        H      tau( 353) = (  -0.1394500   0.2100000   0.0705500  )
       354        H      tau( 354) = (  -0.3605500   0.7900000   0.4294500  )
       355        H      tau( 355) = (  -0.3605500   0.4311000   0.0705500  )
       356        H      tau( 356) = (  -0.1394500   0.5689000   0.4294500  )
       357        H      tau( 357) = (  -0.4294500   0.5689000   0.1394500  )
       358        H      tau( 358) = (  -0.0705500   0.4311000   0.3605500  )
       359        H      tau( 359) = (  -0.4294500   0.7900000   0.3605500  )
       360        H      tau( 360) = (  -0.0705500   0.2100000   0.1394500  )
       361        H      tau( 361) = (  -0.1394500   0.0705500   0.2100000  )
       362        H      tau( 362) = (  -0.3605500   0.4294500   0.7900000  )
       363        H      tau( 363) = (  -0.3605500   0.0705500   0.4311000  )
       364        H      tau( 364) = (  -0.1394500   0.4294500   0.5689000  )
       365        H      tau( 365) = (  -0.4311000   0.3605500   0.0705500  )
       366        H      tau( 366) = (  -0.5689000   0.1394500   0.4294500  )
       367        H      tau( 367) = (  -0.2100000   0.1394500   0.0705500  )
       368        H      tau( 368) = (  -0.7900000   0.3605500   0.4294500  )
       369        H      tau( 369) = (  -0.4600000   0.5705500   0.3894500  )
       370        H      tau( 370) = (  -0.5400000   0.4294500   0.6105500  )
       371        H      tau( 371) = (  -0.6811000   0.5705500   0.6105500  )
       372        H      tau( 372) = (  -0.3189000   0.4294500   0.3894500  )
       373        H      tau( 373) = (  -0.3205500   0.6394500   0.4600000  )
       374        H      tau( 374) = (  -0.6794500   0.3605500   0.5400000  )
       375        H      tau( 375) = (  -0.3205500   0.3605500   0.1811000  )
       376        H      tau( 376) = (  -0.6794500   0.6394500   0.8189000  )
       377        H      tau( 377) = (  -0.3894500   0.7100000   0.3205500  )
       378        H      tau( 378) = (  -0.1105500   0.2900000   0.1794500  )
       379        H      tau( 379) = (  -0.1105500   0.4311000   0.3205500  )
       380        H      tau( 380) = (  -0.3894500   0.5689000   0.1794500  )
       381        H      tau( 381) = (  -0.1794500   0.5689000   0.3894500  )
       382        H      tau( 382) = (  -0.3205500   0.4311000   0.1105500  )
       383        H      tau( 383) = (  -0.1794500   0.2900000   0.1105500  )
       384        H      tau( 384) = (  -0.3205500   0.7100000   0.3894500  )
       385        H      tau( 385) = (  -0.3894500   0.5705500   0.4600000  )
       386        H      tau( 386) = (  -0.6105500   0.4294500   0.5400000  )
       387        H      tau( 387) = (  -0.6105500   0.5705500   0.6811000  )
       388        H      tau( 388) = (  -0.3894500   0.4294500   0.3189000  )
       389        H      tau( 389) = (  -0.1811000   0.3605500   0.3205500  )
       390        H      tau( 390) = (  -0.8189000   0.6394500   0.6794500  )
       391        H      tau( 391) = (  -0.4600000   0.6394500   0.3205500  )
       392        H      tau( 392) = (  -0.5400000   0.3605500   0.6794500  )
       393        H      tau( 393) = (  -0.7100000   0.3205500   0.3894500  )
       394        H      tau( 394) = (  -0.2900000   0.1794500   0.1105500  )
       395        H      tau( 395) = (  -0.4311000   0.3205500   0.1105500  )
       396        H      tau( 396) = (  -0.5689000   0.1794500   0.3894500  )
       397        H      tau( 397) = (  -0.5705500   0.3894500   0.4600000  )
       398        H      tau( 398) = (  -0.4294500   0.6105500   0.5400000  )
       399        H      tau( 399) = (  -0.5705500   0.6105500   0.6811000  )
       400        H      tau( 400) = (  -0.4294500   0.3894500   0.3189000  )
       401        H      tau( 401) = (  -0.6394500   0.4600000   0.3205500  )
       402        H      tau( 402) = (  -0.3605500   0.5400000   0.6794500  )
       403        H      tau( 403) = (  -0.3605500   0.1811000   0.3205500  )
       404        H      tau( 404) = (  -0.6394500   0.8189000   0.6794500  )
       405        H      tau( 405) = (  -0.4294500   0.3189000   0.3894500  )
       406        H      tau( 406) = (  -0.5705500   0.6811000   0.6105500  )
       407        H      tau( 407) = (  -0.4294500   0.5400000   0.6105500  )
       408        H      tau( 408) = (  -0.5705500   0.4600000   0.3894500  )
       409        H      tau( 409) = (  -0.6394500   0.3205500   0.4600000  )
       410        H      tau( 410) = (  -0.3605500   0.6794500   0.5400000  )
       411        H      tau( 411) = (  -0.3605500   0.3205500   0.1811000  )
       412        H      tau( 412) = (  -0.6394500   0.6794500   0.8189000  )
       413        H      tau( 413) = (  -0.4311000   0.1105500   0.3205500  )
       414        H      tau( 414) = (  -0.5689000   0.3894500   0.1794500  )
       415        H      tau( 415) = (  -0.7100000   0.3894500   0.3205500  )
       416        H      tau( 416) = (  -0.2900000   0.1105500   0.1794500  )
       417        H      tau( 417) = (  -0.4600000   0.3205500   0.6394500  )
       418        H      tau( 418) = (  -0.5400000   0.6794500   0.3605500  )
       419        H      tau( 419) = (  -0.1811000   0.3205500   0.3605500  )
       420        H      tau( 420) = (  -0.8189000   0.6794500   0.6394500  )
       421        H      tau( 421) = (  -0.3205500   0.3894500   0.7100000  )
       422        H      tau( 422) = (  -0.1794500   0.1105500   0.2900000  )
       423        H      tau( 423) = (  -0.3205500   0.1105500   0.4311000  )
       424        H      tau( 424) = (  -0.1794500   0.3894500   0.5689000  )
       425        H      tau( 425) = (  -0.3894500   0.4600000   0.5705500  )
       426        H      tau( 426) = (  -0.6105500   0.5400000   0.4294500  )
       427        H      tau( 427) = (  -0.6105500   0.6811000   0.5705500  )
       428        H      tau( 428) = (  -0.3894500   0.3189000   0.4294500  )
       429        H      tau( 429) = (  -0.6794500   0.8189000   0.6394500  )
       430        H      tau( 430) = (  -0.3205500   0.1811000   0.3605500  )
       431        H      tau( 431) = (  -0.6794500   0.5400000   0.3605500  )
       432        H      tau( 432) = (  -0.3205500   0.4600000   0.6394500  )
       433        H      tau( 433) = (  -0.3894500   0.3205500   0.7100000  )
       434        H      tau( 434) = (  -0.1105500   0.1794500   0.2900000  )
       435        H      tau( 435) = (  -0.1105500   0.3205500   0.4311000  )
       436        H      tau( 436) = (  -0.3894500   0.1794500   0.5689000  )
       437        H      tau( 437) = (  -0.6811000   0.6105500   0.5705500  )
       438        H      tau( 438) = (  -0.3189000   0.3894500   0.4294500  )
       439        H      tau( 439) = (  -0.4600000   0.3894500   0.5705500  )
       440        H      tau( 440) = (  -0.5400000   0.6105500   0.4294500  )

     number of k points=     1
                       cart. coord. in units 2pi/alat
        k(    1) = (   0.0000000   0.0000000   0.0000000), wk =   2.0000000

     Dense  grid:  1337677 G-vectors     FFT dimensions: ( 200, 200, 200)

     Smooth grid:   728060 G-vectors     FFT dimensions: ( 160, 160, 160)

     Estimated max dynamical RAM per process >     130.59 MB

     Estimated total dynamical RAM >      25.51 GB

     Check: negative core charge=   -0.000002

     Initial potential from superposition of free atoms

     starting charge    1919.9393, renormalised to    1920.0000
     Starting wfcs are 1688 randomized atomic wfcs
     Checking if some PAW data can be deallocated... 

     total cpu time spent up to now is       47.0 secs

     Self-consistent Calculation

     iteration #  1     ecut=    80.00 Ry     beta= 0.70
     Davidson diagonalization with overlap
     ethr =  1.00E-02,  avg # of iterations =  7.0

     total cpu time spent up to now is      195.3 secs

     total energy              =  -15349.18873749 Ry
     estimated scf accuracy    <     434.41968928 Ry

     iteration #  2     ecut=    80.00 Ry     beta= 0.70
     Davidson diagonalization with overlap
     ethr =  1.00E-02,  avg # of iterations = 14.0

     total cpu time spent up to now is      350.3 secs

     total energy              =  -15004.46092865 Ry
     estimated scf accuracy    <    1945.14445937 Ry

     iteration #  3     ecut=    80.00 Ry     beta= 0.70
     Davidson diagonalization with overlap
     ethr =  1.00E-02,  avg # of iterations = 16.0

     total cpu time spent up to now is      581.9 secs

     total energy              =  -15053.95950592 Ry
     estimated scf accuracy    <    8225.67938130 Ry

     iteration #  4     ecut=    80.00 Ry     beta= 0.70
     Davidson diagonalization with overlap
     ethr =  1.00E-02,  avg # of iterations = 13.0

     total cpu time spent up to now is      773.7 secs

     total energy              =  -15444.61251942 Ry
     estimated scf accuracy    <     491.13246772 Ry

     iteration #  5     ecut=    80.00 Ry     beta= 0.70
     Davidson diagonalization with overlap
     ethr =  1.00E-02,  avg # of iterations = 13.0

     total cpu time spent up to now is      864.1 secs

     total energy              =  -15466.62989043 Ry
     estimated scf accuracy    <     115.73849419 Ry

     iteration #  6     ecut=    80.00 Ry     beta= 0.70
     Davidson diagonalization with overlap
     ethr =  6.03E-03,  avg # of iterations = 14.0

     total cpu time spent up to now is      969.5 secs

     total energy              =  -15484.23908051 Ry
     estimated scf accuracy    <     160.20332706 Ry

     iteration #  7     ecut=    80.00 Ry     beta= 0.70
     Davidson diagonalization with overlap
     ethr =  6.03E-03,  avg # of iterations =  2.0

     total cpu time spent up to now is     1033.3 secs

     total energy              =  -15475.16631539 Ry
     estimated scf accuracy    <     103.69200464 Ry

     iteration #  8     ecut=    80.00 Ry     beta= 0.70
     Davidson diagonalization with overlap
     ethr =  5.40E-03,  avg # of iterations = 13.0

     total cpu time spent up to now is     1136.7 secs

     total energy              =  -15495.24865388 Ry
     estimated scf accuracy    <     243.97508139 Ry

     iteration #  9     ecut=    80.00 Ry     beta= 0.70
     Davidson diagonalization with overlap
     ethr =  5.40E-03,  avg # of iterations =  1.0

     total cpu time spent up to now is     1194.8 secs

     total energy              =  -15477.65862287 Ry
     estimated scf accuracy    <     220.75506409 Ry

     iteration # 10     ecut=    80.00 Ry     beta= 0.70
     Davidson diagonalization with overlap
     ethr =  5.40E-03,  avg # of iterations =  5.0

     total cpu time spent up to now is     1260.8 secs

     total energy              =  -15471.51532838 Ry
     estimated scf accuracy    <     131.71367942 Ry

     iteration # 11     ecut=    80.00 Ry     beta= 0.70
     Davidson diagonalization with overlap
     ethr =  5.40E-03,  avg # of iterations = 18.0

     total cpu time spent up to now is     1368.3 secs

     total energy              =  -15511.04164315 Ry
     estimated scf accuracy    <     158.61224661 Ry

     iteration # 12     ecut=    80.00 Ry     beta= 0.70
     Davidson diagonalization with overlap
     ethr =  5.40E-03,  avg # of iterations =  2.0

     total cpu time spent up to now is     1431.4 secs

     total energy              =  -15496.97135852 Ry
     estimated scf accuracy    <     218.10652019 Ry

     iteration # 13     ecut=    80.00 Ry     beta= 0.70
     Davidson diagonalization with overlap
     ethr =  5.40E-03,  avg # of iterations =  2.0

     total cpu time spent up to now is     1494.5 secs

     total energy              =  -15494.99620005 Ry
     estimated scf accuracy    <     182.71378556 Ry

     iteration # 14     ecut=    80.00 Ry     beta= 0.70
     Davidson diagonalization with overlap
     ethr =  5.40E-03,  avg # of iterations =  1.0

     total cpu time spent up to now is     1552.9 secs

     total energy              =  -15499.67321932 Ry
     estimated scf accuracy    <     169.30666516 Ry

     iteration # 15     ecut=    80.00 Ry     beta= 0.70
     Davidson diagonalization with overlap
     ethr =  5.40E-03,  avg # of iterations =  2.0

     total cpu time spent up to now is     1614.7 secs

     total energy              =  -15497.32688620 Ry
     estimated scf accuracy    <     177.40641137 Ry

     iteration # 16     ecut=    80.00 Ry     beta= 0.70
     Davidson diagonalization with overlap
     ethr =  5.40E-03,  avg # of iterations =  1.0

     total cpu time spent up to now is     1673.0 secs

     total energy              =  -15502.61937107 Ry
     estimated scf accuracy    <     167.39978349 Ry

     iteration # 17     ecut=    80.00 Ry     beta= 0.70
     Davidson diagonalization with overlap
     ethr =  5.40E-03,  avg # of iterations =  2.0

     total cpu time spent up to now is     1734.7 secs

     total energy              =  -15503.34767358 Ry
     estimated scf accuracy    <     185.89778586 Ry

     iteration # 18     ecut=    80.00 Ry     beta= 0.70
     Davidson diagonalization with overlap
     ethr =  5.40E-03,  avg # of iterations =  1.0

     total cpu time spent up to now is     1793.0 secs

     total energy              =  -15499.91599591 Ry
     estimated scf accuracy    <     193.23975511 Ry

     iteration # 19     ecut=    80.00 Ry     beta= 0.70
     Davidson diagonalization with overlap
     ethr =  5.40E-03,  avg # of iterations =  1.0

     negative rho (up, down):  6.490E-04 0.000E+00

     total cpu time spent up to now is     1851.2 secs

     total energy              =  -15387.66340155 Ry
     estimated scf accuracy    <     184.89435396 Ry

     iteration # 20     ecut=    80.00 Ry     beta= 0.70
     Davidson diagonalization with overlap
     ethr =  5.40E-03,  avg # of iterations = 13.0

     negative rho (up, down):  3.766E-04 0.000E+00

     total cpu time spent up to now is     2120.5 secs

     total energy              =  -15147.08345572 Ry
     estimated scf accuracy    <   12962.46201659 Ry

     iteration # 21     ecut=    80.00 Ry     beta= 0.70
     Davidson diagonalization with overlap
     ethr =  5.40E-03,  avg # of iterations = 15.0

     total cpu time spent up to now is     2325.4 secs

     total energy              =  -15420.50107319 Ry
     estimated scf accuracy    <    1529.24061346 Ry

     iteration # 22     ecut=    80.00 Ry     beta= 0.70
     Davidson diagonalization with overlap
     ethr =  5.40E-03,  avg # of iterations = 13.0

     total cpu time spent up to now is     2461.4 secs

     total energy              =  -15481.68435455 Ry
     estimated scf accuracy    <     188.27645422 Ry

     iteration # 23     ecut=    80.00 Ry     beta= 0.70
     Davidson diagonalization with overlap
     ethr =  5.40E-03,  avg # of iterations =  2.0

     total cpu time spent up to now is     2525.0 secs

     total energy              =  -15474.46377589 Ry
     estimated scf accuracy    <     130.14580088 Ry

     iteration # 24     ecut=    80.00 Ry     beta= 0.70
     Davidson diagonalization with overlap
     ethr =  5.40E-03,  avg # of iterations = 13.0

     total cpu time spent up to now is     2619.0 secs

     total energy              =  -15485.77086514 Ry
     estimated scf accuracy    <     133.92518797 Ry

     iteration # 25     ecut=    80.00 Ry     beta= 0.70
     Davidson diagonalization with overlap
     ethr =  5.40E-03,  avg # of iterations =  2.0

     total cpu time spent up to now is     2681.9 secs

     total energy              =  -15482.72398492 Ry
     estimated scf accuracy    <     102.02549436 Ry

     iteration # 26     ecut=    80.00 Ry     beta= 0.70
     Davidson diagonalization with overlap
     ethr =  5.31E-03,  avg # of iterations =  2.0

     total cpu time spent up to now is     2744.0 secs

     total energy              =  -15479.17081777 Ry
     estimated scf accuracy    <      79.89649366 Ry

     iteration # 27     ecut=    80.00 Ry     beta= 0.70
     Davidson diagonalization with overlap
     ethr =  4.16E-03,  avg # of iterations =  2.0

     total cpu time spent up to now is     2808.2 secs

     total energy              =  -15478.36003107 Ry
     estimated scf accuracy    <      47.88323639 Ry

     iteration # 28     ecut=    80.00 Ry     beta= 0.70
     Davidson diagonalization with overlap
     ethr =  2.49E-03,  avg # of iterations = 17.0

     total cpu time spent up to now is     2915.0 secs

     total energy              =  -15507.97607377 Ry
     estimated scf accuracy    <     138.76419694 Ry

     iteration # 29     ecut=    80.00 Ry     beta= 0.70
     Davidson diagonalization with overlap
     ethr =  2.49E-03,  avg # of iterations =  5.0

     total cpu time spent up to now is     2981.2 secs

     total energy              =  -15510.23523512 Ry
     estimated scf accuracy    <     195.51198736 Ry

     iteration # 30     ecut=    80.00 Ry     beta= 0.70
     Davidson diagonalization with overlap
     ethr =  2.49E-03,  avg # of iterations =  2.0

     total cpu time spent up to now is     3043.9 secs

     total energy              =  -15507.77069586 Ry
     estimated scf accuracy    <     213.26513175 Ry

     iteration # 31     ecut=    80.00 Ry     beta= 0.70
     Davidson diagonalization with overlap
     ethr =  2.49E-03,  avg # of iterations =  2.0

     total cpu time spent up to now is     3106.2 secs

     total energy              =  -15504.59725892 Ry
     estimated scf accuracy    <     213.52516294 Ry

     iteration # 32     ecut=    80.00 Ry     beta= 0.70
     Davidson diagonalization with overlap
     ethr =  2.49E-03,  avg # of iterations =  2.0

     total cpu time spent up to now is     3168.3 secs

     total energy              =  -15498.61612901 Ry
     estimated scf accuracy    <     206.87317843 Ry

     iteration # 33     ecut=    80.00 Ry     beta= 0.70
     Davidson diagonalization with overlap
     ethr =  2.49E-03,  avg # of iterations =  2.0

     total cpu time spent up to now is     3230.6 secs

     total energy              =  -15495.69454819 Ry
     estimated scf accuracy    <     183.66045010 Ry

     iteration # 34     ecut=    80.00 Ry     beta= 0.70
     Davidson diagonalization with overlap
     ethr =  2.49E-03,  avg # of iterations =  1.0

     total cpu time spent up to now is     3288.9 secs

     total energy              =  -15497.13553980 Ry
     estimated scf accuracy    <     168.12435413 Ry

     iteration # 35     ecut=    80.00 Ry     beta= 0.70
     Davidson diagonalization with overlap
     ethr =  2.49E-03,  avg # of iterations =  1.0

     total cpu time spent up to now is     3347.2 secs

     total energy              =  -15496.20815274 Ry
     estimated scf accuracy    <     166.30518800 Ry

     iteration # 36     ecut=    80.00 Ry     beta= 0.70
     Davidson diagonalization with overlap
     ethr =  2.49E-03,  avg # of iterations =  1.0

     negative rho (up, down):  2.352E-03 0.000E+00

     total cpu time spent up to now is     3405.3 secs

     total energy              =  -15457.23595227 Ry
     estimated scf accuracy    <     159.91481311 Ry

     iteration # 37     ecut=    80.00 Ry     beta= 0.70
     Davidson diagonalization with overlap
     ethr =  2.49E-03,  avg # of iterations = 21.0

     total cpu time spent up to now is     3637.2 secs

     total energy              =  -15531.23604758 Ry
     estimated scf accuracy    <    1312.08221389 Ry

     iteration # 38     ecut=    80.00 Ry     beta= 0.70
     Davidson diagonalization with overlap
     ethr =  2.49E-03,  avg # of iterations = 16.0

     total cpu time spent up to now is     3743.5 secs

     total energy              =  -15515.69726480 Ry
     estimated scf accuracy    <    1096.75594611 Ry

     iteration # 39     ecut=    80.00 Ry     beta= 0.70
     Davidson diagonalization with overlap
     ethr =  2.49E-03,  avg # of iterations =  2.0

     total cpu time spent up to now is     3807.0 secs

     total energy              =  -15496.79754109 Ry
     estimated scf accuracy    <     972.39537241 Ry

     iteration # 40     ecut=    80.00 Ry     beta= 0.70
     Davidson diagonalization with overlap
     ethr =  2.49E-03,  avg # of iterations = 22.0

     total cpu time spent up to now is     3954.2 secs

     total energy              =  -15498.80615221 Ry
     estimated scf accuracy    <     449.34367077 Ry

     iteration # 41     ecut=    80.00 Ry     beta= 0.70
     Davidson diagonalization with overlap
     ethr =  2.49E-03,  avg # of iterations =  2.0

     total cpu time spent up to now is     4017.1 secs

     total energy              =  -15472.19325324 Ry
     estimated scf accuracy    <     409.17919407 Ry

     iteration # 42     ecut=    80.00 Ry     beta= 0.70
     Davidson diagonalization with overlap
     ethr =  2.49E-03,  avg # of iterations = 15.0

     total cpu time spent up to now is     4124.1 secs

     total energy              =  -15487.80496252 Ry
     estimated scf accuracy    <      47.04663099 Ry

     iteration # 43     ecut=    80.00 Ry     beta= 0.70
     Davidson diagonalization with overlap
     ethr =  2.45E-03,  avg # of iterations =  2.0

     total cpu time spent up to now is     4186.1 secs

     total energy              =  -15486.42881492 Ry
     estimated scf accuracy    <      34.43469927 Ry

     iteration # 44     ecut=    80.00 Ry     beta= 0.70
     Davidson diagonalization with overlap
     ethr =  1.79E-03,  avg # of iterations =  2.0

     total cpu time spent up to now is     4249.4 secs

     total energy              =  -15485.53917588 Ry
     estimated scf accuracy    <      22.22270302 Ry

     iteration # 45     ecut=    80.00 Ry     beta= 0.70
     Davidson diagonalization with overlap
     c_bands:  2 eigenvalues not converged
     ethr =  1.16E-03,  avg # of iterations = 20.0

     total cpu time spent up to now is     4359.5 secs

     total energy              =  -15502.12949743 Ry
     estimated scf accuracy    <      71.14890510 Ry

     iteration # 46     ecut=    80.00 Ry     beta= 0.70
     Davidson diagonalization with overlap
     ethr =  1.16E-03,  avg # of iterations = 12.0

     total cpu time spent up to now is     4467.0 secs

     total energy              =  -15500.25662939 Ry
     estimated scf accuracy    <     426.63594602 Ry

     iteration # 47     ecut=    80.00 Ry     beta= 0.70
     Davidson diagonalization with overlap
     ethr =  1.16E-03,  avg # of iterations =  2.0

     total cpu time spent up to now is     4534.2 secs

     total energy              =  -15484.98212455 Ry
     estimated scf accuracy    <     379.57414132 Ry

     iteration # 48     ecut=    80.00 Ry     beta= 0.70
     Davidson diagonalization with overlap
     ethr =  1.16E-03,  avg # of iterations = 13.0

     total cpu time spent up to now is     4645.4 secs

     total energy              =  -15491.51161452 Ry
     estimated scf accuracy    <     137.07894683 Ry

     iteration # 49     ecut=    80.00 Ry     beta= 0.70
     Davidson diagonalization with overlap
     c_bands:  3 eigenvalues not converged
     ethr =  1.16E-03,  avg # of iterations = 20.0

     total cpu time spent up to now is     4725.7 secs

     total energy              =  -15490.94647474 Ry
     estimated scf accuracy    <      99.10609173 Ry

     iteration # 50     ecut=    80.00 Ry     beta= 0.70
     Davidson diagonalization with overlap
     ethr =  1.16E-03,  avg # of iterations =  2.0

     total cpu time spent up to now is     4792.2 secs

     total energy              =  -15489.87445233 Ry
     estimated scf accuracy    <      90.14863027 Ry

     iteration # 51     ecut=    80.00 Ry     beta= 0.70
     Davidson diagonalization with overlap
     ethr =  1.16E-03,  avg # of iterations =  2.0

     total cpu time spent up to now is     4858.0 secs

     total energy              =  -15489.16919443 Ry
     estimated scf accuracy    <      83.69474059 Ry

     iteration # 52     ecut=    80.00 Ry     beta= 0.70
     Davidson diagonalization with overlap
     ethr =  1.16E-03,  avg # of iterations =  2.0

     total cpu time spent up to now is     4923.3 secs

     total energy              =  -15487.09798934 Ry
     estimated scf accuracy    <      78.52683940 Ry

     iteration # 53     ecut=    80.00 Ry     beta= 0.70
     Davidson diagonalization with overlap
     ethr =  1.16E-03,  avg # of iterations = 22.0

     negative rho (up, down):  3.631E-01 0.000E+00

     total cpu time spent up to now is     5082.5 secs

     total energy              =  -15513.68335729 Ry
     estimated scf accuracy    <      78.72580086 Ry

     iteration # 54     ecut=    80.00 Ry     beta= 0.70
     Davidson diagonalization with overlap
     ethr =  1.16E-03,  avg # of iterations = 21.0

     negative rho (up, down):  8.824E-03 0.000E+00

     total cpu time spent up to now is     5389.5 secs

     total energy              =  -15389.48938400 Ry
     estimated scf accuracy    <    3505.26314910 Ry

     iteration # 55     ecut=    80.00 Ry     beta= 0.70
     Davidson diagonalization with overlap
     ethr =  1.16E-03,  avg # of iterations = 26.0

     negative rho (up, down):  2.849E-04 0.000E+00

     total cpu time spent up to now is     5686.0 secs

     total energy              =  -15479.03626336 Ry
     estimated scf accuracy    <     505.41754916 Ry

     iteration # 56     ecut=    80.00 Ry     beta= 0.70
     Davidson diagonalization with overlap
     ethr =  1.16E-03,  avg # of iterations = 17.0

     total cpu time spent up to now is     5825.1 secs

     total energy              =  -15463.93082200 Ry
     estimated scf accuracy    <     198.76570398 Ry

     iteration # 57     ecut=    80.00 Ry     beta= 0.70
     Davidson diagonalization with overlap
     ethr =  1.16E-03,  avg # of iterations = 22.0

     total cpu time spent up to now is     6144.1 secs

     total energy              =  -15365.73710939 Ry
     estimated scf accuracy    <    3067.95182436 Ry

     iteration # 58     ecut=    80.00 Ry     beta= 0.70
     Davidson diagonalization with overlap
     ethr =  1.16E-03,  avg # of iterations = 25.0

     total cpu time spent up to now is     6434.3 secs

     total energy              =  -15481.04780495 Ry
     estimated scf accuracy    <     139.16087830 Ry

     iteration # 59     ecut=    80.00 Ry     beta= 0.70
     Davidson diagonalization with overlap
     ethr =  1.16E-03,  avg # of iterations = 14.0

     total cpu time spent up to now is     6544.3 secs

     total energy              =  -15489.07673409 Ry
     estimated scf accuracy    <      41.48479724 Ry

     iteration # 60     ecut=    80.00 Ry     beta= 0.70
     Davidson diagonalization with overlap
     ethr =  1.16E-03,  avg # of iterations =  2.0

     total cpu time spent up to now is     6610.9 secs

     total energy              =  -15488.75528997 Ry
     estimated scf accuracy    <      29.09564864 Ry

     iteration # 61     ecut=    80.00 Ry     beta= 0.70
     Davidson diagonalization with overlap
     ethr =  1.16E-03,  avg # of iterations =  2.0

     negative rho (up, down):  8.286E-02 0.000E+00

     total cpu time spent up to now is     6675.3 secs

     total energy              =  -15474.86878332 Ry
     estimated scf accuracy    <      24.54414637 Ry

     iteration # 62     ecut=    80.00 Ry     beta= 0.70
     Davidson diagonalization with overlap
     ethr =  1.16E-03,  avg # of iterations = 18.0

     total cpu time spent up to now is     6887.1 secs

     total energy              =  -15436.69128357 Ry
     estimated scf accuracy    <    2032.31130176 Ry

     iteration # 63     ecut=    80.00 Ry     beta= 0.70
     Davidson diagonalization with overlap
     ethr =  1.16E-03,  avg # of iterations = 20.0

     total cpu time spent up to now is     7064.3 secs

     total energy              =  -15483.36425092 Ry
     estimated scf accuracy    <     278.77700851 Ry

     iteration # 64     ecut=    80.00 Ry     beta= 0.70
     Davidson diagonalization with overlap
     ethr =  1.16E-03,  avg # of iterations = 17.0

     total cpu time spent up to now is     7207.0 secs

     total energy              =  -15475.05776383 Ry
     estimated scf accuracy    <     528.61266013 Ry

     iteration # 65     ecut=    80.00 Ry     beta= 0.70
     Davidson diagonalization with overlap
     ethr =  1.16E-03,  avg # of iterations = 18.0

     total cpu time spent up to now is     7347.7 secs

     total energy              =  -15483.94164637 Ry
     estimated scf accuracy    <     129.88018194 Ry

     iteration # 66     ecut=    80.00 Ry     beta= 0.70
     Davidson diagonalization with overlap
     ethr =  1.16E-03,  avg # of iterations = 12.0

     total cpu time spent up to now is     7457.2 secs

     total energy              =  -15484.97185490 Ry
     estimated scf accuracy    <     125.75202666 Ry

     iteration # 67     ecut=    80.00 Ry     beta= 0.70
     Davidson diagonalization with overlap
     ethr =  1.16E-03,  avg # of iterations = 22.0

     total cpu time spent up to now is     7621.2 secs

     total energy              =  -15488.95190789 Ry
     estimated scf accuracy    <      30.47871994 Ry

     iteration # 68     ecut=    80.00 Ry     beta= 0.70
     Davidson diagonalization with overlap
     ethr =  1.16E-03,  avg # of iterations =  2.0

     total cpu time spent up to now is     7687.2 secs

     total energy              =  -15488.29377703 Ry
     estimated scf accuracy    <      18.37602157 Ry

     iteration # 69     ecut=    80.00 Ry     beta= 0.70
     Davidson diagonalization with overlap
     ethr =  9.57E-04,  avg # of iterations =  2.0

     total cpu time spent up to now is     7752.0 secs

     total energy              =  -15487.11247849 Ry
     estimated scf accuracy    <      13.64945258 Ry

     iteration # 70     ecut=    80.00 Ry     beta= 0.70
     Davidson diagonalization with overlap
     ethr =  7.11E-04,  avg # of iterations = 18.0

     total cpu time spent up to now is     7864.0 secs

     total energy              =  -15493.40532061 Ry
     estimated scf accuracy    <      76.06432873 Ry

     iteration # 71     ecut=    80.00 Ry     beta= 0.70
     Davidson diagonalization with overlap
     ethr =  7.11E-04,  avg # of iterations = 13.0

     total cpu time spent up to now is     7973.3 secs

     total energy              =  -15489.94524534 Ry
     estimated scf accuracy    <     189.84846061 Ry

     iteration # 72     ecut=    80.00 Ry     beta= 0.70
     Davidson diagonalization with overlap
     ethr =  7.11E-04,  avg # of iterations = 22.0

     total cpu time spent up to now is     8130.4 secs

     total energy              =  -15491.00787024 Ry
     estimated scf accuracy    <     103.03113794 Ry

     iteration # 73     ecut=    80.00 Ry     beta= 0.70
     Davidson diagonalization with overlap
     ethr =  7.11E-04,  avg # of iterations =  2.0

     total cpu time spent up to now is     8196.9 secs

     total energy              =  -15487.86472095 Ry
     estimated scf accuracy    <      90.43289124 Ry

     iteration # 74     ecut=    80.00 Ry     beta= 0.70
     Davidson diagonalization with overlap
     ethr =  7.11E-04,  avg # of iterations =  2.0

     total cpu time spent up to now is     8263.9 secs

     total energy              =  -15484.04719049 Ry
     estimated scf accuracy    <      75.05807814 Ry

     iteration # 75     ecut=    80.00 Ry     beta= 0.70
     Davidson diagonalization with overlap
     ethr =  7.11E-04,  avg # of iterations = 16.0

     total cpu time spent up to now is     8373.4 secs

     total energy              =  -15488.99909082 Ry
     estimated scf accuracy    <      23.84342446 Ry

     iteration # 76     ecut=    80.00 Ry     beta= 0.70
     Davidson diagonalization with overlap
     ethr =  7.11E-04,  avg # of iterations =  6.0

     total cpu time spent up to now is     8442.8 secs

     total energy              =  -15488.94593266 Ry
     estimated scf accuracy    <      14.55675351 Ry

     iteration # 77     ecut=    80.00 Ry     beta= 0.70
     Davidson diagonalization with overlap
     ethr =  7.11E-04,  avg # of iterations =  2.0

     total cpu time spent up to now is     8507.9 secs

     total energy              =  -15488.31101064 Ry
     estimated scf accuracy    <      11.90135010 Ry

     iteration # 78     ecut=    80.00 Ry     beta= 0.70
     Davidson diagonalization with overlap
     ethr =  6.20E-04,  avg # of iterations =  2.0

     total cpu time spent up to now is     8574.6 secs

     total energy              =  -15485.60696686 Ry
     estimated scf accuracy    <       7.41473806 Ry

     iteration # 79     ecut=    80.00 Ry     beta= 0.70
     Davidson diagonalization with overlap
     ethr =  3.86E-04,  avg # of iterations = 22.0

     total cpu time spent up to now is     8786.1 secs

     total energy              =  -15504.36512793 Ry
     estimated scf accuracy    <     307.02865343 Ry

     iteration # 80     ecut=    80.00 Ry     beta= 0.70
     Davidson diagonalization with overlap
     ethr =  3.86E-04,  avg # of iterations =  2.0

     total cpu time spent up to now is     8851.0 secs

     total energy              =  -15503.64052269 Ry
     estimated scf accuracy    <     302.19689795 Ry

     iteration # 81     ecut=    80.00 Ry     beta= 0.70
     Davidson diagonalization with overlap
     ethr =  3.86E-04,  avg # of iterations =  2.0

     total cpu time spent up to now is     8916.1 secs

     total energy              =  -15490.17557500 Ry
     estimated scf accuracy    <     298.23013745 Ry

     iteration # 82     ecut=    80.00 Ry     beta= 0.70
     Davidson diagonalization with overlap
     ethr =  3.86E-04,  avg # of iterations = 14.0

     total cpu time spent up to now is     9022.6 secs

     total energy              =  -15493.68264985 Ry
     estimated scf accuracy    <     112.65574806 Ry

     iteration # 83     ecut=    80.00 Ry     beta= 0.70
     Davidson diagonalization with overlap
     ethr =  3.86E-04,  avg # of iterations =  2.0

     total cpu time spent up to now is     9085.1 secs

     total energy              =  -15496.12170111 Ry
     estimated scf accuracy    <     108.98483984 Ry

     iteration # 84     ecut=    80.00 Ry     beta= 0.70
     Davidson diagonalization with overlap
     ethr =  3.86E-04,  avg # of iterations = 24.0

     total cpu time spent up to now is     9259.3 secs

     total energy              =  -15487.43388451 Ry
     estimated scf accuracy    <     219.74703943 Ry

     iteration # 85     ecut=    80.00 Ry     beta= 0.70
     Davidson diagonalization with overlap
     ethr =  3.86E-04,  avg # of iterations = 22.0

     total cpu time spent up to now is     9439.5 secs

     total energy              =  -15492.22723223 Ry
     estimated scf accuracy    <     112.18589779 Ry

     iteration # 86     ecut=    80.00 Ry     beta= 0.70
     Davidson diagonalization with overlap
     c_bands:  2 eigenvalues not converged
     ethr =  3.86E-04,  avg # of iterations = 20.0

     total cpu time spent up to now is     9514.6 secs

     total energy              =  -15489.71862663 Ry
     estimated scf accuracy    <      97.94446838 Ry

     iteration # 87     ecut=    80.00 Ry     beta= 0.70
     Davidson diagonalization with overlap
     c_bands:  2 eigenvalues not converged
     ethr =  3.86E-04,  avg # of iterations = 20.0

     negative rho (up, down):  1.314E-02 0.000E+00

     total cpu time spent up to now is     9623.3 secs

     total energy              =  -15502.97417991 Ry
     estimated scf accuracy    <      60.89989092 Ry

     iteration # 88     ecut=    80.00 Ry     beta= 0.70
     Davidson diagonalization with overlap
     ethr =  3.86E-04,  avg # of iterations = 22.0

     total cpu time spent up to now is     9895.8 secs

     total energy              =  -15423.55870175 Ry
     estimated scf accuracy    <    1723.96879939 Ry

     iteration # 89     ecut=    80.00 Ry     beta= 0.70
     Davidson diagonalization with overlap
     c_bands:  5 eigenvalues not converged
     ethr =  3.86E-04,  avg # of iterations = 40.0

     total cpu time spent up to now is    10213.5 secs

     total energy              =  -15481.68531793 Ry
     estimated scf accuracy    <     263.47643290 Ry

     iteration # 90     ecut=    80.00 Ry     beta= 0.70
     Davidson diagonalization with overlap
     ethr =  3.86E-04,  avg # of iterations = 22.0

     total cpu time spent up to now is    10427.1 secs

     total energy              =  -15473.61547155 Ry
     estimated scf accuracy    <     109.40878200 Ry

     iteration # 91     ecut=    80.00 Ry     beta= 0.70
     Davidson diagonalization with overlap
     ethr =  3.86E-04,  avg # of iterations = 21.0

     total cpu time spent up to now is    10695.7 secs

     total energy              =  -15434.31237560 Ry
     estimated scf accuracy    <    1170.74463033 Ry

     iteration # 92     ecut=    80.00 Ry     beta= 0.70
     Davidson diagonalization with overlap
     c_bands:  5 eigenvalues not converged
     ethr =  3.86E-04,  avg # of iterations = 40.0

     total cpu time spent up to now is    11039.4 secs

     total energy              =  -15478.61703262 Ry
     estimated scf accuracy    <     264.96796399 Ry

     iteration # 93     ecut=    80.00 Ry     beta= 0.70
     Davidson diagonalization with overlap
     ethr =  3.86E-04,  avg # of iterations = 20.0

     total cpu time spent up to now is    11184.9 secs

     total energy              =  -15488.65830458 Ry
     estimated scf accuracy    <      32.81642210 Ry

     iteration # 94     ecut=    80.00 Ry     beta= 0.70
     Davidson diagonalization with overlap
     c_bands:  2 eigenvalues not converged
     ethr =  3.86E-04,  avg # of iterations = 20.0

     total cpu time spent up to now is    11293.4 secs

     total energy              =  -15489.54447231 Ry
     estimated scf accuracy    <      16.41701979 Ry

     iteration # 95     ecut=    80.00 Ry     beta= 0.70
     Davidson diagonalization with overlap
     ethr =  3.86E-04,  avg # of iterations = 18.0

     total cpu time spent up to now is    11366.9 secs

     total energy              =  -15487.04600359 Ry
     estimated scf accuracy    <       8.32852820 Ry

     iteration # 96     ecut=    80.00 Ry     beta= 0.70
     Davidson diagonalization with overlap
     ethr =  3.86E-04,  avg # of iterations = 20.0

     total cpu time spent up to now is    11534.3 secs

     total energy              =  -15479.24083880 Ry
     estimated scf accuracy    <     303.70856613 Ry

     iteration # 97     ecut=    80.00 Ry     beta= 0.70
     Davidson diagonalization with overlap
     ethr =  3.86E-04,  avg # of iterations = 22.0

     total cpu time spent up to now is    11749.8 secs

     total energy              =  -15485.90900668 Ry
     estimated scf accuracy    <     104.51186260 Ry

     iteration # 98     ecut=    80.00 Ry     beta= 0.70
     Davidson diagonalization with overlap
     ethr =  3.86E-04,  avg # of iterations = 19.0

     total cpu time spent up to now is    11890.2 secs

     total energy              =  -15483.78675620 Ry
     estimated scf accuracy    <     193.44943760 Ry

     iteration # 99     ecut=    80.00 Ry     beta= 0.70
     Davidson diagonalization with overlap
     ethr =  3.86E-04,  avg # of iterations = 18.0

     total cpu time spent up to now is    12005.1 secs

     total energy              =  -15489.41604173 Ry
     estimated scf accuracy    <      12.25178100 Ry

     iteration #100     ecut=    80.00 Ry     beta= 0.70
     Davidson diagonalization with overlap
     ethr =  3.86E-04,  avg # of iterations = 22.0

     total cpu time spent up to now is    12152.8 secs

     total energy              =  -15488.72283568 Ry
     estimated scf accuracy    <      35.54569668 Ry

     End of self-consistent calculation

     convergence NOT achieved after 100 iterations: stopping

     Writing config to output data dir ./pwscf.save/ :
     XML data file, charge density distributed wavefunctions

     init_run     :     44.76s CPU     46.55s WALL (       1 calls)
     electrons    :  11951.56s CPU  12105.98s WALL (       1 calls)

     Called by init_run:
     wfcinit      :     43.12s CPU     44.56s WALL (       1 calls)
     potinit      :      0.42s CPU      0.46s WALL (       1 calls)
     hinit0       :      0.26s CPU      0.37s WALL (       1 calls)

     Called by electrons:
     c_bands      :  11117.34s CPU  11263.16s WALL (     100 calls)
     sum_band     :    763.79s CPU    770.94s WALL (     100 calls)
     v_of_rho     :      2.39s CPU      2.43s WALL (     101 calls)
     newd         :     37.65s CPU     38.24s WALL (     101 calls)
     PAW_pot      :     27.45s CPU     27.82s WALL (     101 calls)
     mix_rho      :      2.64s CPU      2.98s WALL (     100 calls)

     Called by c_bands:
     init_us_2    :      4.95s CPU      5.18s WALL (     201 calls)
     regterg      :  11110.62s CPU  11256.38s WALL (     119 calls)

     Called by *egterg:
     rdiaghg      :   1349.71s CPU   1373.11s WALL (    1274 calls)
     h_psi        :   4964.17s CPU   5015.13s WALL (    1275 calls)
     s_psi        :   2208.09s CPU   2210.67s WALL (    1275 calls)
     g_psi        :      0.61s CPU      0.62s WALL (    1155 calls)

     Called by h_psi:
     h_psi:calbec :   2543.28s CPU   2572.80s WALL (    1275 calls)
     vloc_psi     :    193.28s CPU    200.11s WALL (    1275 calls)
     vloc_psi:tg_ :      0.17s CPU      0.18s WALL (    1275 calls)
     add_vuspsi   :   2225.97s CPU   2240.57s WALL (    1275 calls)

     General routines
     calbec       :   3227.89s CPU   3262.83s WALL (    1375 calls)
     fft          :      6.54s CPU      6.60s WALL (    1111 calls)
     ffts         :      0.36s CPU      0.38s WALL (     201 calls)
     fftw         :    211.91s CPU    219.34s WALL (  405522 calls)
     interpolate  :      0.44s CPU      0.44s WALL (     101 calls)
     davcio       :      0.00s CPU      0.05s WALL (      19 calls)

     Parallel routines
     fft_scatt_xy :      9.64s CPU      9.91s WALL (  406834 calls)
     fft_scatt_yz :    175.13s CPU    181.59s WALL (  406834 calls)
     fft_scatt_tg :      0.99s CPU      1.02s WALL (  405522 calls)

     PWSCF        :      3h19m CPU      3h22m WALL


   This run was terminated on:  13:46:25  30Apr2025            

=------------------------------------------------------------------------------=
   JOB DONE.
=------------------------------------------------------------------------------=
