
                                 *****************
                                 * O   R   C   A *
                                 *****************

                                            #,                                       
                                            ###                                      
                                            ####                                     
                                            #####                                    
                                            ######                                   
                                           ########,                                 
                                     ,,################,,,,,                         
                               ,,#################################,,                 
                          ,,##########################################,,             
                       ,#########################################, ''#####,          
                    ,#############################################,,   '####,        
                  ,##################################################,,,,####,       
                ,###########''''           ''''###############################       
              ,#####''   ,,,,##########,,,,          '''####'''          '####       
            ,##' ,,,,###########################,,,                        '##       
           ' ,,###''''                  '''############,,,                           
         ,,##''                                '''############,,,,        ,,,,,,###''
      ,#''                                            '''#######################'''  
     '                                                          ''''####''''         
             ,#######,   #######,   ,#######,      ##                                
            ,#'     '#,  ##    ##  ,#'     '#,    #''#        ######   ,####,        
            ##       ##  ##   ,#'  ##            #'  '#       #        #'  '#        
            ##       ##  #######   ##           ,######,      #####,   #    #        
            '#,     ,#'  ##    ##  '#,     ,#' ,#      #,         ##   #,  ,#        
             '#######'   ##     ##  '#######'  #'      '#     #####' # '####'        



                  #######################################################
                  #                        -***-                        #
                  #          Department of theory and spectroscopy      #
                  #    Directorship and core code : Frank Neese         #
                  #        Max Planck Institute fuer Kohlenforschung    #
                  #                Kaiser Wilhelm Platz 1               #
                  #                 D-45470 Muelheim/Ruhr               #
                  #                      Germany                        #
                  #                                                     #
                  #                  All rights reserved                #
                  #                        -***-                        #
                  #######################################################


                         Program Version 5.0.4 -  RELEASE  -


 With contributions from (in alphabetic order):
   Daniel Aravena         : Magnetic Suceptibility
   Michael Atanasov       : Ab Initio Ligand Field Theory (pilot matlab implementation)
   Alexander A. Auer      : GIAO ZORA, VPT2 properties, NMR spectrum
   Ute Becker             : Parallelization
   Giovanni Bistoni       : ED, misc. LED, open-shell LED, HFLD
   Martin Brehm           : Molecular dynamics
   Dmytro Bykov           : SCF Hessian
   Vijay G. Chilkuri      : MRCI spin determinant printing, contributions to CSF-ICE
   Dipayan Datta          : RHF DLPNO-CCSD density
   Achintya Kumar Dutta   : EOM-CC, STEOM-CC
   Dmitry Ganyushin       : Spin-Orbit,Spin-Spin,Magnetic field MRCI
   Miquel Garcia          : C-PCM and meta-GGA Hessian, CC/C-PCM, Gaussian charge scheme
   Yang Guo               : DLPNO-NEVPT2, F12-NEVPT2, CIM, IAO-localization
   Andreas Hansen         : Spin unrestricted coupled pair/coupled cluster methods
   Benjamin Helmich-Paris : MC-RPA, TRAH-SCF, COSX integrals
   Lee Huntington         : MR-EOM, pCC
   Robert Izsak           : Overlap fitted RIJCOSX, COSX-SCS-MP3, EOM
   Marcus Kettner         : VPT2
   Christian Kollmar      : KDIIS, OOCD, Brueckner-CCSD(T), CCSD density, CASPT2, CASPT2-K
   Simone Kossmann        : Meta GGA functionals, TD-DFT gradient, OOMP2, MP2 Hessian
   Martin Krupicka        : Initial AUTO-CI
   Lucas Lang             : DCDCAS
   Marvin Lechner         : AUTO-CI (C++ implementation), FIC-MRCC
   Dagmar Lenk            : GEPOL surface, SMD
   Dimitrios Liakos       : Extrapolation schemes; Compound Job, initial MDCI parallelization
   Dimitrios Manganas     : Further ROCIS development; embedding schemes
   Dimitrios Pantazis     : SARC Basis sets
   Anastasios Papadopoulos: AUTO-CI, single reference methods and gradients
   Taras Petrenko         : DFT Hessian,TD-DFT gradient, ASA, ECA, R-Raman, ABS, FL, XAS/XES, NRVS
   Peter Pinski           : DLPNO-MP2, DLPNO-MP2 Gradient
   Christoph Reimann      : Effective Core Potentials
   Marius Retegan         : Local ZFS, SOC
   Christoph Riplinger    : Optimizer, TS searches, QM/MM, DLPNO-CCSD(T), (RO)-DLPNO pert. Triples
   Tobias Risthaus        : Range-separated hybrids, TD-DFT gradient, RPA, STAB
   Michael Roemelt        : Original ROCIS implementation
   Masaaki Saitow         : Open-shell DLPNO-CCSD energy and density
   Barbara Sandhoefer     : DKH picture change effects
   Avijit Sen             : IP-ROCIS
   Kantharuban Sivalingam : CASSCF convergence, NEVPT2, FIC-MRCI
   Bernardo de Souza      : ESD, SOC TD-DFT
   Georgi Stoychev        : AutoAux, RI-MP2 NMR, DLPNO-MP2 response
   Willem Van den Heuvel  : Paramagnetic NMR
   Boris Wezisla          : Elementary symmetry handling
   Frank Wennmohs         : Technical directorship


 We gratefully acknowledge several colleagues who have allowed us to
 interface, adapt or use parts of their codes:
   Stefan Grimme, W. Hujo, H. Kruse, P. Pracht,  : VdW corrections, initial TS optimization,
                  C. Bannwarth, S. Ehlert          DFT functionals, gCP, sTDA/sTD-DF
   Ed Valeev, F. Pavosevic, A. Kumar             : LibInt (2-el integral package), F12 methods
   Garnet Chan, S. Sharma, J. Yang, R. Olivares  : DMRG
   Ulf Ekstrom                                   : XCFun DFT Library
   Mihaly Kallay                                 : mrcc  (arbitrary order and MRCC methods)
   Jiri Pittner, Ondrej Demel                    : Mk-CCSD
   Frank Weinhold                                : gennbo (NPA and NBO analysis)
   Christopher J. Cramer and Donald G. Truhlar   : smd solvation model
   Lars Goerigk                                  : TD-DFT with DH, B97 family of functionals
   V. Asgeirsson, H. Jonsson                     : NEB implementation
   FAccTs GmbH                                   : IRC, NEB, NEB-TS, DLPNO-Multilevel, CI-OPT
                                                   MM, QMMM, 2- and 3-layer-ONIOM, Crystal-QMMM,
                                                   LR-CPCM, SF, NACMEs, symmetry and pop. for TD-DFT,
                                                   nearIR, NL-DFT gradient (VV10), updates on ESD,
                                                   ML-optimized integration grids
   S Lehtola, MJT Oliveira, MAL Marques          : LibXC Library
   Liviu Ungur et al                             : ANISO software


 Your calculation uses the libint2 library for the computation of 2-el integrals
 For citations please refer to: http://libint.valeyev.net

 Your ORCA version has been built with support for libXC version: 5.1.0
 For citations please refer to: https://tddft.org/programs/libxc/

 This ORCA versions uses:
   CBLAS   interface :  Fast vector & matrix operations
   LAPACKE interface :  Fast linear algebra routines
   SCALAPACK package :  Parallel linear algebra routines
   Shared memory     :  Shared parallel matrices
   BLAS/LAPACK       :  OpenBLAS 0.3.15  USE64BITINT DYNAMIC_ARCH NO_AFFINITY Barcelona SINGLE_THREADED
        Core in use  :  Barcelona
   Copyright (c) 2011-2014, The OpenBLAS Project




***************************************
The coordinates will be read from file: start.xyz
***************************************


Your calculation utilizes the atom-pairwise dispersion correction
with the Becke-Johnson damping scheme (D3BJ)
Cite in your paper:
S.Grimme, S.Ehrlich, L.Goerigk, J Comput Chem, (2011), 32, 1456–1465 
S.Grimme, J.Antony, S.Ehrlich and H.Krieg, J.Chem.Phys., 132, (2010), 154104 
   

================================================================================

----- Orbital basis set information -----
Your calculation utilizes the basis: pc-3
   H, C-F              : F. Jensen, J. Chem. Phys. 115, 9113 (2001).
                         F. Jensen, J. Chem. Phys. 116, 7372 (2002).
                         F. Jensen, J. Chem. Phys. 117, 9234 (2002).
   Si-Cl               : F. Jensen, T. Helgaker, J. Chem. Phys. 121, 3463 (2004).
   He-B, Ne-Mg, Al, Ar : F. Jensen, J. Phys. Chem. A 111, 11198 (2007).
   K, Ca, Ga-Kr        : F. Jensen, J. Chem. Phys. 136, 094110 (2012).
   Sc-Zn               : F. Jensen, J. Chem. Phys. 138, 014107 (2013).

----- AuxJ basis set information -----
Your calculation utilizes the AutoAux generation procedure.
  G. L. Stoychev, A. A. Auer, F. Neese, J. Chem. Theory Comput. 13, 554 (2017)

----- AuxC basis set information -----
Your calculation utilizes the AutoAux generation procedure.
  G. L. Stoychev, A. A. Auer, F. Neese, J. Chem. Theory Comput. 13, 554 (2017)

----- AuxJK basis set information -----
Your calculation utilizes the AutoAux generation procedure.
  G. L. Stoychev, A. A. Auer, F. Neese, J. Chem. Theory Comput. 13, 554 (2017)

================================================================================
                                        WARNINGS
                       Please study these warnings very carefully!
================================================================================


WARNING: Geometry Optimization
  ===> : Switching off AutoStart
         For restart on a previous wavefunction, please use MOREAD

INFO   : the flag for use of the SHARK integral package has been found!

================================================================================
                                       INPUT FILE
================================================================================
NAME = run.inp
|  1> # Geometry optimization for (AlH3)n cluster
|  2> 
|  3> ! PBE 	# functional used for the MOF calculations later (non-expensive)
|  4> ! RKS	# closed shell for AlH3
|  5> ! D3BJ  # better geometries at low cost
|  6> ! pc-3 	# proven basiset from earlier work
|  7> ! Freq 	# Frequency analysis to check the stabiltity of the structures
|  8> 
|  9> ! NoPop # population analysis not necessary	
| 10> 
| 11> ! RI 		# speed up calculation 
| 12> ! AutoAux # no auxiliary basis set for pc implemented
| 13> ! DEFGRID3 # dense integration grid in space
| 14> ! TightSCF # 
| 15> ! TightOpt # thight convergence criteria for geometry optimizations
| 16> 
| 17> ! SmallPrint
| 18> 
| 19> 
| 20> * xyzFile 0 1 start.xyz # only maingroup elements H and Al so there should be no net spin
| 21> 
| 22>                          ****END OF INPUT****
================================================================================

                       *****************************
                       * Geometry Optimization Run *
                       *****************************

Geometry optimization settings:
Update method            Update   .... BFGS
Choice of coordinates    CoordSys .... Z-matrix Internals
Initial Hessian          InHess   .... Almoef's Model

Convergence Tolerances:
Energy Change            TolE     ....  1.0000e-06 Eh
Max. Gradient            TolMAXG  ....  1.0000e-04 Eh/bohr
RMS Gradient             TolRMSG  ....  3.0000e-05 Eh/bohr
Max. Displacement        TolMAXD  ....  1.0000e-03 bohr
RMS Displacement         TolRMSD  ....  6.0000e-04 bohr
Strict Convergence                ....  False
------------------------------------------------------------------------------
                        ORCA OPTIMIZATION COORDINATE SETUP
------------------------------------------------------------------------------

The optimization will be done in new redundant internal coordinates
Making redundant internal coordinates   ...  (new redundants) done
Evaluating the initial hessian          ...  (Almloef) done
Evaluating the coordinates              ...  done
Calculating the B-matrix                .... done
Calculating the G-matrix                .... done
Diagonalizing the G-matrix              .... done
The first mode is                       ....    1
The number of degrees of freedom        ....    6

    -----------------------------------------------------------------
                    Redundant Internal Coordinates


    -----------------------------------------------------------------
         Definition                    Initial Value    Approx d2E/dq
    -----------------------------------------------------------------
      1. B(H   1,Al  0)                  1.5800         0.417101   
      2. B(H   2,Al  0)                  1.5800         0.417103   
      3. B(H   3,Al  0)                  1.5800         0.417103   
      4. A(H   1,Al  0,H   3)          109.4716         0.389919   
      5. A(H   2,Al  0,H   3)          109.4711         0.389919   
      6. A(H   1,Al  0,H   2)          109.4713         0.389919   
      7. I(H   1,H   3,H   2,Al  0)     54.7352         0.007594   
    -----------------------------------------------------------------

Number of atoms                         .... 4
Number of degrees of freedom            .... 7

Time needed for optimization step       :     1.88 sec

         *************************************************************
         *                GEOMETRY OPTIMIZATION CYCLE   1            *
         *************************************************************
---------------------------------
CARTESIAN COORDINATES (ANGSTROEM)
---------------------------------
  Al    -0.319560    1.718930   -0.154110
  H     -1.780250    1.175780   -0.414440
  H      0.277690    1.027080    1.134700
  H      0.594580    1.389800   -1.400070

----------------------------
CARTESIAN COORDINATES (A.U.)
----------------------------
  NO LB      ZA    FRAG     MASS         X           Y           Z
   0 Al   13.0000    0    26.982   -0.603881    3.248307   -0.291226
   1 H     1.0000    0     1.008   -3.364185    2.221902   -0.783178
   2 H     1.0000    0     1.008    0.524758    1.940900    2.144272
   3 H     1.0000    0     1.008    1.123593    2.626341   -2.645749

--------------------------------
INTERNAL COORDINATES (ANGSTROEM)
--------------------------------
 Al     0   0   0     0.000000000000     0.00000000     0.00000000
 H      1   0   0     1.579999654272     0.00000000     0.00000000
 H      1   2   0     1.579998481360   109.47127738     0.00000000
 H      1   2   3     1.579998360157   109.47158926   120.00012132

---------------------------
INTERNAL COORDINATES (A.U.)
---------------------------
 Al     0   0   0     0.000000000000     0.00000000     0.00000000
 H      1   0   0     2.985766638265     0.00000000     0.00000000
 H      1   2   0     2.985764421782   109.47127738     0.00000000
 H      1   2   3     2.985764192742   109.47158926   120.00012132

---------------------
BASIS SET INFORMATION
---------------------
There are 2 groups of distinct atoms

 Group   1 Type Al  : 35s21p4d2f1g contracted to 6s5p4d2f1g pattern {121010111/99111/1111/11/1}
 Group   2 Type H   : 9s4p2d1f contracted to 5s4p2d1f pattern {51111/1111/11/1}

Atom   0Al   basis set group =>   1
Atom   1H    basis set group =>   2
Atom   2H    basis set group =>   2
Atom   3H    basis set group =>   2
---------------------------------
AUXILIARY/J BASIS SET INFORMATION
---------------------------------
There are 2 groups of distinct atoms

 Group   1 Type Al  : 19s16p15d8f8g5h contracted to 19s16p15d8f8g5h pattern {1111111111111111111/1111111111111111/111111111111111/11111111/11111111/11111}
 Group   2 Type H   : 15s7p6d4f4g contracted to 15s7p6d4f4g pattern {111111111111111/1111111/111111/1111/1111}

Atom   0Al   basis set group =>   1
Atom   1H    basis set group =>   2
Atom   2H    basis set group =>   2
Atom   3H    basis set group =>   2
---------------------------------
AUXILIARY/C BASIS SET INFORMATION
---------------------------------
There are 2 groups of distinct atoms

 Group   1 Type Al  : 19s16p15d8f8g5h contracted to 19s16p15d8f8g5h pattern {1111111111111111111/1111111111111111/111111111111111/11111111/11111111/11111}
 Group   2 Type H   : 15s7p6d4f4g contracted to 15s7p6d4f4g pattern {111111111111111/1111111/111111/1111/1111}

Atom   0Al   basis set group =>   1
Atom   1H    basis set group =>   2
Atom   2H    basis set group =>   2
Atom   3H    basis set group =>   2
----------------------------------
AUXILIARY/JK BASIS SET INFORMATION
----------------------------------
There are 2 groups of distinct atoms

 Group   1 Type Al  : 19s16p15d8f8g5h contracted to 19s16p15d8f8g5h pattern {1111111111111111111/1111111111111111/111111111111111/11111111/11111111/11111}
 Group   2 Type H   : 15s7p6d4f4g contracted to 15s7p6d4f4g pattern {111111111111111/1111111/111111/1111/1111}

Atom   0Al   basis set group =>   1
Atom   1H    basis set group =>   2
Atom   2H    basis set group =>   2
Atom   3H    basis set group =>   2
------------------------------------------------------------------------------
                           ORCA GTO INTEGRAL CALCULATION
                           -- RI-GTO INTEGRALS CHOSEN --
------------------------------------------------------------------------------
------------------------------------------------------------------------------
                   ___                                                        
                  /   \      - P O W E R E D   B Y -                         
                 /     \                                                     
                 |  |  |   _    _      __       _____    __    __             
                 |  |  |  | |  | |    /  \     |  _  \  |  |  /  |          
                  \  \/   | |  | |   /    \    | | | |  |  | /  /          
                 / \  \   | |__| |  /  /\  \   | |_| |  |  |/  /          
                |  |  |   |  __  | /  /__\  \  |    /   |      \           
                |  |  |   | |  | | |   __   |  |    \   |  |\   \          
                \     /   | |  | | |  |  |  |  | |\  \  |  | \   \       
                 \___/    |_|  |_| |__|  |__|  |_| \__\ |__|  \__/        
                                                                              
                      - O R C A' S   B I G   F R I E N D -                    
                                      &                                       
                       - I N T E G R A L  F E E D E R -                       
                                                                              
 v1 FN, 2020, v2 2021                                                         
------------------------------------------------------------------------------


Reading SHARK input file run.SHARKINP.tmp ... ok
----------------------
SHARK INTEGRAL PACKAGE
----------------------

Number of atoms                             ...      4
Number of basis functions                   ...    166
Number of shells                            ...     54
Maximum angular momentum                    ...      4
Integral batch strategy                     ... SHARK/LIBINT Hybrid
RI-J (if used) integral strategy            ... SPLIT-RIJ (Revised 2003 algorithm where possible)
Printlevel                                  ...      1
Contraction scheme used                     ... SEGMENTED contraction
Coulomb Range Separation                    ... NOT USED
Exchange Range Separation                   ... NOT USED
Finite Nucleus Model                        ... NOT USED
Auxiliary Coulomb fitting basis             ... AVAILABLE
   # of basis functions in Aux-J            ...    715
   # of shells in Aux-J                     ...    179
   Maximum angular momentum in Aux-J        ...      5
Auxiliary J/K fitting basis                 ... AVAILABLE
   # of basis functions in Aux-JK           ...    715
   # of shells in Aux-JK                    ...    179
   Maximum angular momentum in Aux-JK       ...      5
Auxiliary Correlation fitting basis         ... AVAILABLE
   # of basis functions in Aux-C            ...    715
   # of shells in Aux-C                     ...    179
   Maximum angular momentum in Aux-C        ...      5
Auxiliary 'external' fitting basis          ... NOT available
Integral threshold                          ...     2.500000e-11
Primitive cut-off                           ...     2.500000e-12
Primitive pair pre-selection threshold      ...     2.500000e-12

Calculating pre-screening integrals         ... done (  0.2 sec) Dimension = 54
Organizing shell pair data                  ... done (  0.1 sec)
Shell pair information
Total number of shell pairs                 ...      1485
Shell pairs after pre-screening             ...      1461
Total number of primitive shell pairs       ...      6474
Primitive shell pairs kept                  ...      5667
          la=0 lb=0:    228 shell pairs
          la=1 lb=0:    351 shell pairs
          la=1 lb=1:    150 shell pairs
          la=2 lb=0:    210 shell pairs
          la=2 lb=1:    164 shell pairs
          la=2 lb=2:     55 shell pairs
          la=3 lb=0:    105 shell pairs
          la=3 lb=1:     79 shell pairs
          la=3 lb=2:     50 shell pairs
          la=3 lb=3:     15 shell pairs
          la=4 lb=0:     21 shell pairs
          la=4 lb=1:     17 shell pairs
          la=4 lb=2:     10 shell pairs
          la=4 lb=3:      5 shell pairs
          la=4 lb=4:      1 shell pairs

Calculating one electron integrals          ... done (  0.1 sec)
Calculating RI/J V-Matrix + Cholesky decomp.... done (  0.4 sec)
Calculating RI/JK V-Matrix + Cholesky decomp... done (  0.0 sec)
Calculating RI/C V-Matrix + Cholesky decomp.... done (  0.0 sec)
Calculating Nuclear repulsion               ... done (  0.0 sec) ENN=     13.677270306480 Eh

SHARK setup successfully completed in   3.2 seconds

Maximum memory used throughout the entire GTOINT-calculation: 52.5 MB
-------------------------------------------------------------------------------
                                 ORCA SCF
-------------------------------------------------------------------------------

------------
SCF SETTINGS
------------
Hamiltonian:
 Density Functional     Method          .... DFT(GTOs)
 Exchange Functional    Exchange        .... PBE
   PBE kappa parameter   XKappa         ....  0.804000
   PBE mue parameter    XMuePBE         ....  0.219520
 Correlation Functional Correlation     .... PBE
   PBE beta parameter  CBetaPBE         ....  0.066725
 LDA part of GGA corr.  LDAOpt          .... PW91-LDA
 Gradients option       PostSCFGGA      .... off
   Density functional embedding theory  .... OFF
   NL short-range parameter             ....  6.400000
 RI-approximation to the Coulomb term is turned on
   Number of AuxJ basis functions       .... 715


General Settings:
 Integral files         IntName         .... run
 Hartree-Fock type      HFTyp           .... RHF
 Total Charge           Charge          ....    0
 Multiplicity           Mult            ....    1
 Number of Electrons    NEL             ....   16
 Basis Dimension        Dim             ....  166
 Nuclear Repulsion      ENuc            ....     13.6772703065 Eh

Convergence Acceleration:
 DIIS                   CNVDIIS         .... on
   Start iteration      DIISMaxIt       ....    12
   Startup error        DIISStart       ....  0.200000
   # of expansion vecs  DIISMaxEq       ....     5
   Bias factor          DIISBfac        ....   1.050
   Max. coefficient     DIISMaxC        ....  10.000
 Trust-Rad. Augm. Hess. CNVTRAH         .... auto
   Auto Start mean grad. ratio tolernc. ....  1.125000
   Auto Start start iteration           ....    20
   Auto Start num. interpolation iter.  ....    10
   Max. Number of Micro iterations      ....    16
   Max. Number of Macro iterations      .... Maxiter - #DIIS iter
   Number of Davidson start vectors     ....     2
   Converg. threshold I  (grad. norm)   ....   1.000e-05
   Converg. threshold II (energy diff.) ....   1.000e-08
   Grad. Scal. Fac. for Micro threshold ....   0.100
   Minimum threshold for Micro iter.    ....   0.010
   NR start threshold (gradient norm)   ....   0.001
   Initial trust radius                 ....   0.400
   Minimum AH scaling param. (alpha)    ....   1.000
   Maximum AH scaling param. (alpha)    .... 1000.000
   Orbital update algorithm             .... Taylor
   White noise on init. David. guess    .... on
   Maximum white noise                  ....   0.010
   Quad. conv. algorithm                .... NR
 SOSCF                  CNVSOSCF        .... on
   Start iteration      SOSCFMaxIt      ....   150
   Startup grad/error   SOSCFStart      ....  0.003300
 Level Shifting         CNVShift        .... on
   Level shift para.    LevelShift      ....    0.2500
   Turn off err/grad.   ShiftErr        ....    0.0010
 Zerner damping         CNVZerner       .... off
 Static damping         CNVDamp         .... on
   Fraction old density DampFac         ....    0.7000
   Max. Damping (<1)    DampMax         ....    0.9800
   Min. Damping (>=0)   DampMin         ....    0.0000
   Turn off err/grad.   DampErr         ....    0.1000
 Fernandez-Rico         CNVRico         .... off

SCF Procedure:
 Maximum # iterations   MaxIter         ....   125
 SCF integral mode      SCFMode         .... Direct
   Integral package                     .... SHARK and LIBINT hybrid scheme
 Reset frequency        DirectResetFreq ....    20
 Integral Threshold     Thresh          ....  2.500e-11 Eh
 Primitive CutOff       TCut            ....  2.500e-12 Eh

Convergence Tolerance:
 Convergence Check Mode ConvCheckMode   .... Total+1el-Energy
 Convergence forced     ConvForced      .... 0
 Energy Change          TolE            ....  1.000e-08 Eh
 1-El. energy change                    ....  1.000e-05 Eh
 Orbital Gradient       TolG            ....  1.000e-05
 Orbital Rotation angle TolX            ....  1.000e-05
 DIIS Error             TolErr          ....  5.000e-07


Diagonalization of the overlap matrix:
Smallest eigenvalue                        ... 5.328e-04
Time for diagonalization                   ...    0.214 sec
Threshold for overlap eigenvalues          ... 1.000e-08
Number of eigenvalues below threshold      ... 0
Time for construction of square roots      ...    0.054 sec
Total time needed                          ...    0.269 sec

Time for model grid setup =    0.559 sec

------------------------------
INITIAL GUESS: MODEL POTENTIAL
------------------------------
Loading Hartree-Fock densities                     ... done
Calculating cut-offs                               ... done
Initializing the effective Hamiltonian             ... done
Setting up the integral package (SHARK)            ... done
Starting the Coulomb interaction                   ... done (   0.7 sec)
Reading the grid                                   ... done
Mapping shells                                     ... done
Starting the XC term evaluation                    ... done (   0.2 sec)
  promolecular density results
     # of electrons  =     15.998728691
     EX              =    -18.854509839
     EC              =     -0.531625666
     EX+EC           =    -19.386135504
Transforming the Hamiltonian                       ... done (   0.0 sec)
Diagonalizing the Hamiltonian                      ... done (   0.0 sec)
Back transforming the eigenvectors                 ... done (   0.0 sec)
Now organizing SCF variables                       ... done
                      ------------------
                      INITIAL GUESS DONE (   1.5 sec)
                      ------------------
-------------------
DFT GRID GENERATION
-------------------

General Integration Accuracy     IntAcc      ... 4.959
Radial Grid Type                 RadialGrid  ... OptM3 with GC (2021)
Angular Grid (max. ang.)         AngularGrid ... 6 (Lebedev-590)
Angular grid pruning method      GridPruning ... 4 (adaptive)
Weight generation scheme         WeightScheme... Becke
Basis function cutoff            BFCut       ... 1.0000e-11
Integration weight cutoff        WCut        ... 1.0000e-14
Angular grids for H and He will be reduced by one unit
Partially contracted basis set               ... off
Rotationally invariant grid construction     ... off

Total number of grid points                  ...    46339
Total number of batches                      ...      726
Average number of points per batch           ...       63
Average number of grid points per atom       ...    11585
Time for grid setup =    1.053 sec

--------------
SCF ITERATIONS
--------------
ITER       Energy         Delta-E        Max-DP      RMS-DP      [F,P]     Damp
               ***  Starting incremental Fock matrix formation  ***
  0   -243.9997253523   0.000000000000 0.01513335  0.00035729  0.0961623 0.7000
  1   -244.0135119197  -0.013786567402 0.01393827  0.00033537  0.0620721 0.7000
                               ***Turning on DIIS***
  2   -244.0216499181  -0.008137998380 0.02920213  0.00075517  0.0340452 0.0000
  3   -244.0308783503  -0.009228432219 0.01412354  0.00022401  0.0303537 0.0000
  4   -244.0338486073  -0.002970257020 0.00617311  0.00009874  0.0111379 0.0000
  5   -244.0342585214  -0.000409914055 0.00255893  0.00004678  0.0044276 0.0000
                      *** Initiating the SOSCF procedure ***
                           *** Shutting down DIIS ***
                      *** Re-Reading the Fockian *** 
                      *** Removing any level shift *** 
ITER      Energy       Delta-E        Grad      Rot      Max-DP    RMS-DP
  6   -244.03432272  -0.0000642019  0.000761  0.000761  0.000838  0.000020
               *** Restarting incremental Fock matrix formation ***
  7   -244.03433307  -0.0000103437  0.000562  0.002272  0.000918  0.000023
  8   -244.03433375  -0.0000006794  0.000448  0.000875  0.000455  0.000009
  9   -244.03433577  -0.0000020237  0.000023  0.000034  0.000073  0.000001
 10   -244.03433577  -0.0000000047  0.000007  0.000011  0.000018  0.000000
                  ***Gradient check signals convergence***
              ***Rediagonalizing the Fockian in SOSCF/NRSCF***

               *****************************************************
               *                     SUCCESS                       *
               *           SCF CONVERGED AFTER  11 CYCLES          *
               *****************************************************


----------------
TOTAL SCF ENERGY
----------------

Total Energy       :         -244.03433578 Eh           -6640.51187 eV

Components:
Nuclear Repulsion  :           13.67727031 Eh             372.17745 eV
Electronic Energy  :         -257.71160609 Eh           -7012.68932 eV
One Electron Energy:         -365.95611063 Eh           -9958.17203 eV
Two Electron Energy:          108.24450454 Eh            2945.48271 eV

Virial components:
Potential Energy   :         -487.86455647 Eh          -13275.46949 eV
Kinetic Energy     :          243.83022068 Eh            6634.95762 eV
Virial Ratio       :            2.00083712


DFT components:
N(Alpha)           :        7.999999932967 electrons
N(Beta)            :        7.999999932967 electrons
N(Total)           :       15.999999865934 electrons
E(X)               :      -19.036669488508 Eh       
E(C)               :       -0.532182893911 Eh       
E(XC)              :      -19.568852382419 Eh       
DFET-embed. en.    :        0.000000000000 Eh       

---------------
SCF CONVERGENCE
---------------

  Last Energy change         ...   -8.2984e-09  Tolerance :   1.0000e-08
  Last MAX-Density change    ...    2.8796e-06  Tolerance :   1.0000e-07
  Last RMS-Density change    ...    6.2683e-08  Tolerance :   5.0000e-09
  Last Orbital Gradient      ...    1.4612e-06  Tolerance :   1.0000e-05
  Last Orbital Rotation      ...    2.2153e-06  Tolerance :   1.0000e-05

             **** THE GBW FILE WAS UPDATED (run.gbw) ****
             **** DENSITY run.scfp WAS UPDATED ****
             **** ENERGY FILE WAS UPDATED (run.en.tmp) ****
             **** THE GBW FILE WAS UPDATED (run.gbw) ****
             **** DENSITY run.scfp WAS UPDATED ****
----------------
ORBITAL ENERGIES
----------------

  NO   OCC          E(Eh)            E(eV) 
   0   2.0000     -55.359433     -1506.4068 
   1   2.0000      -3.933069      -107.0242 
   2   2.0000      -2.540550       -69.1319 
   3   2.0000      -2.530721       -68.8644 
   4   2.0000      -2.530721       -68.8644 
   5   2.0000      -0.377387       -10.2692 
   6   2.0000      -0.258200        -7.0260 
   7   2.0000      -0.258199        -7.0260 
   8   0.0000      -0.130123        -3.5408 
   9   0.0000       0.005176         0.1409 
  10   0.0000       0.005177         0.1409 
  11   0.0000       0.015416         0.4195 
  12   0.0000       0.047033         1.2798 
  13   0.0000       0.051009         1.3880 
  14   0.0000       0.051009         1.3880 
  15   0.0000       0.078569         2.1380 
  16   0.0000       0.136597         3.7170 
  17   0.0000       0.136597         3.7170 
  18   0.0000       0.152146         4.1401 
  19   0.0000       0.152146         4.1401 
  20   0.0000       0.174814         4.7569 
  21   0.0000       0.265929         7.2363 
  22   0.0000       0.303279         8.2526 
  23   0.0000       0.303279         8.2526 
  24   0.0000       0.336202         9.1485 
  25   0.0000       0.361556         9.8384 
  26   0.0000       0.389840        10.6081 
  27   0.0000       0.389841        10.6081 
  28   0.0000       0.407625        11.0920 
  29   0.0000       0.407626        11.0921 
  30   0.0000       0.468121        12.7382 
  31   0.0000       0.498807        13.5732 
  32   0.0000       0.542515        14.7626 
  33   0.0000       0.542515        14.7626 
  34   0.0000       0.595879        16.2147 
  35   0.0000       0.595879        16.2147 
  36   0.0000       0.652343        17.7512 
  37   0.0000       0.763341        20.7716 
  38   0.0000       0.767260        20.8782 
  39   0.0000       0.767261        20.8782 
  40   0.0000       0.920558        25.0497 
  41   0.0000       0.932527        25.3753 
  42   0.0000       0.932527        25.3754 
  43   0.0000       0.980376        26.6774 
  44   0.0000       0.980376        26.6774 
  45   0.0000       1.022031        27.8109 
  46   0.0000       1.066369        29.0174 
  47   0.0000       1.086952        29.5775 
  48   0.0000       1.086953        29.5775 
  49   0.0000       1.174755        31.9667 
  50   0.0000       1.174755        31.9667 
  51   0.0000       1.307428        35.5769 
  52   0.0000       1.476002        40.1641 
  53   0.0000       1.476003        40.1641 
  54   0.0000       1.480380        40.2832 
  55   0.0000       1.485268        40.4162 
  56   0.0000       1.528991        41.6059 
  57   0.0000       1.528991        41.6060 
  58   0.0000       1.607958        43.7548 
  59   0.0000       1.749326        47.6016 
  60   0.0000       1.749327        47.6016 
  61   0.0000       1.778202        48.3873 
  62   0.0000       1.778203        48.3874 
  63   0.0000       1.783568        48.5333 
  64   0.0000       1.874846        51.0172 
  65   0.0000       1.874848        51.0172 
  66   0.0000       1.919137        52.2224 
  67   0.0000       1.986042        54.0430 
  68   0.0000       1.986043        54.0430 
  69   0.0000       2.006260        54.5931 
  70   0.0000       2.109691        57.4076 
  71   0.0000       2.109692        57.4076 
  72   0.0000       2.143857        58.3373 
  73   0.0000       2.338216        63.6261 
  74   0.0000       2.338218        63.6262 
  75   0.0000       2.350770        63.9677 
  76   0.0000       2.392869        65.1133 
  77   0.0000       2.533525        68.9407 
  78   0.0000       2.533528        68.9408 
  79   0.0000       2.650269        72.1175 
  80   0.0000       2.785519        75.7978 
  81   0.0000       2.785522        75.7979 
  82   0.0000       2.844794        77.4108 
  83   0.0000       2.967976        80.7627 
  84   0.0000       2.967977        80.7628 
  85   0.0000       3.005617        81.7870 
  86   0.0000       3.005620        81.7871 
  87   0.0000       3.243549        88.2614 
  88   0.0000       3.493495        95.0628 
  89   0.0000       3.493497        95.0629 
  90   0.0000       3.545713        96.4837 
  91   0.0000       3.573387        97.2368 
  92   0.0000       3.573388        97.2368 
  93   0.0000       3.578682        97.3809 
  94   0.0000       3.649993        99.3214 
  95   0.0000       3.681356       100.1748 
  96   0.0000       3.681357       100.1748 
  97   0.0000       3.705643       100.8357 
  98   0.0000       3.798122       103.3522 
  99   0.0000       3.798125       103.3522 
 100   0.0000       4.067184       110.6737 
 101   0.0000       4.406636       119.9107 
 102   0.0000       4.406638       119.9107 
 103   0.0000       4.900895       133.3601 
 104   0.0000       4.900896       133.3602 
 105   0.0000       4.941145       134.4554 
 106   0.0000       4.944184       134.5381 
 107   0.0000       4.968113       135.1892 
 108   0.0000       4.968118       135.1894 
 109   0.0000       5.359890       145.8500 
 110   0.0000       5.359893       145.8501 
 111   0.0000       5.453644       148.4012 
 112   0.0000       7.456726       202.9078 
 113   0.0000       7.456729       202.9079 
 114   0.0000       7.470417       203.2804 
 115   0.0000       7.533191       204.9885 
 116   0.0000       7.533193       204.9886 
 117   0.0000       7.570386       206.0007 
 118   0.0000       7.727567       210.2778 
 119   0.0000       7.731699       210.3902 
 120   0.0000       7.731701       210.3903 
 121   0.0000       7.768986       211.4049 
 122   0.0000       7.852742       213.6840 
 123   0.0000       7.852744       213.6840 
 124   0.0000       7.881805       214.4748 
 125   0.0000       7.912859       215.3198 
 126   0.0000       7.912860       215.3199 
 127   0.0000       8.489136       231.0011 
 128   0.0000       8.489139       231.0012 
 129   0.0000       8.613443       234.3837 
 130   0.0000       9.022208       245.5067 
 131   0.0000       9.148733       248.9497 
 132   0.0000       9.151481       249.0245 
 133   0.0000       9.151511       249.0253 
 134   0.0000       9.156557       249.1626 
 135   0.0000       9.156579       249.1632 
 136   0.0000       9.176369       249.7017 
 137   0.0000       9.223387       250.9811 
 138   0.0000       9.257790       251.9173 
 139   0.0000       9.257793       251.9174 
 140   0.0000       9.265458       252.1259 
 141   0.0000       9.318972       253.5821 
 142   0.0000       9.318975       253.5822 
 143   0.0000       9.615126       261.6409 
 144   0.0000       9.615130       261.6410 
 145   0.0000       9.640795       262.3394 
 146   0.0000       9.742639       265.1107 
 147   0.0000       9.742646       265.1109 
 148   0.0000       9.891262       269.1549 
 149   0.0000       9.904500       269.5152 
 150   0.0000       9.904505       269.5153 
 151   0.0000      11.860411       322.7382 
 152   0.0000      13.388895       364.3303 
 153   0.0000      13.388895       364.3304 
 154   0.0000      13.632795       370.9672 
 155   0.0000      13.829544       376.3210 
 156   0.0000      13.829546       376.3211 
 157   0.0000      19.055432       518.5247 
 158   0.0000      19.055444       518.5250 
 159   0.0000      19.092553       519.5348 
 160   0.0000      19.098545       519.6978 
 161   0.0000      19.108997       519.9823 
 162   0.0000      19.109042       519.9835 
 163   0.0000      19.429123       528.6933 
 164   0.0000      19.429135       528.6937 
 165   0.0000      19.598974       533.3152 
-------
TIMINGS
-------

Total SCF time: 0 days 0 hours 0 min 29 sec 

Total time                  ....      29.303 sec
Sum of individual times     ....      28.261 sec  ( 96.4%)

Fock matrix formation       ....      25.471 sec  ( 86.9%)
  Split-RI-J                ....      10.956 sec  ( 43.0% of F)
  XC integration            ....      14.183 sec  ( 55.7% of F)
    Basis function eval.    ....       4.644 sec  ( 32.7% of XC)
    Density eval.           ....       3.645 sec  ( 25.7% of XC)
    XC-Functional eval.     ....       1.044 sec  (  7.4% of XC)
    XC-Potential eval.      ....       4.363 sec  ( 30.8% of XC)
Diagonalization             ....       0.091 sec  (  0.3%)
Density matrix formation    ....       0.004 sec  (  0.0%)
Population analysis         ....       0.000 sec  (  0.0%)
Initial guess               ....       1.021 sec  (  3.5%)
Orbital Transformation      ....       0.000 sec  (  0.0%)
Orbital Orthonormalization  ....       0.000 sec  (  0.0%)
DIIS solution               ....       0.028 sec  (  0.1%)
SOSCF solution              ....       0.034 sec  (  0.1%)
Grid generation             ....       1.612 sec  (  5.5%)

Maximum memory used throughout the entire SCF-calculation: 66.8 MB


-------------------------------------------------------------------------------
                          DFT DISPERSION CORRECTION                            
                                                                               
                              DFTD3 V3.1  Rev 1                                
                          USING Becke-Johnson damping                          
-------------------------------------------------------------------------------
The PBE functional is recognized
Active option DFTDOPT                   ...         4   

molecular C6(AA) [au] = 312.009369 


            DFT-D V3
 parameters
 s6 scaling factor         :     1.0000 
 a1 scaling factor         :     0.4289 
 s8 scaling factor         :     0.7875 
 a2 scaling factor         :     4.4407 
 ad hoc parameters k1-k3   :    16.0000     1.3333    -4.0000 

 Edisp/kcal,au: -0.691207472180  -0.001101509104 
 E6   /kcal   :  -0.460881081 
 E8   /kcal   :  -0.230326391 
 % E8         :  33.322323667 

-------------------------   ----------------
Dispersion correction           -0.001101509
-------------------------   ----------------


-------------------------   --------------------
FINAL SINGLE POINT ENERGY      -244.035437292185
-------------------------   --------------------

------------------------------------------------------------------------------
                         ORCA SCF GRADIENT CALCULATION
------------------------------------------------------------------------------

Gradient of the Kohn-Sham DFT energy:
Kohn-Sham wavefunction type      ... RKS
Hartree-Fock exchange scaling    ...    0.000
Number of operators              ...    1
Number of atoms                  ...    4
Basis set dimensions             ...  166
Integral neglect threshold       ... 2.5e-11
Integral primitive cutoff        ... 2.5e-12
SHARK Integral package           ... ON

Nuc. rep. gradient       (SHARK) ... done (  0.0 sec)
HCore & Overlap gradient (SHARK) ... done (  0.3 sec)
RI-J gradient            (SHARK) ... done (  6.2 sec)
Exchange-correlation gradient    ... done
Dispersion correction            ... done

------------------
CARTESIAN GRADIENT
------------------

   1   Al  :   -0.001371369    0.042337591    0.005886610
   2   H   :    0.011606012   -0.013947930   -0.000545002
   3   H   :   -0.003921908   -0.012826320   -0.012233839
   4   H   :   -0.006312734   -0.015563341    0.006892230

Difference to translation invariance:
           :   -0.0000000000   -0.0000000000    0.0000000000

Difference to rotation invariance:
           :   -0.0000002197   -0.0000008624   -0.0000023971

Norm of the cartesian gradient     ...    0.0530818177
RMS gradient                       ...    0.0153234009
MAX gradient                       ...    0.0423375905

-------
TIMINGS
-------

Total SCF gradient time            ...       12.954 sec

One electron gradient       ....       0.255 sec  (  2.0%)
RI-J Coulomb gradient       ....       6.171 sec  ( 47.6%)
XC gradient                 ....       5.368 sec  ( 41.4%)

Maximum memory used throughout the entire SCFGRAD-calculation: 82.1 MB
------------------------------------------------------------------------------
                         ORCA GEOMETRY RELAXATION STEP
------------------------------------------------------------------------------

Reading the OPT-File                    .... done
Getting information on internals        .... done
Copying old internal coords+grads       .... done
Making the new internal coordinates     .... (new redundants).... done
Validating the new internal coordinates .... (new redundants).... done
Calculating the B-matrix                .... done
Calculating the G,G- and P matrices     .... done
Transforming gradient to internals      .... done
Projecting the internal gradient        .... done
Number of atoms                         ....   4
Number of internal coordinates          ....   7
Current Energy                          ....  -244.035437292 Eh
Current gradient norm                   ....     0.053081818 Eh/bohr
Maximum allowed component of the step   ....  0.300
Current trust radius                    ....  0.300
Evaluating the initial hessian          ....  (Almloef) done
Projecting the Hessian                  .... done
Forming the augmented Hessian           .... done
Diagonalizing the augmented Hessian     .... done
Last element of RFO vector              ....  0.947184229
Lowest eigenvalues of augmented Hessian:
 -0.017447216  0.140903013  0.389918993  0.391431447  0.417101519
Length of the computed step             ....  0.338571873
Warning: the length of the step is outside the trust region - taking restricted step instead
The input lambda is                     ....    -0.017447
   iter:   1  x=   -0.033140  g=    1.569608 f(x)=     0.024631
   iter:   2  x=   -0.036191  g=    1.150950 f(x)=     0.003512
   iter:   3  x=   -0.036281  g=    1.087513 f(x)=     0.000098
   iter:   4  x=   -0.036281  g=    1.085712 f(x)=     0.000000
   iter:   5  x=   -0.036281  g=    1.085710 f(x)=     0.000000
   iter:   6  x=   -0.036281  g=    1.085710 f(x)=    -0.000000
The output lambda is                    ....    -0.036281 (6 iterations)
The final length of the internal step   ....  0.300000000
Converting the step to cartesian space:
 Initial RMS(Int)=    0.1133893419
Transforming coordinates:
 Iter   0:  RMS(Cart)=    0.0886364350 RMS(Int)=    0.1132082833
 Iter   1:  RMS(Cart)=    0.0068051057 RMS(Int)=    0.0096080738
 Iter   2:  RMS(Cart)=    0.0006398971 RMS(Int)=    0.0007643347
 Iter   3:  RMS(Cart)=    0.0000694871 RMS(Int)=    0.0001029632
 Iter   4:  RMS(Cart)=    0.0000088470 RMS(Int)=    0.0000107421
 Iter   5:  RMS(Cart)=    0.0000006985 RMS(Int)=    0.0000010631
 Iter   6:  RMS(Cart)=    0.0000001134 RMS(Int)=    0.0000001431
 Iter   7:  RMS(Cart)=    0.0000000074 RMS(Int)=    0.0000000108
done
Storing new coordinates                 .... done

                                .--------------------.
          ----------------------|Geometry convergence|-------------------------
          Item                value                   Tolerance       Converged
          ---------------------------------------------------------------------
          RMS gradient        0.0204883710            0.0000300000      NO
          MAX gradient        0.0394741877            0.0001000000      NO
          RMS step            0.1133893419            0.0006000000      NO
          MAX step            0.2444020228            0.0010000000      NO
          ........................................................
          Max(Bonds)      0.0068      Max(Angles)    6.18
          Max(Dihed)        0.00      Max(Improp)   14.00
          ---------------------------------------------------------------------

The optimization has not yet converged - more geometry cycles are needed


    ---------------------------------------------------------------------------
                         Redundant Internal Coordinates
                            (Angstroem and degrees)

        Definition                    Value    dE/dq     Step     New-Value
    ----------------------------------------------------------------------------
     1. B(H   1,Al  0)                1.5800 -0.005845  0.0068    1.5868   
     2. B(H   2,Al  0)                1.5800 -0.005845  0.0068    1.5868   
     3. B(H   3,Al  0)                1.5800 -0.005846  0.0068    1.5868   
     4. A(H   1,Al  0,H   3)          109.47 -0.011842    5.46    114.93   
     5. A(H   2,Al  0,H   3)          109.47 -0.031579    6.18    115.65   
     6. A(H   1,Al  0,H   2)          109.47 -0.011843    5.46    114.93   
     7. I(H   1,H   3,H   2,Al  0)     54.74  0.039474  -14.00     40.73   
    ----------------------------------------------------------------------------

         *************************************************************
         *                GEOMETRY OPTIMIZATION CYCLE   2            *
         *************************************************************
---------------------------------
CARTESIAN COORDINATES (ANGSTROEM)
---------------------------------
  Al    -0.311473    1.607267   -0.169077
  H     -1.828228    1.211283   -0.415358
  H      0.291450    1.058079    1.192127
  H      0.620712    1.434961   -1.441611

----------------------------
CARTESIAN COORDINATES (A.U.)
----------------------------
  NO LB      ZA    FRAG     MASS         X           Y           Z
   0 Al   13.0000    0    26.982   -0.588599    3.037295   -0.319510
   1 H     1.0000    0     1.008   -3.454851    2.288993   -0.784913
   2 H     1.0000    0     1.008    0.550760    1.999479    2.252793
   3 H     1.0000    0     1.008    1.172975    2.711683   -2.724251

--------------------------------
INTERNAL COORDINATES (ANGSTROEM)
--------------------------------
 Al     0   0   0     0.000000000000     0.00000000     0.00000000
 H      1   0   0     1.586821648223     0.00000000     0.00000000
 H      1   2   0     1.586820990925   114.20169915     0.00000000
 H      1   2   3     1.586821104897   114.20195101   135.67812025

---------------------------
INTERNAL COORDINATES (A.U.)
---------------------------
 Al     0   0   0     0.000000000000     0.00000000     0.00000000
 H      1   0   0     2.998658338519     0.00000000     0.00000000
 H      1   2   0     2.998657096406   114.20169915     0.00000000
 H      1   2   3     2.998657311782   114.20195101   135.67812025

------------------------------------------------------------------------------
                   ___                                                        
                  /   \      - P O W E R E D   B Y -                         
                 /     \                                                     
                 |  |  |   _    _      __       _____    __    __             
                 |  |  |  | |  | |    /  \     |  _  \  |  |  /  |          
                  \  \/   | |  | |   /    \    | | | |  |  | /  /          
                 / \  \   | |__| |  /  /\  \   | |_| |  |  |/  /          
                |  |  |   |  __  | /  /__\  \  |    /   |      \           
                |  |  |   | |  | | |   __   |  |    \   |  |\   \          
                \     /   | |  | | |  |  |  |  | |\  \  |  | \   \       
                 \___/    |_|  |_| |__|  |__|  |_| \__\ |__|  \__/        
                                                                              
                      - O R C A' S   B I G   F R I E N D -                    
                                      &                                       
                       - I N T E G R A L  F E E D E R -                       
                                                                              
 v1 FN, 2020, v2 2021                                                         
------------------------------------------------------------------------------


Reading SHARK input file run.SHARKINP.tmp ... ok
----------------------
SHARK INTEGRAL PACKAGE
----------------------

Number of atoms                             ...      4
Number of basis functions                   ...    166
Number of shells                            ...     54
Maximum angular momentum                    ...      4
Integral batch strategy                     ... SHARK/LIBINT Hybrid
RI-J (if used) integral strategy            ... SPLIT-RIJ (Revised 2003 algorithm where possible)
Printlevel                                  ...      1
Contraction scheme used                     ... SEGMENTED contraction
Coulomb Range Separation                    ... NOT USED
Exchange Range Separation                   ... NOT USED
Finite Nucleus Model                        ... NOT USED
Auxiliary Coulomb fitting basis             ... AVAILABLE
   # of basis functions in Aux-J            ...    715
   # of shells in Aux-J                     ...    179
   Maximum angular momentum in Aux-J        ...      5
Auxiliary J/K fitting basis                 ... AVAILABLE
   # of basis functions in Aux-JK           ...    715
   # of shells in Aux-JK                    ...    179
   Maximum angular momentum in Aux-JK       ...      5
Auxiliary Correlation fitting basis         ... AVAILABLE
   # of basis functions in Aux-C            ...    715
   # of shells in Aux-C                     ...    179
   Maximum angular momentum in Aux-C        ...      5
Auxiliary 'external' fitting basis          ... NOT available
Integral threshold                          ...     2.500000e-11
Primitive cut-off                           ...     2.500000e-12
Primitive pair pre-selection threshold      ...     2.500000e-12

Calculating pre-screening integrals         ... done (  0.2 sec) Dimension = 54
Organizing shell pair data                  ... done (  0.1 sec)
Shell pair information
Total number of shell pairs                 ...      1485
Shell pairs after pre-screening             ...      1455
Total number of primitive shell pairs       ...      6474
Primitive shell pairs kept                  ...      5658
          la=0 lb=0:    228 shell pairs
          la=1 lb=0:    351 shell pairs
          la=1 lb=1:    144 shell pairs
          la=2 lb=0:    210 shell pairs
          la=2 lb=1:    164 shell pairs
          la=2 lb=2:     55 shell pairs
          la=3 lb=0:    105 shell pairs
          la=3 lb=1:     79 shell pairs
          la=3 lb=2:     50 shell pairs
          la=3 lb=3:     15 shell pairs
          la=4 lb=0:     21 shell pairs
          la=4 lb=1:     17 shell pairs
          la=4 lb=2:     10 shell pairs
          la=4 lb=3:      5 shell pairs
          la=4 lb=4:      1 shell pairs

Calculating one electron integrals          ... done (  0.0 sec)
Calculating RI/J V-Matrix + Cholesky decomp.... done (  0.0 sec)
Calculating RI/JK V-Matrix + Cholesky decomp... done (  0.0 sec)
Calculating RI/C V-Matrix + Cholesky decomp.... done (  0.0 sec)
Calculating Nuclear repulsion               ... done (  0.0 sec) ENN=     13.600388974569 Eh

SHARK setup successfully completed in   0.9 seconds

Maximum memory used throughout the entire GTOINT-calculation: 52.5 MB

Diagonalization of the overlap matrix:
Smallest eigenvalue                        ... 5.517e-04
Time for diagonalization                   ...    0.010 sec
Threshold for overlap eigenvalues          ... 1.000e-08
Number of eigenvalues below threshold      ... 0
Time for construction of square roots      ...    0.003 sec
Total time needed                          ...    0.014 sec

-------------------
DFT GRID GENERATION
-------------------

General Integration Accuracy     IntAcc      ... 4.959
Radial Grid Type                 RadialGrid  ... OptM3 with GC (2021)
Angular Grid (max. ang.)         AngularGrid ... 6 (Lebedev-590)
Angular grid pruning method      GridPruning ... 4 (adaptive)
Weight generation scheme         WeightScheme... Becke
Basis function cutoff            BFCut       ... 1.0000e-11
Integration weight cutoff        WCut        ... 1.0000e-14
Angular grids for H and He will be reduced by one unit
Partially contracted basis set               ... off
Rotationally invariant grid construction     ... off

Total number of grid points                  ...    46351
Total number of batches                      ...      726
Average number of points per batch           ...       63
Average number of grid points per atom       ...    11588
Time for grid setup =    1.056 sec

--------------
SCF ITERATIONS
--------------
ITER       Energy         Delta-E        Max-DP      RMS-DP      [F,P]     Damp
               ***  Starting incremental Fock matrix formation  ***
  0   -244.0471973588   0.000000000000 0.00243192  0.00003045  0.0087813 0.7000
                      *** Initiating the SOSCF procedure ***
                      *** Re-Reading the Fockian *** 
                      *** Removing any level shift *** 
ITER      Energy       Delta-E        Grad      Rot      Max-DP    RMS-DP
  1   -244.04728926  -0.0000918991  0.000636  0.000636  0.007505  0.000094
               *** Restarting incremental Fock matrix formation ***
  2   -244.04751203  -0.0002227730  0.000497  0.001192  0.000739  0.000020
  3   -244.04751462  -0.0000025897  0.000345  0.000789  0.000385  0.000006
  4   -244.04751586  -0.0000012406  0.000039  0.000106  0.000106  0.000002
  5   -244.04751589  -0.0000000248  0.000016  0.000027  0.000042  0.000001
  6   -244.04751589  -0.0000000005  0.000003  0.000006  0.000004  0.000000
                 **** Energy Check signals convergence ****
              ***Rediagonalizing the Fockian in SOSCF/NRSCF***

               *****************************************************
               *                     SUCCESS                       *
               *           SCF CONVERGED AFTER   7 CYCLES          *
               *****************************************************

Total Energy       :         -244.04751588 Eh           -6640.87052 eV
  Last Energy change         ...    3.2118e-09  Tolerance :   1.0000e-08
  Last MAX-Density change    ...    4.7568e-06  Tolerance :   1.0000e-07
             **** THE GBW FILE WAS UPDATED (run.gbw) ****
             **** DENSITY run.scfp WAS UPDATED ****
             **** ENERGY FILE WAS UPDATED (run.en.tmp) ****
             **** THE GBW FILE WAS UPDATED (run.gbw) ****
             **** DENSITY run.scfp WAS UPDATED ****
Total SCF time: 0 days 0 hours 0 min 16 sec 

Maximum memory used throughout the entire SCF-calculation: 66.7 MB


-------------------------------------------------------------------------------
                          DFT DISPERSION CORRECTION                            
                                                                               
                              DFTD3 V3.1  Rev 1                                
                          USING Becke-Johnson damping                          
-------------------------------------------------------------------------------
-------------------------   ----------------
Dispersion correction           -0.001091122
-------------------------   ----------------


-------------------------   --------------------
FINAL SINGLE POINT ENERGY      -244.048607005488
-------------------------   --------------------

------------------------------------------------------------------------------
                         ORCA SCF GRADIENT CALCULATION
------------------------------------------------------------------------------

Gradient of the Kohn-Sham DFT energy:
Kohn-Sham wavefunction type      ... RKS
Hartree-Fock exchange scaling    ...    0.000
Number of operators              ...    1
Number of atoms                  ...    4
Basis set dimensions             ...  166
Integral neglect threshold       ... 2.5e-11
Integral primitive cutoff        ... 2.5e-12
SHARK Integral package           ... ON

Nuc. rep. gradient       (SHARK) ... done (  0.0 sec)
HCore & Overlap gradient (SHARK) ... done (  0.1 sec)
RI-J gradient            (SHARK) ... done (  4.4 sec)
Exchange-correlation gradient    ... done
Dispersion correction            ... done

------------------
CARTESIAN GRADIENT
------------------

   1   Al  :   -0.000452097    0.031892783    0.004507247
   2   H   :    0.005925058   -0.010553865   -0.000769345
   3   H   :   -0.002178632   -0.010030918   -0.006331802
   4   H   :   -0.003294329   -0.011308000    0.002593900

Difference to translation invariance:
           :    0.0000000000   -0.0000000000    0.0000000000

Difference to rotation invariance:
           :    0.0000002924    0.0000000779    0.0000013649

Norm of the cartesian gradient     ...    0.0384143310
RMS gradient                       ...    0.0110892622
MAX gradient                       ...    0.0318927833

-------
TIMINGS
-------

Total SCF gradient time            ...       10.038 sec

One electron gradient       ....       0.132 sec  (  1.3%)
RI-J Coulomb gradient       ....       4.394 sec  ( 43.8%)
XC gradient                 ....       5.261 sec  ( 52.4%)

Maximum memory used throughout the entire SCFGRAD-calculation: 82.1 MB
------------------------------------------------------------------------------
                         ORCA GEOMETRY RELAXATION STEP
------------------------------------------------------------------------------

Reading the OPT-File                    .... done
Getting information on internals        .... done
Copying old internal coords+grads       .... done
Making the new internal coordinates     .... (new redundants).... done
Validating the new internal coordinates .... (new redundants).... done
Calculating the B-matrix                .... done
Calculating the G,G- and P matrices     .... done
Transforming gradient to internals      .... done
Projecting the internal gradient        .... done
Number of atoms                         ....   4
Number of internal coordinates          ....   7
Current Energy                          ....  -244.048607005 Eh
Current gradient norm                   ....     0.038414331 Eh/bohr
Maximum allowed component of the step   ....  0.300
Current trust radius                    ....  0.300
Updating the Hessian (BFGS)             .... done
Forming the augmented Hessian           .... done
Diagonalizing the augmented Hessian     .... done
Last element of RFO vector              ....  0.891894037
Lowest eigenvalues of augmented Hessian:
 -0.017839337  0.068315424  0.378956696  0.389918993  0.416240527
Length of the computed step             ....  0.507060719
Warning: the length of the step is outside the trust region - taking restricted step instead
The input lambda is                     ....    -0.017839
   iter:   1  x=   -0.040171  g=    7.483114 f(x)=     0.167111
   iter:   2  x=   -0.057757  g=    3.213586 f(x)=     0.056514
   iter:   3  x=   -0.064625  g=    1.891322 f(x)=     0.012990
   iter:   4  x=   -0.065347  g=    1.573523 f(x)=     0.001136
   iter:   5  x=   -0.065354  g=    1.544379 f(x)=     0.000011
   iter:   6  x=   -0.065354  g=    1.544106 f(x)=     0.000000
   iter:   7  x=   -0.065354  g=    1.544106 f(x)=    -0.000000
The output lambda is                    ....    -0.065354 (7 iterations)
The final length of the internal step   ....  0.300000000
Converting the step to cartesian space:
 Initial RMS(Int)=    0.1133893419
Transforming coordinates:
 Iter   0:  RMS(Cart)=    0.0829210426 RMS(Int)=    0.1134759540
 Iter   1:  RMS(Cart)=    0.0071570877 RMS(Int)=    0.0096734876
 Iter   2:  RMS(Cart)=    0.0005712308 RMS(Int)=    0.0007456060
 Iter   3:  RMS(Cart)=    0.0000804995 RMS(Int)=    0.0001116571
 Iter   4:  RMS(Cart)=    0.0000079396 RMS(Int)=    0.0000100847
 Iter   5:  RMS(Cart)=    0.0000008934 RMS(Int)=    0.0000012742
 Iter   6:  RMS(Cart)=    0.0000001067 RMS(Int)=    0.0000001346
 Iter   7:  RMS(Cart)=    0.0000000097 RMS(Int)=    0.0000000142
done
Storing new coordinates                 .... done

                                .--------------------.
          ----------------------|Geometry convergence|-------------------------
          Item                value                   Tolerance       Converged
          ---------------------------------------------------------------------
          Energy change      -0.0131697133            0.0000010000      NO
          RMS gradient        0.0137107991            0.0000300000      NO
          MAX gradient        0.0308990060            0.0001000000      NO
          RMS step            0.1133893419            0.0006000000      NO
          MAX step            0.2573660129            0.0010000000      NO
          ........................................................
          Max(Bonds)      0.0060      Max(Angles)    5.56
          Max(Dihed)        0.00      Max(Improp)   14.75
          ---------------------------------------------------------------------

The optimization has not yet converged - more geometry cycles are needed


    ---------------------------------------------------------------------------
                         Redundant Internal Coordinates
                            (Angstroem and degrees)

        Definition                    Value    dE/dq     Step     New-Value
    ----------------------------------------------------------------------------
     1. B(H   1,Al  0)                1.5868 -0.002910  0.0060    1.5928   
     2. B(H   2,Al  0)                1.5868 -0.002788  0.0057    1.5925   
     3. B(H   3,Al  0)                1.5868 -0.002787  0.0057    1.5925   
     4. A(H   1,Al  0,H   3)          114.20 -0.005838    4.79    118.99   
     5. A(H   2,Al  0,H   3)          115.29 -0.016400    5.56    120.85   
     6. A(H   1,Al  0,H   2)          114.20 -0.005838    4.79    118.99   
     7. I(H   1,H   3,H   2,Al  0)     40.01  0.030899  -14.75     25.26   
    ----------------------------------------------------------------------------

         *************************************************************
         *                GEOMETRY OPTIMIZATION CYCLE   3            *
         *************************************************************
---------------------------------
CARTESIAN COORDINATES (ANGSTROEM)
---------------------------------
  Al    -0.302742    1.492113   -0.184464
  H     -1.859902    1.248109   -0.414049
  H      0.298448    1.092123    1.234945
  H      0.636655    1.479245   -1.470352

----------------------------
CARTESIAN COORDINATES (A.U.)
----------------------------
  NO LB      ZA    FRAG     MASS         X           Y           Z
   0 Al   13.0000    0    26.982   -0.572099    2.819685   -0.348586
   1 H     1.0000    0     1.008   -3.514705    2.358583   -0.782439
   2 H     1.0000    0     1.008    0.563986    2.063814    2.333708
   3 H     1.0000    0     1.008    1.203104    2.795368   -2.778563

--------------------------------
INTERNAL COORDINATES (ANGSTROEM)
--------------------------------
 Al     0   0   0     0.000000000000     0.00000000     0.00000000
 H      1   0   0     1.592795075209     0.00000000     0.00000000
 H      1   2   0     1.592527057643   117.32615049     0.00000000
 H      1   2   3     1.592526748787   117.32629548   153.39508989

---------------------------
INTERNAL COORDINATES (A.U.)
---------------------------
 Al     0   0   0     0.000000000000     0.00000000     0.00000000
 H      1   0   0     3.009946479604     0.00000000     0.00000000
 H      1   2   0     3.009439999805   117.32615049     0.00000000
 H      1   2   3     3.009439416152   117.32629548   153.39508989

------------------------------------------------------------------------------
                   ___                                                        
                  /   \      - P O W E R E D   B Y -                         
                 /     \                                                     
                 |  |  |   _    _      __       _____    __    __             
                 |  |  |  | |  | |    /  \     |  _  \  |  |  /  |          
                  \  \/   | |  | |   /    \    | | | |  |  | /  /          
                 / \  \   | |__| |  /  /\  \   | |_| |  |  |/  /          
                |  |  |   |  __  | /  /__\  \  |    /   |      \           
                |  |  |   | |  | | |   __   |  |    \   |  |\   \          
                \     /   | |  | | |  |  |  |  | |\  \  |  | \   \       
                 \___/    |_|  |_| |__|  |__|  |_| \__\ |__|  \__/        
                                                                              
                      - O R C A' S   B I G   F R I E N D -                    
                                      &                                       
                       - I N T E G R A L  F E E D E R -                       
                                                                              
 v1 FN, 2020, v2 2021                                                         
------------------------------------------------------------------------------


Reading SHARK input file run.SHARKINP.tmp ... ok
----------------------
SHARK INTEGRAL PACKAGE
----------------------

Number of atoms                             ...      4
Number of basis functions                   ...    166
Number of shells                            ...     54
Maximum angular momentum                    ...      4
Integral batch strategy                     ... SHARK/LIBINT Hybrid
RI-J (if used) integral strategy            ... SPLIT-RIJ (Revised 2003 algorithm where possible)
Printlevel                                  ...      1
Contraction scheme used                     ... SEGMENTED contraction
Coulomb Range Separation                    ... NOT USED
Exchange Range Separation                   ... NOT USED
Finite Nucleus Model                        ... NOT USED
Auxiliary Coulomb fitting basis             ... AVAILABLE
   # of basis functions in Aux-J            ...    715
   # of shells in Aux-J                     ...    179
   Maximum angular momentum in Aux-J        ...      5
Auxiliary J/K fitting basis                 ... AVAILABLE
   # of basis functions in Aux-JK           ...    715
   # of shells in Aux-JK                    ...    179
   Maximum angular momentum in Aux-JK       ...      5
Auxiliary Correlation fitting basis         ... AVAILABLE
   # of basis functions in Aux-C            ...    715
   # of shells in Aux-C                     ...    179
   Maximum angular momentum in Aux-C        ...      5
Auxiliary 'external' fitting basis          ... NOT available
Integral threshold                          ...     2.500000e-11
Primitive cut-off                           ...     2.500000e-12
Primitive pair pre-selection threshold      ...     2.500000e-12

Calculating pre-screening integrals         ... done (  0.2 sec) Dimension = 54
Organizing shell pair data                  ... done (  0.1 sec)
Shell pair information
Total number of shell pairs                 ...      1485
Shell pairs after pre-screening             ...      1454
Total number of primitive shell pairs       ...      6474
Primitive shell pairs kept                  ...      5657
          la=0 lb=0:    228 shell pairs
          la=1 lb=0:    350 shell pairs
          la=1 lb=1:    144 shell pairs
          la=2 lb=0:    210 shell pairs
          la=2 lb=1:    164 shell pairs
          la=2 lb=2:     55 shell pairs
          la=3 lb=0:    105 shell pairs
          la=3 lb=1:     79 shell pairs
          la=3 lb=2:     50 shell pairs
          la=3 lb=3:     15 shell pairs
          la=4 lb=0:     21 shell pairs
          la=4 lb=1:     17 shell pairs
          la=4 lb=2:     10 shell pairs
          la=4 lb=3:      5 shell pairs
          la=4 lb=4:      1 shell pairs

Calculating one electron integrals          ... done (  0.0 sec)
Calculating RI/J V-Matrix + Cholesky decomp.... done (  0.0 sec)
Calculating RI/JK V-Matrix + Cholesky decomp... done (  0.0 sec)
Calculating RI/C V-Matrix + Cholesky decomp.... done (  0.0 sec)
Calculating Nuclear repulsion               ... done (  0.0 sec) ENN=     13.539671333120 Eh

SHARK setup successfully completed in   0.9 seconds

Maximum memory used throughout the entire GTOINT-calculation: 52.5 MB

Diagonalization of the overlap matrix:
Smallest eigenvalue                        ... 5.675e-04
Time for diagonalization                   ...    0.010 sec
Threshold for overlap eigenvalues          ... 1.000e-08
Number of eigenvalues below threshold      ... 0
Time for construction of square roots      ...    0.003 sec
Total time needed                          ...    0.014 sec

-------------------
DFT GRID GENERATION
-------------------

General Integration Accuracy     IntAcc      ... 4.959
Radial Grid Type                 RadialGrid  ... OptM3 with GC (2021)
Angular Grid (max. ang.)         AngularGrid ... 6 (Lebedev-590)
Angular grid pruning method      GridPruning ... 4 (adaptive)
Weight generation scheme         WeightScheme... Becke
Basis function cutoff            BFCut       ... 1.0000e-11
Integration weight cutoff        WCut        ... 1.0000e-14
Angular grids for H and He will be reduced by one unit
Partially contracted basis set               ... off
Rotationally invariant grid construction     ... off

Total number of grid points                  ...    46340
Total number of batches                      ...      727
Average number of points per batch           ...       63
Average number of grid points per atom       ...    11585
Time for grid setup =    1.053 sec

--------------
SCF ITERATIONS
--------------
ITER       Energy         Delta-E        Max-DP      RMS-DP      [F,P]     Damp
               ***  Starting incremental Fock matrix formation  ***
  0   -244.0555462362   0.000000000000 0.00182339  0.00002564  0.0093230 0.7000
                      *** Initiating the SOSCF procedure ***
                      *** Re-Reading the Fockian *** 
                      *** Removing any level shift *** 
ITER      Energy       Delta-E        Grad      Rot      Max-DP    RMS-DP
  1   -244.05563153  -0.0000852893  0.000719  0.000719  0.005610  0.000078
               *** Restarting incremental Fock matrix formation ***
  2   -244.05583869  -0.0002071646  0.000468  0.001107  0.000712  0.000015
  3   -244.05584085  -0.0000021574  0.000272  0.000648  0.000196  0.000004
  4   -244.05584164  -0.0000007882  0.000037  0.000110  0.000064  0.000001
  5   -244.05584165  -0.0000000170  0.000008  0.000017  0.000024  0.000000
  6   -244.05584165   0.0000000020  0.000003  0.000005  0.000006  0.000000
                 **** Energy Check signals convergence ****
              ***Rediagonalizing the Fockian in SOSCF/NRSCF***

               *****************************************************
               *                     SUCCESS                       *
               *           SCF CONVERGED AFTER   7 CYCLES          *
               *****************************************************

Total Energy       :         -244.05584165 Eh           -6641.09708 eV
  Last Energy change         ...    5.1182e-10  Tolerance :   1.0000e-08
  Last MAX-Density change    ...    1.0255e-05  Tolerance :   1.0000e-07
             **** THE GBW FILE WAS UPDATED (run.gbw) ****
             **** DENSITY run.scfp WAS UPDATED ****
             **** ENERGY FILE WAS UPDATED (run.en.tmp) ****
             **** THE GBW FILE WAS UPDATED (run.gbw) ****
             **** DENSITY run.scfp WAS UPDATED ****
Total SCF time: 0 days 0 hours 0 min 16 sec 

Maximum memory used throughout the entire SCF-calculation: 66.7 MB


-------------------------------------------------------------------------------
                          DFT DISPERSION CORRECTION                            
                                                                               
                              DFTD3 V3.1  Rev 1                                
                          USING Becke-Johnson damping                          
-------------------------------------------------------------------------------
-------------------------   ----------------
Dispersion correction           -0.001083636
-------------------------   ----------------


-------------------------   --------------------
FINAL SINGLE POINT ENERGY      -244.056925285901
-------------------------   --------------------

------------------------------------------------------------------------------
                         ORCA SCF GRADIENT CALCULATION
------------------------------------------------------------------------------

Gradient of the Kohn-Sham DFT energy:
Kohn-Sham wavefunction type      ... RKS
Hartree-Fock exchange scaling    ...    0.000
Number of operators              ...    1
Number of atoms                  ...    4
Basis set dimensions             ...  166
Integral neglect threshold       ... 2.5e-11
Integral primitive cutoff        ... 2.5e-12
SHARK Integral package           ... ON

Nuc. rep. gradient       (SHARK) ... done (  0.0 sec)
HCore & Overlap gradient (SHARK) ... done (  0.1 sec)
RI-J gradient            (SHARK) ... done (  4.4 sec)
Exchange-correlation gradient    ... done
Dispersion correction            ... done

------------------
CARTESIAN GRADIENT
------------------

   1   Al  :    0.000712258    0.019456237    0.002872912
   2   H   :    0.001797237   -0.006473235   -0.000701556
   3   H   :   -0.001156970   -0.006379720   -0.001866747
   4   H   :   -0.001352525   -0.006603282   -0.000304609

Difference to translation invariance:
           :    0.0000000000   -0.0000000000    0.0000000000

Difference to rotation invariance:
           :   -0.0000000605    0.0000006537   -0.0000005801

Norm of the cartesian gradient     ...    0.0228906250
RMS gradient                       ...    0.0066079543
MAX gradient                       ...    0.0194562373

-------
TIMINGS
-------

Total SCF gradient time            ...        9.939 sec

One electron gradient       ....       0.132 sec  (  1.3%)
RI-J Coulomb gradient       ....       4.380 sec  ( 44.1%)
XC gradient                 ....       5.177 sec  ( 52.1%)

Maximum memory used throughout the entire SCFGRAD-calculation: 82.1 MB
------------------------------------------------------------------------------
                         ORCA GEOMETRY RELAXATION STEP
------------------------------------------------------------------------------

Reading the OPT-File                    .... done
Getting information on internals        .... done
Copying old internal coords+grads       .... done
Making the new internal coordinates     .... (new redundants).... done
Validating the new internal coordinates .... (new redundants).... done
Calculating the B-matrix                .... done
Calculating the G,G- and P matrices     .... done
Transforming gradient to internals      .... done
Projecting the internal gradient        .... done
Number of atoms                         ....   4
Number of internal coordinates          ....   7
Current Energy                          ....  -244.056925286 Eh
Current gradient norm                   ....     0.022890625 Eh/bohr
Maximum allowed component of the step   ....  0.300
Current trust radius                    ....  0.300
Updating the Hessian (BFGS)             .... done
[...]
 130   0.0000       8.907467       242.3845 
 131   0.0000       9.145191       248.8533 
 132   0.0000       9.145202       248.8536 
 133   0.0000       9.146994       248.9024 
 134   0.0000       9.156072       249.1494 
 135   0.0000       9.160355       249.2659 
 136   0.0000       9.160374       249.2665 
 137   0.0000       9.200840       250.3676 
 138   0.0000       9.200845       250.3677 
 139   0.0000       9.217445       250.8194 
 140   0.0000       9.217445       250.8194 
 141   0.0000       9.295101       252.9325 
 142   0.0000       9.366073       254.8638 
 143   0.0000       9.575237       260.5555 
 144   0.0000       9.595652       261.1110 
 145   0.0000       9.595657       261.1111 
 146   0.0000       9.666312       263.0337 
 147   0.0000       9.844856       267.8922 
 148   0.0000       9.844876       267.8927 
 149   0.0000       9.855849       268.1913 
 150   0.0000       9.855858       268.1915 
 151   0.0000      11.739677       319.4528 
 152   0.0000      13.354362       363.3907 
 153   0.0000      13.354364       363.3907 
 154   0.0000      13.782515       375.0413 
 155   0.0000      13.782523       375.0415 
 156   0.0000      13.853958       376.9854 
 157   0.0000      19.046647       518.2856 
 158   0.0000      19.046673       518.2863 
 159   0.0000      19.077527       519.1259 
 160   0.0000      19.078364       519.1487 
 161   0.0000      19.078379       519.1491 
 162   0.0000      19.213836       522.8351 
 163   0.0000      19.476443       529.9810 
 164   0.0000      19.476455       529.9813 
 165   0.0000      19.541993       531.7647 
-------
TIMINGS
-------

Total SCF time: 0 days 0 hours 0 min 5 sec 

Total time                  ....       5.175 sec
Sum of individual times     ....       4.866 sec  ( 94.0%)

Fock matrix formation       ....       3.770 sec  ( 72.9%)
  Split-RI-J                ....       1.510 sec  ( 40.0% of F)
  XC integration            ....       2.323 sec  ( 61.6% of F)
    Basis function eval.    ....       0.760 sec  ( 32.7% of XC)
    Density eval.           ....       0.592 sec  ( 25.5% of XC)
    XC-Functional eval.     ....       0.172 sec  (  7.4% of XC)
    XC-Potential eval.      ....       0.662 sec  ( 28.5% of XC)
Diagonalization             ....       0.013 sec  (  0.2%)
Density matrix formation    ....       0.001 sec  (  0.0%)
Population analysis         ....       0.000 sec  (  0.0%)
Initial guess               ....       0.012 sec  (  0.2%)
Orbital Transformation      ....       0.000 sec  (  0.0%)
Orbital Orthonormalization  ....       0.009 sec  (  0.2%)
DIIS solution               ....       0.003 sec  (  0.1%)
SOSCF solution              ....       0.007 sec  (  0.1%)
Grid generation             ....       1.060 sec  ( 20.5%)

Maximum memory used throughout the entire SCF-calculation: 66.7 MB


-------------------------------------------------------------------------------
                          DFT DISPERSION CORRECTION                            
                                                                               
                              DFTD3 V3.1  Rev 1                                
                          USING Becke-Johnson damping                          
-------------------------------------------------------------------------------
The PBE functional is recognized
Active option DFTDOPT                   ...         4   

molecular C6(AA) [au] = 312.361136 


            DFT-D V3
 parameters
 s6 scaling factor         :     1.0000 
 a1 scaling factor         :     0.4289 
 s8 scaling factor         :     0.7875 
 a2 scaling factor         :     4.4407 
 ad hoc parameters k1-k3   :    16.0000     1.3333    -4.0000 

 Edisp/kcal,au: -0.677721384423  -0.001080017657 
 E6   /kcal   :  -0.450466833 
 E8   /kcal   :  -0.227254552 
 % E8         :  33.532150099 

-------------------------   ----------------
Dispersion correction           -0.001080018
-------------------------   ----------------


-------------------------   --------------------
FINAL SINGLE POINT ENERGY      -244.061149611879
-------------------------   --------------------

                                *** OPTIMIZATION RUN DONE ***

                            ***************************************
                            *     ORCA property calculations      *
                            ***************************************

                                    ---------------------
                                    Active property flags
                                    ---------------------
   (+) Dipole Moment


------------------------------------------------------------------------------
                       ORCA ELECTRIC PROPERTIES CALCULATION
------------------------------------------------------------------------------

Dipole Moment Calculation                       ... on
Quadrupole Moment Calculation                   ... off
Polarizability Calculation                      ... off
GBWName                                         ... run.gbw
Electron density                                ... run.scfp
The origin for moment calculation is the CENTER OF MASS  = (-0.579937,  2.509386 -0.393969)

-------------
DIPOLE MOMENT
-------------
                                X             Y             Z
Electronic contribution:     -0.00003       0.00008       0.00000
Nuclear contribution   :      0.00002      -0.00005      -0.00000
                        -----------------------------------------
Total Dipole Moment    :     -0.00001       0.00003       0.00000
                        -----------------------------------------
Magnitude (a.u.)       :      0.00004
Magnitude (Debye)      :      0.00009



--------------------
Rotational spectrum 
--------------------
 
Rotational constants in cm-1:     4.392455     4.392388     2.196211 
Rotational constants in MHz : 131682.479521 131680.468681 65840.737063 

 Dipole components along the rotational axes: 
x,y,z [a.u.] :    -0.000014     0.000003     0.000033 
x,y,z [Debye]:    -0.000035     0.000008     0.000083 

 

-------------------------------------------------------------------------------
                               ORCA SCF HESSIAN
-------------------------------------------------------------------------------

                   --------- SHARK INITIALIZATION DONE ---------

Hessian of the Kohn-Sham DFT energy:
Kohn-Sham wavefunction type                      ... RKS
Hartree-Fock exchange scaling                    ...    0.000
Number of operators                              ...    1
Number of atoms                                  ...    4
Basis set dimensions                             ...  166
Integral neglect threshold                       ... 2.5e-11
Integral primitive cutoff                        ... 2.5e-12

Setting up DFT Hessian calculations              ... 

HESS GRID
---------

General Integration Accuracy     IntAcc      ... 4.959
Radial Grid Type                 RadialGrid  ... OptM3 with GC (2021)
Angular Grid (max. ang.)         AngularGrid ... 7 (Lebedev-770)
Angular grid pruning method      GridPruning ... 4 (adaptive)
Weight generation scheme         WeightScheme... Becke
Basis function cutoff            BFCut       ... 1.0000e-11
Integration weight cutoff        WCut        ... 1.0000e-14
Angular grids for H and He will be reduced by one unit
Partially contracted basis set               ... off
Rotationally invariant grid construction     ... off

Total number of grid points                  ...    67211
Total number of batches                      ...     1052
Average number of points per batch           ...       63
Average number of grid points per atom       ...    16803

Building densities                               ... done   (      0.0 sec)
Calculating rho(r) on the grid                   ... done   (      1.3 sec)
Building xc-kernel on the grid                   ... done   (      0.3 sec)
                                                     done   (      3.7 sec)

Nuclear repulsion Hessian  (SHARK)               ... done   (      0.0 sec)

----------------------------------------------
Forming right-hand sides of CP-SCF equations     ...
----------------------------------------------
One electron integral derivatives  (SHARK)       ... done   (      0.2 sec)
Transforming the overlap derivative matrices     ... done   (      0.0 sec)
Making the Q(x) pseudodensities                  ... done   (      0.0 sec)
Adding the E*S(x)*S(y) terms to the Hessian      ... done   (      0.0 sec)
Calculating energy weighted overlap derivatives  ... done   (      0.0 sec)
Two electron integral derivatives (SHARK-RI)     ... done   (     10.3 sec)
Exchange-correlation integral derivatives        ... done   (     58.2 sec)
tr(F(y)Q(x)) contribution to the Hessian         ... done   (      0.0 sec)
Response fock operator R(S(x)) (SHARK-RI)        ... done   (      2.0 sec)
XC Response fock operator R(S(x))                ... done   (     12.3 sec)
tr(F(y)S(x)) contribution to the Hessian         ... done   (      0.0 sec)
Transforming and finalizing RHSs                 ... done   (      0.0 sec)

----------------------------------------------
Solving the CP-SCF equations (RI)                ...
----------------------------------------------
     CP-SCF ITERATION   0:   1.1138e-01 (   3.1 sec   0/ 12 done)
     CP-SCF ITERATION   1:   4.9947e-03 (   3.2 sec   0/ 12 done)
     CP-SCF ITERATION   2:   5.1434e-04 (   3.2 sec   0/ 12 done)
     CP-SCF ITERATION   3:   8.6496e-05 (   3.2 sec  12/ 12 done)
                    *** THE CP-SCF HAS CONVERGED ***

                                                 ... done   (     13.1 sec)
Forming perturbed density Hessian contributions  ... done   (      0.0 sec)
2nd integral derivative contribs (SHARK-RI)      ... done   (     26.0 sec)
Exchange-correlation Hessian                     ... done   (     32.7 sec)
Dispersion correction in the Hessian             ... done   (      1.7 sec)
Dipole derivatives                               ... (center of mass: -0.579937,  2.509386 -0.393969)done   (      0.3 sec)

Total SCF Hessian time: 0 days 0 hours 2 min 41 sec 

Writing the Hessian file to the disk             ... done


Maximum memory used throughout the entire SCFHESS-calculation: 200.0 MB

-----------------------
VIBRATIONAL FREQUENCIES
-----------------------

Scaling factor for frequencies =  1.000000000  (already applied!)

   0:         0.00 cm**-1
   1:         0.00 cm**-1
   2:         0.00 cm**-1
   3:         0.00 cm**-1
   4:         0.00 cm**-1
   5:         0.00 cm**-1
   6:       679.22 cm**-1
   7:       766.19 cm**-1
   8:       766.20 cm**-1
   9:      1873.65 cm**-1
  10:      1886.80 cm**-1
  11:      1886.81 cm**-1


------------
NORMAL MODES
------------

These modes are the Cartesian displacements weighted by the diagonal matrix
M(i,i)=1/sqrt(m[i]) where m[i] is the mass of the displaced atom
Thus, these vectors are normalized but *not* orthogonal

                  0          1          2          3          4          5    
      0       0.000000   0.000000   0.000000   0.000000   0.000000   0.000000
      1       0.000000   0.000000   0.000000   0.000000   0.000000   0.000000
      2       0.000000   0.000000   0.000000   0.000000   0.000000   0.000000
      3       0.000000   0.000000   0.000000   0.000000   0.000000   0.000000
      4       0.000000   0.000000   0.000000   0.000000   0.000000   0.000000
      5       0.000000   0.000000   0.000000   0.000000   0.000000   0.000000
      6       0.000000   0.000000   0.000000   0.000000   0.000000   0.000000
      7       0.000000   0.000000   0.000000   0.000000   0.000000   0.000000
      8       0.000000   0.000000   0.000000   0.000000   0.000000   0.000000
      9       0.000000   0.000000   0.000000   0.000000   0.000000   0.000000
     10       0.000000   0.000000   0.000000   0.000000   0.000000   0.000000
     11       0.000000   0.000000   0.000000   0.000000   0.000000   0.000000
                  6          7          8          9         10         11    
      0      -0.002204   0.001034   0.044048   0.000019   0.016709  -0.041616
      1       0.063921   0.006091   0.001349   0.000001   0.006290   0.000891
      2       0.008870  -0.043650   0.001231  -0.000007  -0.041166  -0.016756
      3       0.019661  -0.102438   0.018148   0.572308  -0.205290   0.782661
      4      -0.570352  -0.114057  -0.010963   0.009609  -0.001468   0.013669
      5      -0.079125   0.796539   0.083331   0.072916  -0.040439   0.095950
      6       0.019658  -0.318694  -0.679334  -0.224909   0.235042   0.214184
      7      -0.570339  -0.025439  -0.064281   0.065494  -0.064765  -0.066071
      8      -0.079166   0.104261   0.294383  -0.527713   0.524941   0.529207
      9       0.019687   0.393466  -0.517875  -0.347918  -0.477025   0.117123
     10      -0.570344  -0.023552   0.039139  -0.075133  -0.102127   0.028552
     11      -0.079136   0.267629  -0.410668   0.454981   0.617431  -0.176642


-----------
IR SPECTRUM
-----------

 Mode   freq       eps      Int      T**2         TX        TY        TZ
       cm**-1   L/(mol*cm) km/mol    a.u.
----------------------------------------------------------------------------
  6:    679.22   0.058863  297.47  0.027044  (-0.005602  0.162798  0.022580)
  7:    766.19   0.037921  191.63  0.015445  ( 0.002923  0.017175 -0.123050)
  8:    766.20   0.037920  191.63  0.015444  ( 0.124168  0.003802  0.003467)
  9:   1873.65   0.000000    0.00  0.000000  ( 0.000038  0.000004 -0.000014)
 10:   1886.80   0.048142  243.29  0.007962  ( 0.033228  0.012506 -0.081865)
 11:   1886.81   0.048142  243.29  0.007962  (-0.082759  0.001772 -0.033321)

* The epsilon (eps) is given for a Dirac delta lineshape.
** The dipole moment derivative (T) already includes vibrational overlap.

The first frequency considered to be a vibration is 6
The total number of vibrations considered is 6


--------------------------
THERMOCHEMISTRY AT 298.15K
--------------------------

Temperature         ... 298.15 K
Pressure            ... 1.00 atm
Total Mass          ... 30.01 AMU

Throughout the following assumptions are being made:
  (1) The electronic state is orbitally nondegenerate
  (2) There are no thermally accessible electronically excited states
  (3) Hindered rotations indicated by low frequency modes are not
      treated as such but are treated as vibrations and this may
      cause some error
  (4) All equations used are the standard statistical mechanics
      equations for an ideal gas
  (5) All vibrations are strictly harmonic

freq.     679.22  E(vib)   ...       0.08 
freq.     766.19  E(vib)   ...       0.06 
freq.     766.20  E(vib)   ...       0.06 
freq.    1873.65  E(vib)   ...       0.00 
freq.    1886.80  E(vib)   ...       0.00 
freq.    1886.81  E(vib)   ...       0.00 

------------
INNER ENERGY
------------

The inner energy is: U= E(el) + E(ZPE) + E(vib) + E(rot) + E(trans)
    E(el)   - is the total energy from the electronic structure calculation
              = E(kin-el) + E(nuc-el) + E(el-el) + E(nuc-nuc)
    E(ZPE)  - the the zero temperature vibrational energy from the frequency calculation
    E(vib)  - the the finite temperature correction to E(ZPE) due to population
              of excited vibrational states
    E(rot)  - is the rotational thermal energy
    E(trans)- is the translational thermal energy

Summary of contributions to the inner energy U:
Electronic energy                ...   -244.06114961 Eh
Zero point energy                ...      0.01790382 Eh      11.23 kcal/mol
Thermal vibrational correction   ...      0.00030171 Eh       0.19 kcal/mol
Thermal rotational correction    ...      0.00141627 Eh       0.89 kcal/mol
Thermal translational correction ...      0.00141627 Eh       0.89 kcal/mol
-----------------------------------------------------------------------
Total thermal energy                   -244.04011154 Eh


Summary of corrections to the electronic energy:
(perhaps to be used in another calculation)
Total thermal correction                  0.00313425 Eh       1.97 kcal/mol
Non-thermal (ZPE) correction              0.01790382 Eh      11.23 kcal/mol
-----------------------------------------------------------------------
Total correction                          0.02103807 Eh      13.20 kcal/mol


--------
ENTHALPY
--------

The enthalpy is H = U + kB*T
                kB is Boltzmann's constant
Total free energy                 ...   -244.04011154 Eh 
Thermal Enthalpy correction       ...      0.00094421 Eh       0.59 kcal/mol
-----------------------------------------------------------------------
Total Enthalpy                    ...   -244.03916733 Eh


Note: Rotational entropy computed according to Herzberg 
Infrared and Raman Spectra, Chapter V,1, Van Nostrand Reinhold, 1945 
Point Group:  D3h, Symmetry Number:   6  
Rotational constants in cm-1:     4.392455     4.392388     2.196211 

Vibrational entropy computed according to the QRRHO of S. Grimme
Chem.Eur.J. 2012 18 9955


-------
ENTROPY
-------

The entropy contributions are T*S = T*(S(el)+S(vib)+S(rot)+S(trans))
     S(el)   - electronic entropy
     S(vib)  - vibrational entropy
     S(rot)  - rotational entropy
     S(trans)- translational entropy
The entropies will be listed as multiplied by the temperature to get
units of energy

Electronic entropy                ...      0.00000000 Eh      0.00 kcal/mol
Vibrational entropy               ...      0.00038603 Eh      0.24 kcal/mol
Rotational entropy                ...      0.00605038 Eh      3.80 kcal/mol
Translational entropy             ...      0.01716637 Eh     10.77 kcal/mol
-----------------------------------------------------------------------
Final entropy term                ...      0.02360278 Eh     14.81 kcal/mol

In case the symmetry of your molecule has not been determined correctly
or in case you have a reason to use a different symmetry number we print 
out the resulting rotational entropy values for sn=1,12 :
 --------------------------------------------------------
|  sn= 1 | S(rot)=       0.00774213 Eh      4.86 kcal/mol|
|  sn= 2 | S(rot)=       0.00708767 Eh      4.45 kcal/mol|
|  sn= 3 | S(rot)=       0.00670484 Eh      4.21 kcal/mol|
|  sn= 4 | S(rot)=       0.00643321 Eh      4.04 kcal/mol|
|  sn= 5 | S(rot)=       0.00622253 Eh      3.90 kcal/mol|
|  sn= 6 | S(rot)=       0.00605038 Eh      3.80 kcal/mol|
|  sn= 7 | S(rot)=       0.00590483 Eh      3.71 kcal/mol|
|  sn= 8 | S(rot)=       0.00577876 Eh      3.63 kcal/mol|
|  sn= 9 | S(rot)=       0.00566755 Eh      3.56 kcal/mol|
|  sn=10 | S(rot)=       0.00556807 Eh      3.49 kcal/mol|
|  sn=11 | S(rot)=       0.00547808 Eh      3.44 kcal/mol|
|  sn=12 | S(rot)=       0.00539592 Eh      3.39 kcal/mol|
 --------------------------------------------------------


-------------------
GIBBS FREE ENERGY
-------------------

The Gibbs free energy is G = H - T*S

Total enthalpy                    ...   -244.03916733 Eh 
Total entropy correction          ...     -0.02360278 Eh    -14.81 kcal/mol
-----------------------------------------------------------------------
Final Gibbs free energy         ...   -244.06277011 Eh

For completeness - the Gibbs free energy minus the electronic energy
G-E(el)                           ...     -0.00162050 Eh     -1.02 kcal/mol


Timings for individual modules:

Sum of individual times         ...      444.709 sec (=   7.412 min)
GTO integral calculation        ...       16.097 sec (=   0.268 min)   3.6 %
SCF iterations                  ...      147.392 sec (=   2.457 min)  33.1 %
SCF Gradient evaluation         ...      113.716 sec (=   1.895 min)  25.6 %
Geometry relaxation             ...        3.801 sec (=   0.063 min)   0.9 %
Analytical frequency calculation...      163.703 sec (=   2.728 min)  36.8 %
                             ****ORCA TERMINATED NORMALLY****
TOTAL RUN TIME: 0 days 0 hours 7 minutes 33 seconds 407 msec
