
                                 *****************
                                 * O   R   C   A *
                                 *****************

                                            #,                                       
                                            ###                                      
                                            ####                                     
                                            #####                                    
                                            ######                                   
                                           ########,                                 
                                     ,,################,,,,,                         
                               ,,#################################,,                 
                          ,,##########################################,,             
                       ,#########################################, ''#####,          
                    ,#############################################,,   '####,        
                  ,##################################################,,,,####,       
                ,###########''''           ''''###############################       
              ,#####''   ,,,,##########,,,,          '''####'''          '####       
            ,##' ,,,,###########################,,,                        '##       
           ' ,,###''''                  '''############,,,                           
         ,,##''                                '''############,,,,        ,,,,,,###''
      ,#''                                            '''#######################'''  
     '                                                          ''''####''''         
             ,#######,   #######,   ,#######,      ##                                
            ,#'     '#,  ##    ##  ,#'     '#,    #''#        ,####,    ,#,          
            ##       ##  ##   ,#'  ##            #'  '#       #'       ,# #          
            ##       ##  #######   ##           ,######,      #####,      #          
            '#,     ,#'  ##    ##  '#,     ,#' ,#      #,     #,   #      #          
             '#######'   ##     ##  '#######'  #'      '#     '####' #    #          



                #########################################################
                #                        -***-                          #
                #          Department of theory and spectroscopy        #
                #                                                       #
                #                      Frank Neese                      #
                #                                                       #
                #     Directorship, Architecture, Infrastructure        #
                #                    SHARK, DRIVERS                     #
                #        Core code/Algorithms in most modules           #
                #                                                       #
                #        Max Planck Institute fuer Kohlenforschung      #
                #                Kaiser Wilhelm Platz 1                 #
                #                 D-45470 Muelheim/Ruhr                 #
                #                      Germany                          #
                #                                                       #
                #                  All rights reserved                  #
                #                        -***-                          #
                #########################################################


                         Program Version 6.1.0  -  RELEASE   -
                                (GIT: $679e74b$)
                          ($2025-06-10 18:02:51 +0200$)


 With contributions from (in alphabetic order):
[Max-Planck-Institut fuer Kohlenforschung]                               
  Daniel Aravena         : Magnetic Suceptibility                        
  Michael Atanasov       : Ab Initio Ligand Field Theory (pilot matlab implementation)
  Alexander A. Auer      : GIAO ZORA, VPT2 properties, NMR spectrum      
  Ute Becker             : All parallelization in ORCA, NUMFREQ, NUMCALC 
  Giovanni Bistoni       : ED, misc. LED, open-shell LED, HFLD           
  Dmytro Bykov           : pre 5.0 version of the SCF Hessian            
  Marcos Casanova-Páez   : Triplet and SCS-CIS(D). UHF-(DLPNO)-IP/EA/STEOM-CCSD. UHF-CVS-IP/STEOM-CCSD   
  Vijay G. Chilkuri      : MRCI spin determinant printing, contributions to CSF-ICE 
  Pauline Colinet        : FMM embedding                                 
  Dipayan Datta          : RHF DLPNO-CCSD density                        
  Achintya Kumar Dutta   : EOM-CC, STEOM-CC                              
  Nicolas Foglia         : Exact transition moments, OPA infrastructure, MCD improvements    
  Dmitry Ganyushin       : Spin-Orbit,Spin-Spin,Magnetic field MRCI      
  Miquel Garcia-Rates    : C-PCM and meta-GGA Hessian, CCSD/C-PCM, Gaussian charge scheme 
  Tiago L. C. Gouveia    : GS-ROHF, GS-ROCIS                             
  Yang Guo               : DLPNO-NEVPT2, F12-NEVPT2, CIM, IAO-localization        
  Andreas Hansen         : Spin unrestricted coupled pair/coupled cluster methods 
  Ingolf Harden          : AUTO-CI MPn and infrastructure                
  Benjamin Helmich-Paris : MC-RPA, TRAH-(SCF,CASSCF), AVAS, COSX integrals, SCF dyn. polar., MC-PDFT, srDFT 
  Lee Huntington         : MR-EOM, pCC                                   
  Robert Izsak           : Overlap fitted RIJCOSX, COSX-SCS-MP3, EOM     
  Riya Kayal             : Wick's Theorem for AUTO-CI, AUTO-CI UHF-CCSDT 
  Emily Kempfer          : AUTO-CI RHF CISDT and CCSDT, approximate NEVPT4
  Christian Kollmar      : KDIIS, OOCD, Brueckner-CCSD(T), CCSD density, CASPT2, CASPT2-K, improved NEVPT2 
  Axel Koslowski         : Symmetry handling                             
  Simone Kossmann        : meta-GGA functionals, TD-DFT gradient, OOMP2, (MP2 Hessian; deprecated post 5.0) 
  Lucas Lang             : DCDCAS, Hyperfine gauge corrections, ICE-SOC+SSC
  Marvin Lechner         : AUTO-CI (C++ implementation), FIC-MRCC        
  Spencer Leger          : CASSCF response                               
  Dagmar Lenk            : GEPOL surface, SMD, ORCA-2-JSON               
  Dimitrios Liakos       : Extrapolation schemes; Compound Job, Property file
  Dimitrios Manganas     : Further ROCIS development; embedding schemes. LFT, Crystal Embedding 
  Dimitrios Pantazis     : SARC Basis sets                               
  Anastasios Papadopoulos: AUTO-CI, single reference methods and gradients 
  Taras Petrenko         : pre 6.0 DFT Hessian and TD-DFT gradient,  ECA, NRVS 
  Petra Pikulova         : Analytic Raman intensities                    
  Peter Pinski           : DLPNO-MP2, DLPNO-MP2 Gradient                 
  Shashank Vittal Rao    : ES-AILFT, MagRelax                            
  Christoph Reimann      : Effective Core Potentials                     
  Marius Retegan         : Local ZFS, SOC                                
  Christoph Riplinger    : Optimizer, TS searches, QM/MM, DLPNO-CCSD(T), (RO)-DLPNO pert. Triples 
  Michael Roemelt        : Original ROCIS implementation, recursive CI coupling coefficients
  Masaaki Saitow         : Open-shell DLPNO-CCSD energy and density      
  Barbara Sandhoefer     : DKH picture change effects                    
  Yorick L. A. Schmerwitz: GMF and freeze-and-release deltaSCF, NEB S-IDPP initial path                    
  Kantharuban Sivalingam : CASSCF convergence/infrastructure, NEVPT2, NEVPT3, NEVPT4(SD), FIC-MRCI and CEPA variants
  Bernardo de Souza      : ESD, SOC TD-DFT                               
  Georgi L. Stoychev     : AutoAux, RI-MP2 NMR, DLPNO-MP2 response, X2C  
  Van Anh Tran           : RI-MP2 g-tensors                              
  Willem Van den Heuvel  : Paramagnetic NMR                              
  Zikuan Wang            : NOTCH, Electric field optimization            
  Frank Wennmohs         : Technical directorship and infrastructure     
  Hang Xu                : AUTO-CI-Response properties                   
                                                                         
[FACCTs GmbH]                                                            
  Markus Bursch, Nicolas Foglia, Miquel Garcia-Rates, Ingolf Harden, Hagen Neugebauer, Anastasios Papadopoulos, 
  Christoph Riplinger, Bernardo de Souza, Georgi L. Stoychev                                                    
                                                                 
  APM, various basis sets, CI-OPT, improved COSX, DLPNO-Multilevel,           
  DOCKER, DRACO, updates on ESD, Fragmentator, GOAT, IRC, LR-CPCM, L-BFGS, MBIS, meta-GGA TD-DFT gradient, ML-optimized integration grids, 
  MM, NACMEs, nearIR, NEB, NEB-TS, NL-DFT gradient (VV10), 2- and 3-layer-ONIOM, interface openCOSMO-RS, QMMM,   
  Crystal-QMMM, RESP, rigid body optimization, SF, symmetry and pop. for TD-DFT, various functionals, SOLVATOR                                   
                                                                         
[Other institutions]                                                     
  V. Asgeirsson          : NEB                                           
  Christoph Bannwarth    : sTDA-DFT, sTD-DFT, PBEh-3c, B97-3c, D3        
  Giovanni Bistoni       : ETS/NOCV, ADLD/ADEX, COVALED                  
  Martin Brehm           : Molecular dynamics                            
  Ronald Cardenas        : ETS/NOCV                                      
  Martina Colucci        : COVALED                                       
  Sebastian Ehlert       : rSCAN, r2SCAN, r2SCAN-3c, D4, dhf basis sets  
  Marvin Friede          : D4 for Fr, Ra, Ac-Lr                          
  Lars Goerigk           : TD-DFT with DH, B97 family of functionals     
  Stefan Grimme          : VdW corrections, initial TS optimization, DFT functionals, gCP, sTDA/sTD-DF 
  Waldemar Hujo          : DFT-NL                                        
  H. Jonsson             : NEB                                           
  Holger Kruse           : gCP                                           
  Marcel Mueller         : wB97X-3c, vDZP basis set                      
  Hagen Neugebauer       : wr2SCAN, Native XTB                           
  Gianluca Regni         : ADLD/ADEX                                     
  Tobias Risthaus        : pre 6.0 range-separated hybrid DFT and stability analysis
  Lukas Wittmann         : regularized MP2, r2SCAN double-hybrids, wr2SCAN        
                                                                         
We gratefully acknowledge several colleagues who have allowed us to      
interface, adapt or use parts of their codes:                            
  Ed Valeev, F. Pavosevic, A. Kumar             : LibInt (2-el integral package), F12 methods 
  Garnet Chan, S. Sharma, J. Yang, R. Olivares  : DMRG                   
  Ulf Ekstrom                                   : XCFun DFT Library      
  Mihaly Kallay                                 : mrcc  (arbitrary order and MRCC methods)
  Frank Weinhold                                : gennbo (NPA and NBO analysis)           
  Simon Mueller                                 : openCOSMO-RS                            
  Christopher J. Cramer and Donald G. Truhlar   : smd solvation model                     
  S Lehtola, MJT Oliveira, MAL Marques          : LibXC Library                           
  Liviu Ungur et al                             : ANISO software                          


 Your calculation uses the libint2 library for the computation of 2-el integrals
 For citations please refer to: http://libint.valeyev.net

 Your ORCA version has been built with support for libXC version: 7.0.0
 For citations please refer to: https://libxc.gitlab.io

 This ORCA versions uses:
   CBLAS   interface :  Fast vector & matrix operations
   LAPACKE interface :  Fast linear algebra routines
   SCALAPACK package :  Parallel linear algebra routines
   Shared memory     :  Shared parallel matrices
   BLAS/LAPACK       :  OpenBLAS 0.3.29  USE64BITINT DYNAMIC_ARCH NO_AFFINITY Bulldozer SINGLE_THREADED
        Core in use  :  Bulldozer
   Copyright (c) 2011-2014, The OpenBLAS Project


  ***********************************
  * Starting time: Wed Aug 13 01:33:18 2025
  * Host name:     chromium02
  * Process ID:    185352
  * Working dir.:  /local/scratch/mehlhorn/61843
  ***********************************



***************************************
The coordinates will be read from file: start.xyz
***************************************


Your calculation utilizes the geometrical counterpoise correction gCP
Please cite in your paper:
H.Kruse, S. Grimme J.Chem.Phys., 136, (2012), 154101 
   

Your calculation utilizes the atom-pairwise dispersion correction
with the Becke-Johnson damping scheme (D3BJ)


Warning: RI is on but no J-basis has been assigned. Assigning Def2/J (nothing to worry about!)
================================================================================

cite the ECPs for Zr [Def2-ECP] as follows:
Ce-Yb(ecp-28): M. Dolg, H. Stoll, H.Preuss, J. Chem. Phys., 1989, 90, 1730-1734.
Y-Cd(ecp-28), Hf-Hg(ecp-46): D. Andrae,U. Haeussermann, M. Dolg, H. Stoll, H. Preuss, Theor. Chim. Acta, 1990, 77, 123-141.
In-Sb(ecp-28), Tl-Bi(ecp-46): B. Metz, H. Stoll, M. Dolg, J. Chem. Phys., 2000, 113, 2563-2569.
Te-Xe(ecp-28), Po-Rn(ecp-46): K. A. Peterson, D. Figgen, E. Goll, H. Stoll, M. Dolg, J. Chem. Phys., 2003, 119, 11113-11123.
Rb(ecp-28), Cs(ecp-46): T. Leininger, A. Nicklass, W. Kuechle, H. Stoll, M. Dolg, A. Bergner, Chem. Phys. Lett., 1996, 255, 274-280.
Sr(ecp-28), Ba(ecp-46): M. Kaupp, P. V. Schleyer, H. Stoll and H. Preuss, J. Chem. Phys., 1991, 94, 1360-1366.
La(ecp-46): M. Dolg, H. Stoll, A. Savin, H. Preuss, Theor. Chim. Acta, 1989, 75, 173-194.
Lu(ecp-28): X. Cao, M. Dolg, J. Chem. Phys., 2001, 115, 7348-7355.

ECP parameters for Zr [Def2-ECP] have been obtained from:
TURBOMOLE (7.0.2)

----- Orbital basis set information -----
Your calculation utilizes the basis: def2-SV(P)
   F. Weigend and R. Ahlrichs, Phys. Chem. Chem. Phys. 7, 3297 (2005).

----- AuxJ basis set information -----
Your calculation utilizes the auxiliary basis: def2/J
   H-Rn: F. Weigend, Phys. Chem. Chem. Phys. 8, 1057 (2006).
   Fr-Lr: K. Eichkorn, F. Weigend, O. Treutler, R. Ahlrichs; Theor. Chem. Acc. 97, 119 (1997).

================================================================================
                                        WARNINGS
                       Please study these warnings very carefully!
================================================================================


WARNING: Gradients are needed
  ===> : At least TightSCF should be used for SCF convergence

WARNING: Geometry Optimization
  ===> : Switching off AutoStart
         For restart on a previous wavefunction, please use MOREAD

================================================================================
                                       INPUT FILE
================================================================================
NAME = run.inp
|  1> # Geometry optimization for (AlH3)n cluster
|  2> 
|  3> %pal nprocs 24  end
|  4> 
|  5> %geom MaxIter 500 end
|  6> 
|  7> 
|  8> ! PBE def2-SV(P)
|  9> ! RKS	# closed shell for AlH3
| 10> ! D3    #  dispersion correction
| 11> ! gCP(DFT/SV(P))
| 12> ! Freq 	# Frequency analysis to check the stabiltity of the structures
| 13> 
| 14> ! NoPop # population analysis not necessary	
| 15> 
| 16> ! DEFGRID2
| 17> ! NormalSCF
| 18> ! SloppyOpt
| 19> 
| 20> ! SmallPrint
| 21> 
| 22> 
| 23> * xyzFile 0 1 start.xyz # only maingroup elements H and Al so there should be no net spin
| 24> 
| 25>                          ****END OF INPUT****
================================================================================

                       *****************************
                       * Geometry Optimization Run *
                       *****************************

Geometry optimization settings:
Update method            Update   .... BFGS
Choice of coordinates    CoordSys .... (2022) Redundant Internals
Initial Hessian          InHess   .... Almloef's Model
Max. no of cycles        MaxIter  .... 500

Convergence Tolerances:
Energy Change            TolE     ....  8.0000e-05 Eh
Max. Gradient            TolMAXG  ....  5.0000e-03 Eh/bohr
RMS Gradient             TolRMSG  ....  1.0000e-03 Eh/bohr
Max. Displacement        TolMAXD  ....  3.0000e-02 bohr
RMS Displacement         TolRMSD  ....  2.0000e-02 bohr
Strict Convergence                .... False

------------------------------------------------------------------------------
                        ORCA OPTIMIZATION COORDINATE SETUP
------------------------------------------------------------------------------

The optimization will be done in redundant internal coordinates (2022)
Making redundant internal coordinates   ...  (2022 redundants) done
Evaluating the initial hessian          ...  (Almloef) done
Evaluating the coordinates              ...  done
Calculating the B-matrix                .... done
Calculating the G-matrix                .... done
The number of degrees of freedom        ....  894

    -----------------------------------------------------------------
                    Redundant Internal Coordinates


    -----------------------------------------------------------------
         Definition                    Initial Value    Approx d2E/dq
    -----------------------------------------------------------------
      1. B(Zr  2,Zr  1)                  3.4298         0.035608   
      2. B(Zr  3,Zr  0)                  3.4309         0.035466   
      3. B(Zr  4,Zr  3)                  3.4109         0.038176   
      4. B(Zr  4,Zr  1)                  3.3751         0.043533   
      5. B(Zr  5,Zr  2)                  3.4134         0.037830   
      6. B(Zr  5,Zr  0)                  3.3742         0.043677   
      7. B(O   6,Zr  0)                  2.0788         0.450858   
      8. B(O   6,Zr  5)                  2.1561         0.339443   
      9. B(O   6,Zr  3)                  2.0937         0.426831   
     10. B(O   7,Zr  4)                  2.1488         0.348633   
     11. B(O   7,Zr  1)                  2.0820         0.445679   
     12. B(O   7,Zr  2)                  2.0902         0.432454   
     13. B(O   8,Zr  5)                  2.1741         0.317713   
     14. B(O   8,Zr  2)                  2.1522         0.344361   
     15. B(O   8,Zr  1)                  2.1649         0.328659   
     16. B(O   9,Zr  4)                  2.1820         0.308558   
     17. B(O   9,Zr  3)                  2.1508         0.346105   
     18. B(O   9,Zr  0)                  2.1726         0.319449   
     19. B(O  10,Zr  4)                  2.1068         0.406744   
     20. B(O  10,Zr  3)                  2.0710         0.464012   
     21. B(O  10,Zr  1)                  2.1311         0.372054   
     22. B(O  11,Zr  5)                  2.1090         0.403580   
     23. B(O  11,Zr  0)                  2.1261         0.378957   
     24. B(O  11,Zr  2)                  2.0726         0.461318   
     25. B(O  12,Zr  0)                  1.9965         0.610055   
     26. B(O  13,Zr  0)                  1.9838         0.639238   
     27. B(O  14,Zr  0)                  2.0749         0.457419   
     28. B(O  15,Zr  0)                  1.9831         0.640842   
     29. B(O  16,Zr  1)                  1.9874         0.630848   
     30. B(O  17,Zr  1)                  2.0694         0.466781   
     31. B(O  18,Zr  1)                  1.9880         0.629381   
     32. B(O  19,Zr  1)                  1.9948         0.613857   
     33. B(O  20,Zr  2)                  1.9722         0.667107   
     34. B(O  21,Zr  2)                  2.0628         0.478243   
     35. B(O  22,Zr  2)                  1.9805         0.646972   
     36. B(O  23,Zr  2)                  2.0663         0.472069   
     37. B(O  24,Zr  3)                  2.0656         0.473356   
     38. B(O  25,Zr  3)                  1.9776         0.653939   
     39. B(O  26,Zr  3)                  2.0677         0.469587   
     40. B(O  27,Zr  3)                  1.9704         0.671487   
     41. B(O  28,Zr  4)                  1.9727         0.665812   
     42. B(O  29,Zr  4)                  2.0105         0.579559   
     43. B(O  30,Zr  4)                  1.9940         0.615779   
     44. B(O  31,Zr  4)                  2.0757         0.456013   
     45. B(O  32,Zr  5)                  2.0719         0.462505   
     46. B(O  33,Zr  5)                  1.9891         0.626770   
     47. B(O  34,Zr  5)                  2.0189         0.561780   
     48. B(O  35,Zr  5)                  1.9785         0.651750   
     49. B(C  36,O  33)                  1.3022         0.772600   
     50. B(C  36,O  12)                  1.3017         0.773981   
     51. B(C  37,O  25)                  1.3009         0.776170   
     52. B(C  37,O  13)                  1.3010         0.775909   
     53. B(C  38,O  21)                  1.2975         0.786005   
     54. B(C  38,O  14)                  1.2968         0.787962   
     55. B(C  39,O  29)                  1.2954         0.792159   
     56. B(C  39,O  15)                  1.2947         0.794102   
     57. B(C  40,O  16)                  1.2951         0.793147   
     58. B(C  40,O  34)                  1.2954         0.792169   
     59. B(C  41,O  26)                  1.2974         0.786487   
     60. B(C  41,O  17)                  1.2968         0.788076   
     61. B(C  42,O  18)                  1.3009         0.776161   
     62. B(C  42,O  22)                  1.3010         0.775965   
     63. B(C  43,O  19)                  1.3018         0.773851   
     64. B(C  43,O  30)                  1.3023         0.772259   
     65. B(C  44,O  35)                  1.2988         0.782385   
     66. B(C  44,O  20)                  1.2989         0.781918   
     67. B(C  45,O  31)                  1.2985         0.783137   
     68. B(C  45,O  23)                  1.3004         0.777677   
     69. B(C  46,O  32)                  1.2983         0.783720   
     70. B(C  46,O  24)                  1.3001         0.778717   
     71. B(C  47,O  28)                  1.2993         0.780943   
     72. B(C  47,O  27)                  1.2991         0.781328   
     73. B(H  48,C  41)                  1.0850         0.366836   
     74. B(H  49,C  42)                  1.0912         0.358478   
     75. B(H  50,C  38)                  1.0849         0.366891   
     76. B(H  51,C  37)                  1.0914         0.358264   
     77. B(H  52,C  43)                  1.0924         0.356881   
     78. B(H  53,C  47)                  1.0902         0.359855   
     79. B(H  54,C  39)                  1.0862         0.365099   
     80. B(H  55,C  45)                  1.0866         0.364591   
     81. B(H  56,C  40)                  1.0862         0.365198   
     82. B(H  57,C  46)                  1.0865         0.364745   
     83. B(H  58,C  36)                  1.0924         0.356951   
     84. B(H  59,C  44)                  1.0900         0.360097   
     85. B(Al 61,Al 60)                  2.6874         0.261233   
     86. B(H  62,Al 61)                  1.6770         0.292065   
     87. B(H  63,Al 61)                  1.6124         0.370320   
     88. B(H  64,C  39)                  2.8358         0.010000   
     89. B(H  64,H  54)                  2.5397         0.010000   
     90. B(H  64,Al 61)                  1.6772         0.291862   
     91. B(H  64,Al 60)                  1.6660         0.304076   
     92. B(H  65,Al 60)                  1.6029         0.383447   
     93. B(H  66,O  13)                  3.0459         0.010000   
     94. B(H  66,C  37)                  3.0054         0.010000   
     95. B(H  66,H  51)                  3.0664         0.010000   
     96. B(H  66,Al 60)                  1.6777         0.291280   
     97. B(H  67,O  28)                  2.6338         0.010000   
     98. B(H  67,O  29)                  2.6179         0.010000   
     99. B(H  67,Al 61)                  1.6158         0.365758   
    100. B(Al 68,H  62)                  1.6685         0.301323   
    101. B(Al 68,Al 61)                  2.6913         0.257503   
    102. B(H  69,H  53)                  2.7121         0.010000   
    103. B(H  69,Al 68)                  1.6747         0.294549   
    104. B(H  70,Al 68)                  1.6036         0.382511   
    105. B(H  71,O  15)                  2.5771         0.010000   
    106. B(H  71,O  13)                  2.4045         0.010000   
    107. B(H  71,Al 60)                  1.6026         0.383860   
    108. B(H  71,C  39)                  3.1247         0.010000   
    109. B(Al 72,H  69)                  1.6897         0.278758   
    110. B(Al 72,Al 68)                  3.3453         0.023296   
    111. B(Al 72,H  66)                  1.6935         0.274867   
    112. B(Al 72,Al 60)                  3.2835         0.029235   
    113. B(H  73,H  51)                  2.5565         0.010000   
    114. B(H  73,Al 72)                  1.6897         0.278736   
    115. B(H  74,C  37)                  3.1130         0.010000   
    116. B(H  74,C  47)                  3.0714         0.010000   
    117. B(H  74,H  53)                  3.0273         0.010000   
    118. B(H  74,O  25)                  2.7028         0.010000   
    119. B(H  74,O  27)                  2.4697         0.010000   
    120. B(H  74,Al 72)                  1.6165         0.364703   
    121. B(H  75,H  53)                  2.5379         0.010000   
    122. B(H  75,Al 68)                  1.6038         0.382123   
    123. B(Al 76,H  73)                  1.6699         0.299816   
    124. B(Al 76,Al 72)                  2.6504         0.299248   
    125. B(H  77,Al 76)                  1.6020         0.384681   
    126. B(H  78,Al 76)                  1.6711         0.298429   
    127. B(H  78,Al 72)                  1.6870         0.281569   
    128. B(H  79,Al 76)                  1.6020         0.384686   
    129. A(O  11,Zr  0,O  14)           69.8040         0.468880   
    130. A(O  13,Zr  0,O  15)           87.0056         0.550515   
    131. A(Zr  5,Zr  0,O  14)           89.7925         0.349794   
    132. A(Zr  3,Zr  0,O   9)           37.2582         0.318372   
    133. A(O   9,Zr  0,O  14)          138.0461         0.454473   
    134. A(O  11,Zr  0,O  15)          105.8968         0.499007   
    135. A(Zr  3,Zr  0,O  11)           86.7796         0.327414   
    136. A(Zr  5,Zr  0,O  11)           37.0048         0.338920   
    137. A(Zr  5,Zr  0,O   9)           95.1494         0.329441   
    138. A(O   6,Zr  0,O  15)          142.1535         0.515450   
    139. A(Zr  5,Zr  0,O   6)           37.9773         0.348943   
    140. A(Zr  5,Zr  0,O  15)          142.5144         0.370476   
    141. A(O  13,Zr  0,O  14)          130.6699         0.516604   
    142. A(Zr  3,Zr  0,O  12)          105.3632         0.354542   
    143. A(O  11,Zr  0,O  13)          158.7886         0.498774   
    144. A(O   6,Zr  0,O   9)           68.2192         0.453280   
    145. A(O  12,Zr  0,O  14)           79.9390         0.512105   
    146. A(Zr  3,Zr  0,O   6)           34.8298         0.336975   
    147. A(O   6,Zr  0,O  11)           65.9490         0.467640   
    148. A(O  11,Zr  0,O  12)           99.9160         0.494463   
    149. A(O   9,Zr  0,O  15)           75.0953         0.483457   
    150. A(Zr  5,Zr  0,O  13)          126.6755         0.370317   
    151. A(O  14,Zr  0,O  15)           75.9236         0.516847   
    152. A(O  12,Zr  0,O  13)           81.0998         0.545401   
    153. A(O   6,Zr  0,O  14)          127.7384         0.484115   
    154. A(O   6,Zr  0,O  13)           93.4707         0.515208   
    155. A(Zr  3,Zr  0,O  14)          156.5807         0.337787   
    156. A(Zr  3,Zr  0,O  15)          111.6499         0.357518   
    157. A(Zr  3,Zr  0,Zr  5)           70.6778         0.252675   
    158. A(Zr  3,Zr  0,O  13)           72.6640         0.357365   
    159. A(O   9,Zr  0,O  11)           89.8872         0.439234   
    160. A(O   9,Zr  0,O  13)           77.0206         0.483233   
    161. A(O   6,Zr  0,O  12)           81.6203         0.510724   
    162. A(O  12,Zr  0,O  15)          135.4756         0.545660   
    163. A(Zr  5,Zr  0,O  12)           72.9744         0.367357   
    164. A(O   9,Zr  0,O  12)          141.1332         0.479086   
    165. A(O   7,Zr  1,O  17)          127.7866         0.484895   
    166. A(O  10,Zr  1,O  18)          159.0267         0.495640   
    167. A(Zr  4,Zr  1,O  17)           90.0405         0.350797   
    168. A(Zr  4,Zr  1,O   8)           94.7838         0.330813   
    169. A(O  10,Zr  1,O  17)           69.9387         0.469042   
    170. A(O  16,Zr  1,O  18)           85.3539         0.547262   
    171. A(O  16,Zr  1,O  17)           76.3401         0.517287   
    172. A(O   8,Zr  1,O  10)           89.5917         0.440031   
    173. A(Zr  4,Zr  1,O  16)          143.2161         0.369267   
    174. A(Zr  2,Zr  1,O   8)           37.2642         0.320061   
    175. A(O   8,Zr  1,O  18)           76.7849         0.484384   
    176. A(Zr  2,Zr  1,O  19)          105.1114         0.355156   
    177. A(O   7,Zr  1,O  16)          142.0928         0.512826   
    178. A(O   8,Zr  1,O  16)           75.0124         0.484593   
    179. A(O   7,Zr  1,O  18)           94.1057         0.512603   
    180. A(Zr  2,Zr  1,O  10)           86.6709         0.326639   
    181. A(Zr  2,Zr  1,Zr  4)           70.4735         0.252701   
    182. A(O   7,Zr  1,O  19)           81.5505         0.510215   
    183. A(Zr  4,Zr  1,O  10)           36.9631         0.337696   
    184. A(Zr  4,Zr  1,O  19)           73.0344         0.367541   
    185. A(Zr  4,Zr  1,O  18)          127.3467         0.369120   
    186. A(Zr  4,Zr  1,O   7)           37.7729         0.348070   
    187. A(O  17,Zr  1,O  19)           80.2541         0.514648   
    188. A(O  16,Zr  1,O  19)          135.3968         0.544678   
    189. A(Zr  2,Zr  1,O   7)           34.7839         0.336552   
    190. A(O  17,Zr  1,O  18)          130.5437         0.517061   
    191. A(O   8,Zr  1,O  19)          140.9610         0.482156   
    192. A(O   7,Zr  1,O   8)           68.0487         0.454674   
    193. A(O  10,Zr  1,O  19)           99.9701         0.493348   
    194. A(Zr  2,Zr  1,O  17)          156.6052         0.339157   
    195. A(Zr  2,Zr  1,O  18)           72.8041         0.356665   
    196. A(O   7,Zr  1,O  10)           65.7484         0.465083   
    197. A(Zr  2,Zr  1,O  16)          111.4269         0.356806   
    198. A(O  18,Zr  1,O  19)           81.7792         0.544438   
    199. A(O   8,Zr  1,O  17)          137.8533         0.458523   
    200. A(O  10,Zr  1,O  16)          106.6985         0.495854   
    201. A(Zr  1,Zr  2,O  21)          154.7448         0.340535   
    202. A(O   7,Zr  2,O   8)           68.1451         0.456045   
    203. A(Zr  5,Zr  2,O  11)           35.6391         0.341934   
    204. A(O   8,Zr  2,O  21)          133.5071         0.464502   
    205. A(O  20,Zr  2,O  22)           83.6766         0.556000   
    206. A(O  11,Zr  2,O  21)           71.1410         0.490194   
    207. A(Zr  5,Zr  2,O   8)           38.1356         0.325736   
    208. A(O  21,Zr  2,O  23)           77.6803         0.492292   
    209. A(Zr  1,Zr  2,O  22)           71.8954         0.358340   
    210. A(Zr  1,Zr  2,O  23)          102.1915         0.339796   
    211. A(O   8,Zr  2,O  20)           81.7312         0.493883   
    212. A(Zr  5,Zr  2,O  21)           95.4287         0.344005   
    213. A(O  20,Zr  2,O  21)           81.5318         0.525127   
    214. A(O  20,Zr  2,O  23)          135.9413         0.523846   
    215. A(Zr  5,Zr  2,O  22)          123.1080         0.362057   
    216. A(O   7,Zr  2,O  23)           71.1222         0.483209   
    217. A(Zr  1,Zr  2,O   8)           37.5219         0.322515   
    218. A(O  21,Zr  2,O  22)          132.2148         0.522112   
    219. A(O  11,Zr  2,O  22)          155.7403         0.518594   
    220. A(O   7,Zr  2,O  22)           82.8493         0.512357   
    221. A(Zr  5,Zr  2,O   7)           89.3302         0.338262   
    222. A(O   8,Zr  2,O  22)           88.2145         0.491084   
    223. A(Zr  5,Zr  2,O  23)          146.4236         0.343256   
    224. A(O   8,Zr  2,O  11)           67.7475         0.461453   
    225. A(O   7,Zr  2,O  11)           85.0385         0.481158   
    226. A(O  11,Zr  2,O  23)          113.3625         0.489016   
    227. A(Zr  1,Zr  2,O   7)           34.6279         0.334870   
    228. A(O  22,Zr  2,O  23)           82.3239         0.520840   
    229. A(Zr  1,Zr  2,O  11)           86.2712         0.338492   
    230. A(Zr  1,Zr  2,Zr  5)           70.4885         0.247581   
    231. A(O  11,Zr  2,O  20)           95.5356         0.521584   
    232. A(O   7,Zr  2,O  20)          147.2421         0.515304   
    233. A(Zr  5,Zr  2,O  20)           73.4933         0.363957   
    234. A(O   8,Zr  2,O  23)          139.0022         0.463400   
    235. A(Zr  1,Zr  2,O  20)          112.6247         0.360215   
    236. A(O   7,Zr  2,O  21)          128.6645         0.484370   
    237. A(Zr  4,Zr  3,O   6)           89.3995         0.338036   
    238. A(O   9,Zr  3,O  10)           68.0704         0.462371   
    239. A(O  10,Zr  3,O  25)          156.1982         0.520205   
    240. A(O  24,Zr  3,O  25)           82.0675         0.522155   
    241. A(O  24,Zr  3,O  27)          135.7962         0.524759   
    242. A(O   6,Zr  3,O  24)           71.0840         0.482285   
    243. A(O   6,Zr  3,O   9)           68.3716         0.455378   
    244. A(Zr  4,Zr  3,O  24)          146.1909         0.343936   
    245. A(Zr  4,Zr  3,O   9)           38.3987         0.326495   
    246. A(O   9,Zr  3,O  25)           88.4041         0.492521   
    247. A(Zr  4,Zr  3,O  27)           73.2179         0.364932   
    248. A(Zr  4,Zr  3,O  10)           35.6207         0.342789   
    249. A(O  24,Zr  3,O  26)           77.2232         0.490875   
    250. A(Zr  0,Zr  3,O  10)           86.2810         0.338595   
    251. A(O   6,Zr  3,O  26)          128.2604         0.481574   
    252. A(Zr  4,Zr  3,O  26)           95.4657         0.343476   
    253. A(Zr  0,Zr  3,O  26)          154.4795         0.339270   
    254. A(O   6,Zr  3,O  27)          148.3745         0.514673   
    255. A(O   9,Zr  3,O  26)          133.8002         0.463381   
    256. A(O   6,Zr  3,O  25)           82.8487         0.512130   
    257. A(O  10,Zr  3,O  26)           71.0838         0.489066   
    258. A(Zr  0,Zr  3,O  25)           72.1753         0.358750   
    259. A(O  10,Zr  3,O  24)          113.0764         0.489790   
    260. A(O   9,Zr  3,O  24)          139.1787         0.464059   
    261. A(Zr  0,Zr  3,O   9)           37.7015         0.322570   
    262. A(Zr  4,Zr  3,O  25)          123.6973         0.363283   
    263. A(Zr  0,Zr  3,O   6)           34.5464         0.333921   
    264. A(O  10,Zr  3,O  27)           94.6806         0.522797   
    265. A(O   6,Zr  3,O  10)           85.0008         0.480514   
    266. A(O   9,Zr  3,O  27)           82.1440         0.494947   
    267. A(O  25,Zr  3,O  27)           85.2294         0.557827   
    268. A(Zr  0,Zr  3,O  27)          113.8282         0.360372   
    269. A(O  26,Zr  3,O  27)           80.5569         0.523971   
    270. A(Zr  0,Zr  3,Zr  4)           70.6443         0.247763   
    271. A(O  25,Zr  3,O  26)          131.9744         0.521372   
    272. A(Zr  0,Zr  3,O  24)          102.1333         0.339723   
    273. A(O   9,Zr  4,O  10)           66.8665         0.442105   
    274. A(O   7,Zr  4,O  10)           65.0120         0.452000   
    275. A(Zr  3,Zr  4,O  10)           34.9250         0.335334   
    276. A(O  30,Zr  4,O  31)           81.2652         0.512706   
    277. A(O   9,Zr  4,O  31)          137.0433         0.451362   
    278. A(O   7,Zr  4,O  31)           68.6944         0.461517   
    279. A(Zr  3,Zr  4,O   9)           37.7510         0.320402   
    280. A(O   7,Zr  4,O  29)          108.1926         0.482289   
    281. A(O  28,Zr  4,O  29)           85.2855         0.544312   
    282. A(O   9,Zr  4,O  29)           72.9570         0.471569   
    283. A(O  28,Zr  4,O  31)          125.2754         0.520264   
    284. A(O  10,Zr  4,O  31)          130.3195         0.474745   
    285. A(Zr  3,Zr  4,O  31)          160.1992         0.341792   
    286. A(O  29,Zr  4,O  30)          137.3280         0.536333   
    287. A(O  10,Zr  4,O  30)           84.7127         0.501881   
    288. A(O   7,Zr  4,O  30)           93.8166         0.487723   
    289. A(Zr  1,Zr  4,O  10)           37.4613         0.342765   
    290. A(Zr  3,Zr  4,O  29)          110.0195         0.355888   
    291. A(Zr  1,Zr  4,O  29)          143.2389         0.363940   
    292. A(O   9,Zr  4,O  28)           78.0386         0.483773   
    293. A(O   7,Zr  4,O  28)          163.7466         0.494835   
    294. A(O   7,Zr  4,O   9)           96.8850         0.429996   
    295. A(Zr  3,Zr  4,O   7)           91.9647         0.326886   
    296. A(Zr  3,Zr  4,O  30)          105.0923         0.359575   
    297. A(Zr  1,Zr  4,Zr  3)           71.9861         0.255301   
    298. A(O   9,Zr  4,O  30)          141.3845         0.476854   
    299. A(O  29,Zr  4,O  31)           73.9122         0.506932   
    300. A(Zr  1,Zr  4,O   9)           97.2867         0.327383   
    301. A(O  10,Zr  4,O  29)          137.5637         0.496255   
    302. A(O  28,Zr  4,O  30)           81.4152         0.550603   
    303. A(Zr  1,Zr  4,O   7)           36.4042         0.334063   
    304. A(Zr  1,Zr  4,O  30)           70.8500         0.367738   
    305. A(Zr  1,Zr  4,O  31)           93.1654         0.349418   
    306. A(Zr  3,Zr  4,O  28)           74.4953         0.364402   
    307. A(O  10,Zr  4,O  28)           98.9652         0.509246   
    308. A(Zr  1,Zr  4,O  28)          128.2451         0.372710   
    309. A(O  34,Zr  5,O  35)           83.3439         0.538934   
    310. A(O  33,Zr  5,O  35)           81.9242         0.550221   
    311. A(O   6,Zr  5,O  34)          109.8741         0.477172   
    312. A(O  33,Zr  5,O  34)          136.3932         0.534971   
    313. A(O  32,Zr  5,O  34)           74.2102         0.505325   
    314. A(O  11,Zr  5,O  34)          137.9290         0.492679   
    315. A(O   8,Zr  5,O  34)           72.9231         0.471403   
    316. A(O  11,Zr  5,O  33)           84.9873         0.502806   
    317. A(O   6,Zr  5,O  33)           93.8662         0.486910   
    318. A(Zr  0,Zr  5,O  35)          128.3810         0.371554   
    319. A(Zr  0,Zr  5,O  33)           71.0501         0.369066   
    320. A(Zr  2,Zr  5,O   6)           91.8603         0.324967   
    321. A(Zr  2,Zr  5,O  32)          159.9277         0.342081   
    322. A(O   6,Zr  5,O  35)          163.7205         0.490445   
    323. A(Zr  0,Zr  5,O  34)          144.8284         0.362212   
    324. A(Zr  0,Zr  5,O   6)           36.3913         0.332768   
    325. A(O  32,Zr  5,O  35)          125.6694         0.519561   
    326. A(Zr  0,Zr  5,O  32)           93.5202         0.350448   
    327. A(O  11,Zr  5,O  35)           98.9724         0.506482   
    328. A(O   8,Zr  5,O  32)          136.2413         0.454937   
    329. A(O  11,Zr  5,O  32)          130.5008         0.475298   
    330. A(Zr  2,Zr  5,O  35)           74.2985         0.362512   
    331. A(O   8,Zr  5,O  35)           77.8377         0.484479   
    332. A(O   6,Zr  5,O  32)           68.7060         0.460458   
    333. A(O   8,Zr  5,O  33)          141.6741         0.480996   
    334. A(O  32,Zr  5,O  33)           81.7579         0.515769   
    335. A(Zr  2,Zr  5,O  34)          109.6462         0.353468   
    336. A(Zr  2,Zr  5,O  33)          105.3823         0.360103   
    337. A(Zr  0,Zr  5,Zr  2)           71.8901         0.255083   
    338. A(O   8,Zr  5,O  11)           66.7127         0.443822   
    339. A(O   6,Zr  5,O  11)           64.9039         0.449175   
    340. A(Zr  2,Zr  5,O  11)           34.9332         0.334394   
    341. A(Zr  0,Zr  5,O  11)           37.3565         0.342506   
    342. A(O   6,Zr  5,O   8)           96.5726         0.430192   
    343. A(Zr  2,Zr  5,O   8)           37.6834         0.321460   
    344. A(Zr  0,Zr  5,O   8)           96.9900         0.329145   
    345. A(Zr  3,O   6,Zr  5)          135.7161         0.453770   
    346. A(Zr  0,O   6,Zr  5)          105.6314         0.458320   
    347. A(Zr  0,O   6,Zr  3)          110.6238         0.477974   
    348. A(Zr  2,O   7,Zr  4)          135.7171         0.457071   
    349. A(Zr  1,O   7,Zr  4)          105.8229         0.459589   
    350. A(Zr  1,O   7,Zr  2)          110.5882         0.478109   
    351. A(Zr  1,O   8,Zr  2)          105.2139         0.433939   
    352. A(Zr  2,O   8,Zr  5)          104.1809         0.431304   
    353. A(Zr  1,O   8,Zr  5)          131.0446         0.427708   
    354. A(Zr  3,O   9,Zr  4)          103.8503         0.429435   
    355. A(Zr  0,O   9,Zr  4)          130.5715         0.423316   
    356. A(Zr  0,O   9,Zr  3)          105.0403         0.432119   
    357. A(Zr  3,O  10,Zr  4)          109.4543         0.476266   
    358. A(Zr  1,O  10,Zr  4)          105.5756         0.457382   
    359. A(Zr  1,O  10,Zr  3)          143.2741         0.468530   
    360. A(Zr  2,O  11,Zr  5)          109.4277         0.475073   
    361. A(Zr  0,O  11,Zr  5)          105.6388         0.458265   
    362. A(Zr  0,O  11,Zr  2)          143.2391         0.469611   
    363. A(Zr  0,O  12,C  36)          125.1128         0.500665   
    364. A(Zr  0,O  13,C  37)          127.5658         0.505277   
    365. A(C  37,O  13,H  71)          124.8916         0.177987   
    366. A(Zr  0,O  13,H  66)          130.2285         0.146845   
    367. A(Zr  0,O  13,H  71)          104.1831         0.187602   
    368. A(C  37,O  13,H  66)           75.8503         0.141205   
    369. A(H  66,O  13,H  71)           54.7682         0.101366   
    370. A(Zr  0,O  14,C  38)          134.6140         0.476257   
    371. A(Zr  0,O  15,C  39)          138.2502         0.507704   
    372. A(C  39,O  15,H  71)          102.5181         0.166497   
    373. A(Zr  0,O  15,H  71)           98.3279         0.174469   
    374. A(Zr  1,O  16,C  40)          138.3506         0.506103   
    375. A(Zr  1,O  17,C  41)          134.7114         0.478050   
    376. A(Zr  1,O  18,C  42)          127.8693         0.503846   
    377. A(Zr  1,O  19,C  43)          124.9934         0.501229   
    378. A(Zr  2,O  20,C  44)          132.4476         0.510051   
    379. A(Zr  2,O  21,C  38)          139.4846         0.479959   
    380. A(Zr  2,O  22,C  42)          129.8907         0.506418   
    381. A(Zr  2,O  23,C  45)          137.2288         0.477872   
    382. A(Zr  3,O  24,C  46)          137.7698         0.478230   
    383. A(Zr  3,O  25,C  37)          130.4686         0.507456   
    384. A(C  37,O  25,H  74)           95.6590         0.158445   
    385. A(Zr  3,O  25,H  74)          100.8738         0.166339   
    386. A(Zr  3,O  26,C  41)          139.5348         0.478400   
    387. A(C  47,O  27,H  74)          104.8618         0.173420   
    388. A(Zr  3,O  27,H  74)          109.5107         0.183441   
    389. A(Zr  3,O  27,C  47)          132.7678         0.510604   
    390. A(C  47,O  28,H  67)          125.9409         0.162648   
    391. A(Zr  4,O  28,H  67)           99.6796         0.171241   
    392. A(Zr  4,O  28,C  47)          130.0031         0.509747   
    393. A(Zr  4,O  29,C  39)          140.5707         0.498059   
    394. A(C  39,O  29,H  67)          109.8090         0.163870   
    395. A(Zr  4,O  29,H  67)           99.1852         0.169759   
    396. A(Zr  4,O  30,C  43)          127.0421         0.501329   
    397. A(Zr  4,O  31,C  45)          128.6313         0.475450   
    398. A(Zr  5,O  32,C  46)          129.0886         0.476754   
    399. A(Zr  5,O  33,C  36)          127.2456         0.503024   
    400. A(Zr  5,O  34,C  40)          139.8801         0.495185   
    401. A(Zr  5,O  35,C  44)          130.9428         0.507894   
    402. A(O  12,C  36,O  33)          126.5993         0.464111   
    403. A(O  33,C  36,H  58)          116.7112         0.363557   
    404. A(O  12,C  36,H  58)          116.6885         0.363668   
    405. A(O  13,C  37,O  25)          127.3375         0.464714   
    406. A(O  25,C  37,H  74)           59.7670         0.140218   
    407. A(O  13,C  37,H  74)          130.1780         0.140214   
    408. A(H  51,C  37,H  74)           80.6667         0.126495   
    409. A(H  51,C  37,H  66)           82.8088         0.130004   
    410. A(O  25,C  37,H  66)          107.0370         0.145011   
    411. A(O  13,C  37,H  66)           79.3302         0.145007   
    412. A(H  66,C  37,H  74)           55.5019         0.096635   
    413. A(O  25,C  37,H  51)          116.3536         0.364072   
    414. A(O  13,C  37,H  51)          116.3084         0.364051   
    415. A(O  14,C  38,O  21)          129.9960         0.467103   
    416. A(O  21,C  38,H  50)          114.9913         0.366346   
    417. A(O  14,C  38,H  50)          115.0096         0.366503   
    418. A(O  15,C  39,O  29)          128.8899         0.468437   
    419. A(H  64,C  39,H  71)           49.6630         0.097706   
    420. A(H  54,C  39,H  71)           87.6776         0.126291   
    421. A(O  15,C  39,H  71)           53.6222         0.139984   
    422. A(O  29,C  39,H  64)           99.1273         0.153794   
    423. A(O  15,C  39,H  64)          103.2825         0.153829   
    424. A(O  29,C  39,H  71)          128.9322         0.139956   
    425. A(H  54,C  39,H  64)           63.2616         0.136418   
    426. A(O  29,C  39,H  54)          115.5403         0.366529   
    427. A(O  15,C  39,H  54)          115.5698         0.366683   
    428. A(O  16,C  40,O  34)          128.8934         0.468335   
    429. A(O  34,C  40,H  56)          115.5313         0.366547   
    430. A(O  16,C  40,H  56)          115.5684         0.366624   
    431. A(O  17,C  41,O  26)          129.9892         0.467168   
    432. A(O  26,C  41,H  48)          114.9836         0.366375   
    433. A(O  17,C  41,H  48)          115.0225         0.366502   
    434. A(O  18,C  42,O  22)          127.3957         0.464719   
    435. A(O  22,C  42,H  49)          116.3069         0.364092   
    436. A(O  18,C  42,H  49)          116.2974         0.364108   
    437. A(O  30,C  43,H  52)          116.7064         0.363517   
    438. A(O  19,C  43,H  52)          116.6897         0.363645   
    439. A(O  19,C  43,O  30)          126.6026         0.464059   
    440. A(O  35,C  44,H  59)          116.2032         0.364887   
    441. A(O  20,C  44,H  59)          116.2280         0.364850   
    442. A(O  20,C  44,O  35)          127.5687         0.466051   
    443. A(O  31,C  45,H  55)          115.0668         0.365723   
    444. A(O  23,C  45,H  55)          115.1216         0.365285   
    445. A(O  23,C  45,O  31)          129.8098         0.465669   
    446. A(O  32,C  46,H  57)          115.1023         0.365796   
    447. A(O  24,C  46,H  57)          115.1133         0.365395   
    448. A(O  24,C  46,O  32)          129.7836         0.465846   
    449. A(O  28,C  47,H  74)          144.9059         0.142097   
    450. A(H  53,C  47,H  74)           77.4306         0.127856   
    451. A(O  27,C  47,H  74)           51.0064         0.142103   
    452. A(O  28,C  47,H  53)          116.3115         0.364730   
    453. A(O  27,C  47,H  53)          116.1599         0.364761   
    454. A(O  27,C  47,O  28)          127.5278         0.465829   
    455. A(H  66,H  51,H  73)           42.8043         0.092487   
    456. A(C  37,H  51,H  66)           76.5126         0.110439   
    457. A(C  37,H  51,H  73)          117.0712         0.121757   
    458. A(H  69,H  53,H  74)           58.8974         0.092165   
    459. A(H  74,H  53,H  75)          111.0609         0.092659   
    460. A(C  47,H  53,H  74)           81.9908         0.111169   
    461. A(H  69,H  53,H  75)           55.3524         0.093755   
    462. A(C  47,H  53,H  69)          110.8787         0.117811   
    463. A(C  47,H  53,H  75)          138.9581         0.122301   
    464. A(C  39,H  54,H  64)           94.2821         0.122362   
    465. A(H  71,Al 60,Al 72)          112.7514         0.286383   
    466. A(H  66,Al 60,Al 72)           13.1628         0.274430   
    467. A(H  65,Al 60,Al 72)           87.0380         0.286335   
    468. A(H  64,Al 60,Al 72)          117.8216         0.276243   
    469. A(Al 61,Al 60,Al 72)           82.0310         0.309684   
    470. A(H  66,Al 60,H  71)          103.1763         0.361265   
    471. A(H  65,Al 60,H  71)          137.4952         0.378745   
    472. A(H  64,Al 60,H  71)          100.6886         0.363928   
    473. A(Al 61,Al 60,H  71)          125.0827         0.413029   
    474. A(H  65,Al 60,H  66)          100.1259         0.361199   
    475. A(H  64,Al 60,H  66)          113.0329         0.347279   
    476. A(Al 61,Al 60,H  66)           79.9353         0.393407   
    477. A(H  64,Al 60,H  65)          102.1570         0.363861   
    478. A(Al 61,Al 60,H  65)           93.6001         0.412950   
    479. A(Al 61,Al 60,H  64)           36.6447         0.396383   
    480. A(H  67,Al 61,Al 68)          117.4851         0.408463   
    481. A(H  64,Al 61,Al 68)          130.2787         0.392554   
    482. A(H  63,Al 61,Al 68)          116.5286         0.409361   
    483. A(H  62,Al 61,Al 68)           36.3358         0.392602   
    484. A(Al 60,Al 61,Al 68)           98.8381         0.450103   
    485. A(H  64,Al 61,H  67)          112.1537         0.358427   
    486. A(H  63,Al 61,H  67)           74.2358         0.373344   
    487. A(H  62,Al 61,H  67)          115.4471         0.358469   
    488. A(Al 60,Al 61,H  67)          136.8103         0.409505   
    489. A(H  63,Al 61,H  64)           79.0577         0.359184   
    490. A(H  62,Al 61,H  64)          119.9534         0.345050   
    491. A(Al 60,Al 61,H  64)           36.3617         0.393544   
    492. A(H  62,Al 61,H  63)           80.7649         0.359226   
    493. A(Al 60,Al 61,H  63)          110.9893         0.410406   
    494. A(Al 60,Al 61,H  62)          107.6263         0.393592   
    495. A(Al 61,H  62,Al 68)          107.1135         0.346905   
    496. A(C  39,H  64,H  54)           22.4563         0.096789   
    497. A(C  39,H  64,Al 61)          100.8272         0.142237   
    498. A(C  39,H  64,Al 60)          104.8820         0.142733   
    499. A(H  54,H  64,Al 61)          110.4843         0.126456   
    500. A(H  54,H  64,Al 60)          118.6376         0.126806   
    501. A(Al 60,H  64,Al 61)          106.9936         0.347396   
    502. A(O  13,H  66,H  51)           38.8988         0.093069   
    503. A(C  37,H  66,H  51)           20.6786         0.093366   
    504. A(H  51,H  66,Al 72)           80.5445         0.112847   
    505. A(H  51,H  66,Al 60)          110.4436         0.113162   
    506. A(O  13,H  66,C  37)           24.8195         0.096783   
    507. A(O  13,H  66,Al 72)          113.4368         0.131514   
    508. A(O  13,H  66,Al 60)           87.0280         0.132075   
    509. A(C  37,H  66,Al 72)           88.7040         0.134610   
    510. A(C  37,H  66,Al 60)          109.9763         0.135213   
    511. A(Al 60,H  66,Al 72)          153.7992         0.341442   
    512. A(O  28,H  67,O  29)           61.8372         0.103587   
    513. A(O  28,H  67,Al 61)           96.7313         0.152889   
    514. A(O  29,H  67,Al 61)          103.3049         0.153739   
    515. A(Al 72,Al 68,H  75)          102.3059         0.276301   
    516. A(H  70,Al 68,H  75)          156.6459         0.378288   
    517. A(H  69,Al 68,H  75)           96.3406         0.361674   
    518. A(H  62,Al 68,H  75)          102.8900         0.363081   
    519. A(Al 61,Al 68,H  75)           90.3080         0.411644   
    520. A(H  70,Al 68,Al 72)           85.5349         0.276344   
    521. A(H  69,Al 68,Al 72)            6.1275         0.265585   
    522. A(H  62,Al 68,Al 72)          111.0493         0.266496   
    523. A(Al 61,Al 68,Al 72)           80.8044         0.297945   
    524. A(H  69,Al 68,H  70)           91.5887         0.361737   
    525. A(H  62,Al 68,H  70)           94.4651         0.363144   
    526. A(Al 61,Al 68,H  70)          112.7838         0.411718   
    527. A(H  62,Al 68,H  69)          111.5468         0.347400   
    528. A(Al 61,Al 68,H  69)           79.2662         0.393185   
    529. A(Al 61,Al 68,H  62)           36.5507         0.394754   
    530. A(H  53,H  69,Al 72)           93.7963         0.121116   
    531. A(H  53,H  69,Al 68)           98.4033         0.121519   
    532. A(Al 68,H  69,Al 72)          167.7996         0.342887   
    533. A(O  15,H  71,C  39)           23.8597         0.099407   
    534. A(O  13,H  71,C  39)           82.4602         0.101013   
    535. A(C  39,H  71,Al 60)           95.2243         0.133546   
    536. A(O  13,H  71,O  15)           66.3790         0.107260   
    537. A(O  15,H  71,Al 60)          117.4702         0.156710   
    538. A(O  13,H  71,Al 60)          114.6348         0.167159   
    539. A(Al 76,Al 72,H  78)           37.6747         0.400513   
    540. A(H  74,Al 72,H  78)          111.5201         0.356071   
    541. A(H  73,Al 72,H  78)           75.3220         0.340306   
    542. A(H  69,Al 72,H  78)           86.0537         0.340311   
    543. A(Al 68,Al 72,H  78)           81.7025         0.263793   
    544. A(H  66,Al 72,H  78)          128.0531         0.339512   
    545. A(Al 60,Al 72,H  78)          115.0621         0.273012   
    546. A(H  74,Al 72,Al 76)          116.7823         0.419298   
    547. A(H  73,Al 72,Al 76)           37.6541         0.399800   
    548. A(H  69,Al 72,Al 76)          112.1146         0.399806   
    549. A(Al 68,Al 72,Al 76)          106.2742         0.305173   
    550. A(H  66,Al 72,Al 76)          103.9191         0.398819   
    551. A(Al 60,Al 72,Al 76)           93.5343         0.316576   
    552. A(H  73,Al 72,H  74)          109.4557         0.355461   
    553. A(H  69,Al 72,H  74)          118.0548         0.355466   
    554. A(Al 68,Al 72,H  74)          123.5872         0.274333   
    555. A(H  66,Al 72,H  74)          118.8775         0.354619   
    556. A(Al 60,Al 72,H  74)          131.6735         0.284109   
    557. A(H  69,Al 72,H  73)          132.4717         0.339736   
    558. A(Al 68,Al 72,H  73)          126.8013         0.263393   
    559. A(H  66,Al 72,H  73)           76.9969         0.338940   
    560. A(Al 60,Al 72,H  73)           71.7113         0.272592   
    561. A(Al 68,Al 72,H  69)            6.0729         0.263396   
    562. A(H  66,Al 72,H  69)           81.4299         0.338944   
    563. A(Al 60,Al 72,H  69)           77.8219         0.272595   
    564. A(H  66,Al 72,Al 68)           80.9923         0.262842   
    565. A(Al 60,Al 72,Al 68)           76.0790         0.216695   
    566. A(Al 60,Al 72,H  66)           13.0379         0.272012   
    567. A(H  51,H  73,Al 76)          144.9997         0.126160   
    568. A(H  51,H  73,Al 72)           97.8052         0.125552   
    569. A(Al 72,H  73,Al 76)          104.1645         0.343903   
    570. A(C  37,H  74,C  47)           87.5431         0.096228   
    571. A(C  37,H  74,H  53)          106.6100         0.093124   
    572. A(O  25,H  74,C  37)           24.5740         0.098466   
    573. A(O  27,H  74,C  37)           76.7310         0.100490   
    574. A(C  37,H  74,Al 72)           86.3900         0.133464   
    575. A(C  47,H  74,H  53)           20.5785         0.093269   
    576. A(O  25,H  74,C  47)           80.2946         0.098800   
    577. A(O  27,H  74,C  47)           24.1318         0.100895   
    578. A(C  47,H  74,Al 72)           90.7104         0.135031   
    579. A(O  25,H  74,H  53)          100.8631         0.094591   
    580. A(O  27,H  74,H  53)           41.8479         0.095787   
    581. A(H  53,H  74,Al 72)           84.3713         0.115263   
    582. A(O  25,H  74,O  27)           62.0396         0.104579   
    583. A(O  25,H  74,Al 72)          109.8153         0.149287   
    584. A(O  27,H  74,Al 72)          111.1091         0.162178   
    585. A(H  53,H  75,Al 68)          107.6956         0.128870   
    586. A(H  78,Al 76,H  79)           93.9535         0.362897   
    587. A(H  77,Al 76,H  79)          168.3818         0.379097   
    588. A(H  73,Al 76,H  79)           96.3887         0.363185   
    589. A(Al 72,Al 76,H  79)           96.0203         0.423310   
    590. A(H  77,Al 76,H  78)           94.9156         0.362896   
    591. A(H  73,Al 76,H  78)           76.2694         0.347872   
    592. A(Al 72,Al 76,H  78)           38.0949         0.404640   
    593. A(H  73,Al 76,H  77)           92.9980         0.363184   
    594. A(Al 72,Al 76,H  77)           95.5901         0.423309   
    595. A(Al 72,Al 76,H  73)           38.1814         0.404972   
    596. A(Al 72,H  78,Al 76)          104.2304         0.344219   
    597. D(Zr  5,Zr  2,Zr  1,O   7)    119.4255         0.010000   
    598. D(O   7,Zr  2,Zr  1,Zr  4)    -16.3505         0.010000   
    599. D(Zr  5,Zr  2,Zr  1,Zr  4)    103.0750         0.010000   
    600. D(Zr  4,Zr  3,Zr  0,Zr  5)   -102.8372         0.010000   
    601. D(O   6,Zr  3,Zr  0,Zr  5)     16.5462         0.010000   
    602. D(Zr  4,Zr  3,Zr  0,O   6)   -119.3834         0.010000   
    603. D(O   7,Zr  4,Zr  1,Zr  2)     15.1998         0.010000   
    604. D(Zr  1,Zr  4,Zr  3,O   6)     75.0950         0.010000   
    605. D(Zr  1,Zr  4,Zr  3,Zr  0)    104.7088         0.010000   
    606. D(Zr  3,Zr  4,Zr  1,O   7)   -120.1159         0.010000   
    607. D(Zr  3,Zr  4,Zr  1,Zr  2)   -104.9161         0.010000   
    608. D(O   7,Zr  4,Zr  3,Zr  0)     73.8004         0.010000   
    609. D(Zr  0,Zr  5,Zr  2,O   7)    -75.2739         0.010000   
    610. D(O   6,Zr  5,Zr  0,Zr  3)    -15.3270         0.010000   
    611. D(Zr  2,Zr  5,Zr  0,Zr  3)    104.7588         0.010000   
    612. D(Zr  2,Zr  5,Zr  0,O   6)    120.0858         0.010000   
    613. D(Zr  0,Zr  5,Zr  2,Zr  1)   -104.9418         0.010000   
    614. D(O   6,Zr  5,Zr  2,Zr  1)    -74.0355         0.010000   
    615. D(Zr  0,O   6,Zr  5,O   8)    -92.8743         0.010000   
    616. D(Zr  0,O   6,Zr  5,Zr  2)    -55.3706         0.010000   
    617. D(Zr  3,O   6,Zr  5,Zr  0)    144.1671         0.010000   
    618. D(Zr  5,O   6,Zr  3,Zr  0)   -142.9598         0.010000   
    619. D(Zr  0,O   6,Zr  3,O   9)     22.3307         0.010000   
    620. D(Zr  3,O   6,Zr  0,Zr  5)   -154.1040         0.010000   
    621. D(Zr  5,O   6,Zr  0,Zr  3)    154.1040         0.010000   
    622. D(Zr  0,O   6,Zr  3,Zr  4)     55.3008         0.010000   
    623. D(Zr  3,O   6,Zr  0,O   9)    -22.1192         0.010000   
    624. D(Zr  2,O   7,Zr  1,O   8)     22.5043         0.010000   
    625. D(Zr  1,O   7,Zr  2,Zr  5)    -55.1884         0.010000   
    626. D(Zr  4,O   7,Zr  1,Zr  2)   -154.3321         0.010000   
    627. D(Zr  2,O   7,Zr  1,Zr  4)    154.3321         0.010000   
    628. D(Zr  1,O   7,Zr  2,O   8)    -22.6283         0.010000   
    629. D(Zr  2,O   7,Zr  4,Zr  1)   -144.4958         0.010000   
    630. D(Zr  1,O   7,Zr  4,Zr  3)     55.3958         0.010000   
    631. D(Zr  4,O   7,Zr  2,Zr  1)    143.3533         0.010000   
    632. D(Zr  1,O   7,Zr  4,O   9)     92.9527         0.010000   
    633. D(Zr  2,O   8,Zr  5,Zr  0)     47.8533         0.010000   
    634. D(Zr  5,O   8,Zr  2,Zr  1)   -140.4082         0.010000   
    635. D(Zr  1,O   8,Zr  2,Zr  5)    140.4082         0.010000   
    636. D(Zr  1,O   8,Zr  5,Zr  2)   -125.3724         0.010000   
    637. D(Zr  1,O   8,Zr  2,O   7)     21.0366         0.010000   
    638. D(Zr  1,O   8,Zr  5,Zr  0)    -77.5191         0.010000   
    639. D(Zr  2,O   8,Zr  1,Zr  4)    -48.3983         0.010000   
    640. D(Zr  5,O   8,Zr  1,Zr  2)    124.9880         0.010000   
    641. D(Zr  2,O   8,Zr  1,O   7)    -21.1384         0.010000   
    642. D(Zr  0,O   9,Zr  4,Zr  1)     76.6660         0.010000   
    643. D(Zr  0,O   9,Zr  4,Zr  3)    124.2613         0.010000   
    644. D(Zr  3,O   9,Zr  4,Zr  1)    -47.5952         0.010000   
    645. D(Zr  4,O   9,Zr  3,Zr  0)    139.4540         0.010000   
    646. D(Zr  0,O   9,Zr  3,O   6)    -20.6293         0.010000   
    647. D(Zr  4,O   9,Zr  0,Zr  3)   -123.8074         0.010000   
    648. D(Zr  3,O   9,Zr  0,O   6)     20.8071         0.010000   
    649. D(Zr  3,O   9,Zr  0,Zr  5)     48.1462         0.010000   
    650. D(Zr  0,O   9,Zr  3,Zr  4)   -139.4540         0.010000   
    651. D(Zr  3,O  10,Zr  4,Zr  1)    168.7840         0.010000   
    652. D(Zr  1,O  10,Zr  4,Zr  3)   -168.7840         0.010000   
    653. D(Zr  1,O  10,Zr  4,O   7)    -31.6019         0.010000   
    654. D(Zr  1,O  10,Zr  3,Zr  4)    161.7402         0.010000   
    655. D(Zr  4,O  10,Zr  1,Zr  2)     61.3466         0.010000   
    656. D(Zr  1,O  10,Zr  3,Zr  0)    100.3958         0.010000   
    657. D(Zr  3,O  10,Zr  1,Zr  4)   -162.1395         0.010000   
    658. D(Zr  4,O  10,Zr  3,Zr  0)    -61.3443         0.010000   
    659. D(Zr  3,O  10,Zr  1,Zr  2)   -100.7928         0.010000   
    660. D(Zr  2,O  11,Zr  5,Zr  0)   -168.7838         0.010000   
    661. D(Zr  0,O  11,Zr  2,Zr  5)   -161.7611         0.010000   
    662. D(Zr  5,O  11,Zr  2,Zr  1)     61.0841         0.010000   
    663. D(Zr  0,O  11,Zr  5,Zr  2)    168.7838         0.010000   
    664. D(Zr  0,O  11,Zr  2,Zr  1)   -100.6770         0.010000   
    665. D(Zr  5,O  11,Zr  0,Zr  3)    -61.5782         0.010000   
    666. D(Zr  0,O  11,Zr  5,O   6)     31.6338         0.010000   
    667. D(Zr  2,O  11,Zr  0,Zr  5)    162.1512         0.010000   
    668. D(Zr  2,O  11,Zr  0,Zr  3)    100.5730         0.010000   
    669. D(C  36,O  12,Zr  0,Zr  5)     31.7406         0.010000   
    670. D(C  36,O  12,Zr  0,Zr  3)     95.4448         0.010000   
    671. D(H  71,O  13,Zr  0,Zr  3)   -131.1478         0.010000   
    672. D(C  37,O  13,Zr  0,Zr  5)    -19.6529         0.010000   
    673. D(C  37,O  13,Zr  0,Zr  3)     28.6917         0.010000   
    674. D(C  38,O  14,Zr  0,Zr  5)     67.8156         0.010000   
    675. D(C  38,O  14,Zr  0,Zr  3)     35.0467         0.010000   
    676. D(H  71,O  15,Zr  0,Zr  3)     85.8439         0.010000   
    677. D(C  39,O  15,Zr  0,Zr  5)     52.4419         0.010000   
    678. D(C  39,O  15,Zr  0,Zr  3)    -33.6930         0.010000   
    679. D(C  40,O  16,Zr  1,Zr  4)    -58.3345         0.010000   
    680. D(C  40,O  16,Zr  1,Zr  2)     27.3789         0.010000   
    681. D(C  41,O  17,Zr  1,Zr  4)    -67.8597         0.010000   
    682. D(C  41,O  17,Zr  1,Zr  2)    -35.0159         0.010000   
    683. D(C  42,O  18,Zr  1,Zr  4)     20.7505         0.010000   
    684. D(C  42,O  18,Zr  1,Zr  2)    -26.6966         0.010000   
    685. D(C  43,O  19,Zr  1,Zr  4)    -31.9292         0.010000   
    686. D(C  43,O  19,Zr  1,Zr  2)    -95.5475         0.010000   
    687. D(C  44,O  20,Zr  2,Zr  5)      9.3217         0.010000   
    688. D(C  44,O  20,Zr  2,Zr  1)    -50.6188         0.010000   
    689. D(C  38,O  21,Zr  2,Zr  5)    -31.1711         0.010000   
    690. D(C  38,O  21,Zr  2,Zr  1)     23.0324         0.010000   
    691. D(C  42,O  22,Zr  2,Zr  5)     25.0275         0.010000   
    692. D(C  42,O  22,Zr  2,Zr  1)    -25.7231         0.010000   
    693. D(C  45,O  23,Zr  2,Zr  5)    -68.7462         0.010000   
    694. D(C  45,O  23,Zr  2,Zr  1)      4.2536         0.010000   
    695. D(C  46,O  24,Zr  3,Zr  4)     67.5073         0.010000   
    696. D(C  46,O  24,Zr  3,Zr  0)     -5.7414         0.010000   
    697. D(H  74,O  25,Zr  3,Zr  0)    128.8000         0.010000   
    698. D(C  37,O  25,Zr  3,Zr  4)    -29.1474         0.010000   
    699. D(C  37,O  25,Zr  3,Zr  0)     21.5903         0.010000   
    700. D(C  41,O  26,Zr  3,Zr  4)     31.8192         0.010000   
    701. D(C  41,O  26,Zr  3,Zr  0)    -23.2650         0.010000   
    702. D(H  74,O  27,Zr  3,Zr  0)    -81.7012         0.010000   
    703. D(C  47,O  27,Zr  3,Zr  0)     52.5986         0.010000   
    704. D(C  47,O  27,Zr  3,Zr  4)     -6.6295         0.010000   
    705. D(H  67,O  28,Zr  4,Zr  1)   -166.0719         0.010000   
    706. D(C  47,O  28,Zr  4,Zr  3)    -14.2136         0.010000   
    707. D(C  47,O  28,Zr  4,Zr  1)     36.9361         0.010000   
    708. D(H  67,O  29,Zr  4,Zr  1)    171.3183         0.010000   
    709. D(C  39,O  29,Zr  4,Zr  3)     35.2407         0.010000   
    710. D(C  39,O  29,Zr  4,Zr  1)    -51.1922         0.010000   
    711. D(C  43,O  30,Zr  4,Zr  3)    -99.9976         0.010000   
    712. D(C  43,O  30,Zr  4,Zr  1)    -35.6370         0.010000   
    713. D(C  45,O  31,Zr  4,Zr  3)    -35.2421         0.010000   
    714. D(C  45,O  31,Zr  4,Zr  1)    -75.7167         0.010000   
    715. D(C  46,O  32,Zr  5,Zr  2)     33.0256         0.010000   
    716. D(C  46,O  32,Zr  5,Zr  0)     75.3745         0.010000   
    717. D(C  36,O  33,Zr  5,Zr  2)     99.2409         0.010000   
    718. D(C  36,O  33,Zr  5,Zr  0)     35.0468         0.010000   
    719. D(C  40,O  34,Zr  5,Zr  2)    -32.0160         0.010000   
    720. D(C  40,O  34,Zr  5,Zr  0)     54.1777         0.010000   
    721. D(C  44,O  35,Zr  5,Zr  2)      9.5584         0.010000   
    722. D(C  44,O  35,Zr  5,Zr  0)    -41.0542         0.010000   
    723. D(O  33,C  36,O  12,Zr  0)    -21.0303         0.045816   
    724. D(H  58,C  36,O  33,Zr  5)    153.2640         0.045634   
    725. D(O  12,C  36,O  33,Zr  5)    -27.1202         0.045634   
    726. D(H  58,C  36,O  12,Zr  0)    158.5855         0.045816   
    727. D(H  51,C  37,O  25,Zr  3)    169.6146         0.059808   
    728. D(O  13,C  37,O  25,H  74)   -119.6452         0.059808   
    729. D(O  13,C  37,O  25,Zr  3)    -10.1504         0.059808   
    730. D(H  51,C  37,O  13,Zr  0)    153.3384         0.063809   
    731. D(O  25,C  37,O  13,H  71)    129.0634         0.063809   
    732. D(O  25,C  37,O  13,Zr  0)    -26.8964         0.063809   
    733. D(H  50,C  38,O  21,Zr  2)    169.9974         0.047418   
    734. D(O  14,C  38,O  21,Zr  2)     -9.3270         0.047418   
    735. D(H  50,C  38,O  14,Zr  0)    164.5466         0.047682   
    736. D(O  21,C  38,O  14,Zr  0)    -16.1290         0.047682   
    737. D(H  54,C  39,O  29,Zr  4)    174.7636         0.062614   
    738. D(O  15,C  39,O  29,H  67)    129.6270         0.062614   
    739. D(O  15,C  39,O  29,Zr  4)     -5.2182         0.062614   
    740. D(H  54,C  39,O  15,Zr  0)   -175.9598         0.062960   
    741. D(O  29,C  39,O  15,H  71)   -114.1144         0.062960   
    742. D(O  29,C  39,O  15,Zr  0)      4.0220         0.062960   
    743. D(H  56,C  40,O  34,Zr  5)    175.3153         0.048253   
    744. D(O  16,C  40,O  34,Zr  5)     -5.6909         0.048253   
    745. D(H  56,C  40,O  16,Zr  1)   -172.2013         0.048386   
    746. D(O  34,C  40,O  16,Zr  1)      8.8052         0.048386   
    747. D(H  48,C  41,O  26,Zr  3)   -171.1054         0.047483   
    748. D(O  17,C  41,O  26,Zr  3)      8.0629         0.047483   
    749. D(H  48,C  41,O  17,Zr  1)   -163.8425         0.047697   
    750. D(O  26,C  41,O  17,Zr  1)     16.9894         0.047697   
    751. D(H  49,C  42,O  22,Zr  2)   -162.1283         0.046078   
    752. D(O  18,C  42,O  22,Zr  2)     17.7831         0.046078   
    753. D(H  49,C  42,O  18,Zr  1)   -159.2718         0.046104   
    754. D(O  22,C  42,O  18,Zr  1)     20.8167         0.046104   
    755. D(H  52,C  43,O  30,Zr  4)   -152.5173         0.045589   
    756. D(O  19,C  43,O  30,Zr  4)     27.9017         0.045589   
    757. D(H  52,C  43,O  19,Zr  1)   -158.7909         0.045799   
    758. D(O  30,C  43,O  19,Zr  1)     20.7902         0.045799   
    759. D(H  59,C  44,O  35,Zr  5)    172.7016         0.046932   
    760. D(O  20,C  44,O  35,Zr  5)     -7.3600         0.046932   
    761. D(H  59,C  44,O  20,Zr  2)    173.3459         0.046870   
    762. D(O  35,C  44,O  20,Zr  2)     -6.5924         0.046870   
    763. D(H  55,C  45,O  31,Zr  4)   -162.9302         0.047033   
    764. D(O  23,C  45,O  31,Zr  4)     16.5585         0.047033   
    765. D(H  55,C  45,O  23,Zr  2)   -149.1017         0.046305   
    766. D(O  31,C  45,O  23,Zr  2)     31.4098         0.046305   
    767. D(H  57,C  46,O  32,Zr  5)    161.9714         0.047111   
    768. D(O  24,C  46,O  32,Zr  5)    -17.6789         0.047111   
    769. D(H  57,C  46,O  24,Zr  3)    151.2673         0.046443   
    770. D(O  32,C  46,O  24,Zr  3)    -29.0824         0.046443   
    771. D(H  53,C  47,O  28,Zr  4)   -164.1551         0.056304   
    772. D(O  27,C  47,O  28,H  67)   -135.4104         0.056304   
    773. D(O  27,C  47,O  28,Zr  4)     16.1719         0.056304   
    774. D(H  53,C  47,O  27,Zr  3)    179.4669         0.056366   
    775. D(O  28,C  47,O  27,H  74)    134.8777         0.056366   
    776. D(O  28,C  47,O  27,Zr  3)     -0.8597         0.056366   
    777. D(H  66,H  51,C  37,O  13)     74.3023         0.141077   
    778. D(H  73,H  51,C  37,O  25)    -91.3959         0.141077   
    779. D(H  73,H  51,C  37,O  13)     88.3957         0.141077   
    780. D(H  69,H  53,C  47,O  27)     86.3955         0.142610   
    781. D(H  75,H  53,C  47,O  28)    -32.5613         0.142610   
    782. D(H  75,H  53,C  47,O  27)    147.1498         0.142610   
    783. D(H  64,H  54,C  39,O  29)     87.4855         0.137019   
    784. D(H  64,H  54,C  39,O  15)    -92.5301         0.137019   
    785. D(H  63,Al 61,Al 60,H  64)    -30.2291         0.010000   
    786. D(H  62,Al 61,Al 60,H  65)    -11.2753         0.010000   
    787. D(H  62,Al 61,Al 60,H  64)   -116.8774         0.010000   
    788. D(Al 68,H  62,Al 61,H  63)    169.9851         0.010000   
    789. D(Al 68,H  62,Al 61,Al 60)    -80.7999         0.010000   
    790. D(H  54,H  64,Al 61,Al 60)    130.4771         0.010000   
    791. D(Al 60,H  64,Al 61,H  62)     78.8575         0.010000   
    792. D(H  54,H  64,Al 60,Al 61)   -125.7193         0.010000   
    793. D(Al 61,H  64,Al 60,H  66)     27.1639         0.010000   
    794. D(Al 61,H  64,Al 60,H  65)    -79.5152         0.010000   
    795. D(Al 61,H  64,H  54,C  39)    -67.7367         0.010000   
    796. D(Al 60,H  64,H  54,C  39)     56.2828         0.010000   
    797. D(Al 61,H  64,C  39,O  15)   -129.7755         0.010000   
    798. D(Al 60,H  64,Al 61,H  63)    151.3957         0.010000   
    799. D(Al 60,H  64,C  39,O  29)    114.9774         0.010000   
    800. D(Al 60,H  64,C  39,O  15)    -18.7543         0.010000   
    801. D(C  37,H  66,Al 60,Al 61)    128.7431         0.010000   
    802. D(Al 72,H  66,Al 60,Al 61)    -98.0841         0.010000   
    803. D(Al 72,H  66,H  51,C  37)    112.1057         0.010000   
    804. D(Al 60,H  66,H  51,H  73)    106.0362         0.010000   
    805. D(Al 60,H  66,H  51,C  37)    -92.5721         0.010000   
    806. D(Al 72,H  66,C  37,O  13)    175.3389         0.010000   
    807. D(Al 60,H  66,C  37,O  25)   -149.4489         0.010000   
    808. D(Al 60,H  66,C  37,O  13)    -23.4498         0.010000   
    809. D(Al 72,H  66,O  13,Zr  0)    122.5293         0.010000   
    810. D(Al 72,H  66,Al 60,H  64)   -114.1501         0.010000   
    811. D(Al 60,H  66,O  13,C  37)    158.0062         0.010000   
    812. D(Al 60,H  66,O  13,Zr  0)    -74.3845         0.010000   
    813. D(O  28,H  67,Al 61,Al 60)     68.4496         0.010000   
    814. D(O  29,H  67,Al 61,H  62)   -178.6681         0.010000   
    815. D(O  29,H  67,Al 61,Al 60)      5.8658         0.010000   
    816. D(O  28,H  67,O  29,Zr  4)     25.5648         0.010000   
    817. D(Al 61,H  67,O  29,C  39)    -36.7214         0.010000   
    818. D(Al 61,H  67,O  29,Zr  4)    116.1389         0.010000   
    819. D(O  29,H  67,O  28,Zr  4)    -26.1310         0.010000   
    820. D(Al 61,H  67,O  28,C  47)     30.6482         0.010000   
    821. D(Al 61,H  67,O  28,Zr  4)   -127.6482         0.010000   
    822. D(H  70,Al 68,H  62,Al 61)    123.1551         0.010000   
    823. D(H  69,Al 68,H  62,Al 61)     29.6733         0.010000   
    824. D(H  69,Al 68,Al 61,Al 60)    -44.2466         0.010000   
    825. D(H  62,Al 68,Al 61,H  63)    -11.0607         0.010000   
    826. D(H  62,Al 68,Al 61,Al 60)    107.8062         0.010000   
    827. D(H  53,H  69,Al 68,Al 61)    -76.6674         0.010000   
    828. D(Al 72,H  69,Al 68,H  62)     86.5405         0.010000   
    829. D(Al 72,H  69,Al 68,Al 61)    104.0024         0.010000   
    830. D(Al 72,H  69,H  53,C  47)    -53.7488         0.010000   
    831. D(Al 68,H  69,H  53,H  75)     -9.4670         0.010000   
    832. D(Al 68,H  69,H  53,C  47)    126.3931         0.010000   
    833. D(O  15,H  71,Al 60,Al 61)     -5.1386         0.010000   
    834. D(O  13,H  71,Al 60,Al 61)    -80.1630         0.010000   
    835. D(O  13,H  71,C  39,O  15)    -45.5763         0.010000   
    836. D(Al 60,H  71,C  39,O  29)    -45.7508         0.010000   
    837. D(Al 60,H  71,C  39,O  15)   -159.7887         0.010000   
    838. D(O  13,H  71,O  15,Zr  0)    -14.1997         0.010000   
    839. D(Al 60,H  71,O  15,C  39)     22.8157         0.010000   
    840. D(Al 60,H  71,O  15,Zr  0)   -120.7822         0.010000   
    841. D(O  15,H  71,O  13,Zr  0)     14.4930         0.010000   
    842. D(O  13,H  71,Al 60,H  64)   -110.2543         0.010000   
    843. D(Al 60,H  71,O  13,C  37)    -35.3607         0.010000   
    844. D(Al 60,H  71,O  13,Zr  0)    125.1846         0.010000   
    845. D(Al 60,Al 72,Al 68,Al 61)     31.0330         0.010000   
    846. D(Al 68,Al 72,H  66,Al 60)     66.7222         0.010000   
    847. D(Al 60,Al 72,H  66,O  13)    138.8486         0.010000   
    848. D(Al 60,Al 72,H  66,C  37)    136.7180         0.010000   
    849. D(Al 68,Al 72,Al 60,Al 61)    -30.9719         0.010000   
    850. D(H  66,Al 72,Al 60,H  64)     71.7118         0.010000   
    851. D(H  66,Al 72,Al 60,Al 61)     79.8443         0.010000   
    852. D(H  66,Al 72,H  69,Al 68)    -85.4030         0.010000   
    853. D(Al 60,Al 72,H  69,H  53)    108.0013         0.010000   
    854. D(Al 60,Al 72,H  69,Al 68)    -72.6628         0.010000   
    855. D(H  66,Al 72,Al 68,Al 61)     18.7052         0.010000   
    856. D(Al 60,Al 72,Al 68,H  62)     10.1446         0.010000   
    857. D(H  51,H  73,Al 72,Al 60)    -85.1433         0.010000   
    858. D(Al 76,H  73,Al 72,H  66)    134.7013         0.010000   
    859. D(Al 76,H  73,Al 72,Al 60)    122.3171         0.010000   
    860. D(Al 76,H  73,H  51,C  37)    157.5348         0.010000   
    861. D(Al 72,H  73,H  51,H  66)     49.1451         0.010000   
    862. D(Al 72,H  73,H  51,C  37)     28.7511         0.010000   
    863. D(O  25,H  74,Al 72,Al 60)     21.1879         0.010000   
    864. D(O  27,H  74,Al 72,Al 60)    -45.5390         0.010000   
    865. D(O  27,H  74,H  53,C  47)    -23.3945         0.010000   
    866. D(Al 72,H  74,H  53,H  75)    -32.3062         0.010000   
    867. D(O  27,H  74,C  47,O  28)   -102.1835         0.010000   
    868. D(Al 72,H  74,C  47,O  28)     46.3880         0.010000   
    869. D(Al 72,H  74,C  47,O  27)    148.5715         0.010000   
    870. D(O  27,H  74,C  37,O  13)     65.2473         0.010000   
    871. D(Al 72,H  74,C  37,O  25)   -162.6927         0.010000   
    872. D(Al 72,H  74,C  37,O  13)    -47.4359         0.010000   
    873. D(O  25,H  74,O  27,Zr  3)     11.1769         0.010000   
    874. D(Al 72,H  74,H  53,C  47)    107.3344         0.010000   
    875. D(Al 72,H  74,O  27,C  47)    -33.9796         0.010000   
    876. D(Al 72,H  74,O  27,Zr  3)    113.0925         0.010000   
    877. D(O  27,H  74,O  25,Zr  3)    -10.6827         0.010000   
    878. D(O  27,H  74,Al 72,H  66)    -42.4606         0.010000   
    879. D(Al 72,H  74,O  25,C  37)     18.3966         0.010000   
    880. D(Al 72,H  74,O  25,Zr  3)   -114.6951         0.010000   
    881. D(H  53,H  75,Al 68,H  62)    100.0287         0.010000   
    882. D(H  53,H  75,Al 68,Al 61)     65.4028         0.010000   
    883. D(Al 68,H  75,H  53,H  69)     10.2731         0.010000   
    884. D(Al 68,H  75,H  53,C  47)    -72.0232         0.010000   
    885. D(H  77,Al 76,H  73,H  51)    -31.9691         0.010000   
    886. D(H  77,Al 76,H  73,Al 72)     95.2327         0.010000   
    887. D(Al 72,Al 76,H  73,H  51)   -127.2018         0.010000   
    888. D(H  77,Al 76,Al 72,Al 60)   -141.2475         0.010000   
    889. D(H  73,Al 76,Al 72,H  66)    -45.5211         0.010000   
    890. D(H  73,Al 76,Al 72,Al 60)    -53.5083         0.010000   
    891. D(Al 72,H  78,Al 76,H  77)    -92.7951         0.010000   
    892. D(Al 72,H  78,Al 76,H  73)     -0.9026         0.010000   
    893. D(Al 76,H  78,Al 72,H  66)    -59.0766         0.010000   
    894. D(Al 76,H  78,Al 72,Al 60)    -60.3799         0.010000   
    -----------------------------------------------------------------

Number of atoms                         .... 80
Number of degrees of freedom            .... 894


         *************************************************************
         *                GEOMETRY OPTIMIZATION CYCLE   1            *
         *************************************************************
---------------------------------
CARTESIAN COORDINATES (ANGSTROEM)
---------------------------------
  Zr    -0.633950    2.205424    1.404206
  Zr     0.462833   -2.054273   -1.463107
  Zr     1.799801   -0.948127    1.495403
  Zr    -1.962960    1.109752   -1.563036
  Zr     1.439468    1.159075   -1.798036
  Zr    -1.604592   -1.009221    1.735036
  O     -1.793747    0.741658    0.491118
  O      1.624422   -0.584162   -0.555338
  O      0.060738   -1.900556    0.658531
  O     -0.229264    2.068687   -0.725993
  O     -0.269714   -0.070917   -1.730141
  O      0.101923    0.228068    1.666662
  O     -2.150048    2.183272    2.703040
  O     -1.705512    3.695120    0.650585
  O      0.418071    2.063354    3.186958
  O      0.962763    3.345184    1.114151
  O     -1.122853   -3.212085   -1.155316
  O     -0.592133   -1.920204   -3.238312
  O      1.509090   -3.558622   -0.692092
  O      1.980552   -2.039085   -2.757541
  O      1.366023   -2.130503    3.013050
  O      2.078853    0.406818    3.025517
  O      2.868765   -2.496791    0.877859
[...]
  (5) All vibrations are strictly harmonic

freq.      12.51  E(vib)   ...       0.57 
freq.      15.79  E(vib)   ...       0.57 
freq.      17.64  E(vib)   ...       0.57 
freq.      25.90  E(vib)   ...       0.56 
freq.      29.06  E(vib)   ...       0.55 
freq.      31.20  E(vib)   ...       0.55 
freq.      38.18  E(vib)   ...       0.54 
freq.      42.27  E(vib)   ...       0.53 
freq.      47.57  E(vib)   ...       0.53 
freq.      50.80  E(vib)   ...       0.52 
freq.      57.71  E(vib)   ...       0.51 
freq.      67.74  E(vib)   ...       0.50 
freq.      79.60  E(vib)   ...       0.49 
freq.      80.84  E(vib)   ...       0.48 
freq.      89.52  E(vib)   ...       0.47 
freq.      94.15  E(vib)   ...       0.47 
freq.      94.90  E(vib)   ...       0.47 
freq.      99.25  E(vib)   ...       0.46 
freq.     100.09  E(vib)   ...       0.46 
freq.     105.35  E(vib)   ...       0.45 
freq.     107.18  E(vib)   ...       0.45 
freq.     109.62  E(vib)   ...       0.45 
freq.     111.31  E(vib)   ...       0.45 
freq.     115.32  E(vib)   ...       0.44 
freq.     117.94  E(vib)   ...       0.44 
freq.     128.22  E(vib)   ...       0.43 
freq.     129.73  E(vib)   ...       0.43 
freq.     134.17  E(vib)   ...       0.42 
freq.     142.52  E(vib)   ...       0.41 
freq.     150.67  E(vib)   ...       0.40 
freq.     151.44  E(vib)   ...       0.40 
freq.     151.64  E(vib)   ...       0.40 
freq.     152.43  E(vib)   ...       0.40 
freq.     155.84  E(vib)   ...       0.40 
freq.     158.97  E(vib)   ...       0.39 
freq.     159.41  E(vib)   ...       0.39 
freq.     162.10  E(vib)   ...       0.39 
freq.     163.32  E(vib)   ...       0.39 
freq.     167.32  E(vib)   ...       0.39 
freq.     168.12  E(vib)   ...       0.38 
freq.     170.57  E(vib)   ...       0.38 
freq.     172.49  E(vib)   ...       0.38 
freq.     186.74  E(vib)   ...       0.37 
freq.     188.06  E(vib)   ...       0.36 
freq.     188.46  E(vib)   ...       0.36 
freq.     189.83  E(vib)   ...       0.36 
freq.     193.05  E(vib)   ...       0.36 
freq.     194.58  E(vib)   ...       0.36 
freq.     195.17  E(vib)   ...       0.36 
freq.     202.70  E(vib)   ...       0.35 
freq.     206.05  E(vib)   ...       0.35 
freq.     208.06  E(vib)   ...       0.34 
freq.     213.13  E(vib)   ...       0.34 
freq.     214.63  E(vib)   ...       0.34 
freq.     228.34  E(vib)   ...       0.32 
freq.     232.44  E(vib)   ...       0.32 
freq.     233.24  E(vib)   ...       0.32 
freq.     238.72  E(vib)   ...       0.32 
freq.     239.20  E(vib)   ...       0.31 
freq.     243.27  E(vib)   ...       0.31 
freq.     259.63  E(vib)   ...       0.30 
freq.     261.46  E(vib)   ...       0.30 
freq.     262.31  E(vib)   ...       0.29 
freq.     263.04  E(vib)   ...       0.29 
freq.     264.89  E(vib)   ...       0.29 
freq.     266.46  E(vib)   ...       0.29 
freq.     268.44  E(vib)   ...       0.29 
freq.     269.69  E(vib)   ...       0.29 
freq.     273.52  E(vib)   ...       0.29 
freq.     274.21  E(vib)   ...       0.28 
freq.     274.94  E(vib)   ...       0.28 
freq.     275.70  E(vib)   ...       0.28 
freq.     278.38  E(vib)   ...       0.28 
freq.     278.92  E(vib)   ...       0.28 
freq.     284.94  E(vib)   ...       0.28 
freq.     288.91  E(vib)   ...       0.27 
freq.     289.53  E(vib)   ...       0.27 
freq.     292.56  E(vib)   ...       0.27 
freq.     293.51  E(vib)   ...       0.27 
freq.     294.38  E(vib)   ...       0.27 
freq.     300.97  E(vib)   ...       0.26 
freq.     303.24  E(vib)   ...       0.26 
freq.     305.44  E(vib)   ...       0.26 
freq.     307.03  E(vib)   ...       0.26 
freq.     310.23  E(vib)   ...       0.26 
freq.     312.75  E(vib)   ...       0.25 
freq.     315.01  E(vib)   ...       0.25 
freq.     316.30  E(vib)   ...       0.25 
freq.     317.23  E(vib)   ...       0.25 
freq.     317.52  E(vib)   ...       0.25 
freq.     322.77  E(vib)   ...       0.25 
freq.     325.84  E(vib)   ...       0.24 
freq.     339.09  E(vib)   ...       0.23 
freq.     341.21  E(vib)   ...       0.23 
freq.     350.31  E(vib)   ...       0.23 
freq.     352.18  E(vib)   ...       0.23 
freq.     357.22  E(vib)   ...       0.22 
freq.     358.88  E(vib)   ...       0.22 
freq.     363.42  E(vib)   ...       0.22 
freq.     369.54  E(vib)   ...       0.21 
freq.     383.24  E(vib)   ...       0.20 
freq.     384.50  E(vib)   ...       0.20 
freq.     393.83  E(vib)   ...       0.20 
freq.     394.74  E(vib)   ...       0.20 
freq.     398.62  E(vib)   ...       0.19 
freq.     399.28  E(vib)   ...       0.19 
freq.     402.09  E(vib)   ...       0.19 
freq.     410.89  E(vib)   ...       0.19 
freq.     414.72  E(vib)   ...       0.19 
freq.     419.93  E(vib)   ...       0.18 
freq.     422.37  E(vib)   ...       0.18 
freq.     443.68  E(vib)   ...       0.17 
freq.     458.03  E(vib)   ...       0.16 
freq.     468.67  E(vib)   ...       0.16 
freq.     472.51  E(vib)   ...       0.15 
freq.     479.37  E(vib)   ...       0.15 
freq.     481.61  E(vib)   ...       0.15 
freq.     498.36  E(vib)   ...       0.14 
freq.     522.81  E(vib)   ...       0.13 
freq.     528.53  E(vib)   ...       0.13 
freq.     538.60  E(vib)   ...       0.12 
freq.     582.86  E(vib)   ...       0.11 
freq.     617.81  E(vib)   ...       0.09 
freq.     649.69  E(vib)   ...       0.08 
freq.     657.30  E(vib)   ...       0.08 
freq.     668.94  E(vib)   ...       0.08 
freq.     670.30  E(vib)   ...       0.08 
freq.     673.43  E(vib)   ...       0.08 
freq.     680.53  E(vib)   ...       0.08 
freq.     682.79  E(vib)   ...       0.08 
freq.     683.71  E(vib)   ...       0.07 
freq.     692.83  E(vib)   ...       0.07 
freq.     693.99  E(vib)   ...       0.07 
freq.     719.25  E(vib)   ...       0.07 
freq.     726.60  E(vib)   ...       0.06 
freq.     734.33  E(vib)   ...       0.06 
freq.     734.85  E(vib)   ...       0.06 
freq.     735.06  E(vib)   ...       0.06 
freq.     736.12  E(vib)   ...       0.06 
freq.     736.27  E(vib)   ...       0.06 
freq.     738.52  E(vib)   ...       0.06 
freq.     739.10  E(vib)   ...       0.06 
freq.     739.27  E(vib)   ...       0.06 
freq.     739.51  E(vib)   ...       0.06 
freq.     739.85  E(vib)   ...       0.06 
freq.     742.38  E(vib)   ...       0.06 
freq.     743.31  E(vib)   ...       0.06 
freq.     773.42  E(vib)   ...       0.05 
freq.     786.84  E(vib)   ...       0.05 
freq.     808.82  E(vib)   ...       0.05 
freq.     868.15  E(vib)   ...       0.04 
freq.     984.98  E(vib)   ...       0.02 
freq.     998.80  E(vib)   ...       0.02 
freq.     999.14  E(vib)   ...       0.02 
freq.     999.36  E(vib)   ...       0.02 
freq.     999.61  E(vib)   ...       0.02 
freq.    1000.88  E(vib)   ...       0.02 
freq.    1001.40  E(vib)   ...       0.02 
freq.    1004.56  E(vib)   ...       0.02 
freq.    1004.88  E(vib)   ...       0.02 
freq.    1005.07  E(vib)   ...       0.02 
freq.    1005.52  E(vib)   ...       0.02 
freq.    1005.63  E(vib)   ...       0.02 
freq.    1006.04  E(vib)   ...       0.02 
freq.    1088.67  E(vib)   ...       0.02 
freq.    1168.68  E(vib)   ...       0.01 
freq.    1347.94  E(vib)   ...       0.01 
freq.    1351.39  E(vib)   ...       0.01 
freq.    1351.66  E(vib)   ...       0.01 
freq.    1353.26  E(vib)   ...       0.01 
freq.    1353.75  E(vib)   ...       0.01 
freq.    1354.11  E(vib)   ...       0.01 
freq.    1354.60  E(vib)   ...       0.01 
freq.    1354.79  E(vib)   ...       0.01 
freq.    1355.58  E(vib)   ...       0.01 
freq.    1355.89  E(vib)   ...       0.01 
freq.    1356.73  E(vib)   ...       0.01 
freq.    1358.17  E(vib)   ...       0.01 
freq.    1360.41  E(vib)   ...       0.01 
freq.    1361.02  E(vib)   ...       0.01 
freq.    1361.43  E(vib)   ...       0.01 
freq.    1361.71  E(vib)   ...       0.01 
freq.    1362.71  E(vib)   ...       0.01 
freq.    1366.03  E(vib)   ...       0.01 
freq.    1366.51  E(vib)   ...       0.01 
freq.    1366.93  E(vib)   ...       0.01 
freq.    1368.70  E(vib)   ...       0.01 
freq.    1370.29  E(vib)   ...       0.01 
freq.    1373.78  E(vib)   ...       0.01 
freq.    1374.23  E(vib)   ...       0.01 
freq.    1382.72  E(vib)   ...       0.01 
freq.    1392.43  E(vib)   ...       0.00 
freq.    1522.78  E(vib)   ...       0.00 
freq.    1540.56  E(vib)   ...       0.00 
freq.    1549.70  E(vib)   ...       0.00 
freq.    1563.76  E(vib)   ...       0.00 
freq.    1565.50  E(vib)   ...       0.00 
freq.    1569.34  E(vib)   ...       0.00 
freq.    1576.84  E(vib)   ...       0.00 
freq.    1580.43  E(vib)   ...       0.00 
freq.    1587.98  E(vib)   ...       0.00 
freq.    1633.22  E(vib)   ...       0.00 
freq.    1634.44  E(vib)   ...       0.00 
freq.    1636.09  E(vib)   ...       0.00 
freq.    1638.30  E(vib)   ...       0.00 
freq.    1640.80  E(vib)   ...       0.00 
freq.    1776.22  E(vib)   ...       0.00 
freq.    1835.43  E(vib)   ...       0.00 
freq.    1840.95  E(vib)   ...       0.00 
freq.    1865.25  E(vib)   ...       0.00 
freq.    1877.66  E(vib)   ...       0.00 
freq.    1883.74  E(vib)   ...       0.00 
freq.    1890.63  E(vib)   ...       0.00 
freq.    1894.54  E(vib)   ...       0.00 
freq.    1902.76  E(vib)   ...       0.00 
freq.    1921.48  E(vib)   ...       0.00 
freq.    1925.35  E(vib)   ...       0.00 
freq.    1931.57  E(vib)   ...       0.00 
freq.    2875.43  E(vib)   ...       0.00 
freq.    2886.34  E(vib)   ...       0.00 
freq.    2887.33  E(vib)   ...       0.00 
freq.    2888.45  E(vib)   ...       0.00 
freq.    2890.66  E(vib)   ...       0.00 
freq.    2893.23  E(vib)   ...       0.00 
freq.    2899.13  E(vib)   ...       0.00 
freq.    2904.67  E(vib)   ...       0.00 
freq.    2907.12  E(vib)   ...       0.00 
freq.    2907.30  E(vib)   ...       0.00 
freq.    2907.79  E(vib)   ...       0.00 
freq.    2908.92  E(vib)   ...       0.00 

------------
INNER ENERGY
------------

The inner energy is: U= E(el) + E(ZPE) + E(vib) + E(rot) + E(trans)
    E(el)   - is the total energy from the electronic structure calculation
              = E(kin-el) + E(nuc-el) + E(el-el) + E(nuc-nuc)
    E(ZPE)  - the the zero temperature vibrational energy from the frequency calculation
    E(vib)  - the the finite temperature correction to E(ZPE) due to population
              of excited vibrational states
    E(rot)  - is the rotational thermal energy
    E(trans)- is the translational thermal energy

Summary of contributions to the inner energy U:
Electronic energy                ...  -4220.48510774 Eh
Zero point energy                ...      0.41303552 Eh     259.18 kcal/mol
Thermal vibrational correction   ...      0.06704548 Eh      42.07 kcal/mol
Thermal rotational correction    ...      0.00141627 Eh       0.89 kcal/mol
Thermal translational correction ...      0.00141627 Eh       0.89 kcal/mol
-----------------------------------------------------------------------
Total thermal energy                  -4220.00219420 Eh


Summary of corrections to the electronic energy:
(perhaps to be used in another calculation)
Total thermal correction                  0.06987802 Eh      43.85 kcal/mol
Non-thermal (ZPE) correction              0.41303552 Eh     259.18 kcal/mol
-----------------------------------------------------------------------
Total correction                          0.48291354 Eh     303.03 kcal/mol


--------
ENTHALPY
--------

The enthalpy is H = U + kB*T
                kB is Boltzmann's constant
Total thermal energy              ...  -4220.00219420 Eh 
Thermal Enthalpy correction       ...      0.00094421 Eh       0.59 kcal/mol
-----------------------------------------------------------------------
Total Enthalpy                    ...  -4220.00124999 Eh


Note: Only C1 symmetry has been detected, increase convergence thresholds 
      if your molecule has a higher symmetry. Symmetry factor of 1.0 is   
      used for the rotational entropy correction. 
 

Note: Rotational entropy computed according to Herzberg 
Infrared and Raman Spectra, Chapter V,1, Van Nostrand Reinhold, 1945 
Point Group:  C1, Symmetry Number:   1  
Rotational constants in cm-1:     0.001677     0.000961     0.000922 

Vibrational entropy computed according to the QRRHO of S. Grimme
Chem.Eur.J. 2012 18 9955 using a reference frequency of 100.0 cm-1


-------
ENTROPY
-------

The entropy contributions are T*S = T*(S(el)+S(vib)+S(rot)+S(trans))
     S(el)   - electronic entropy
     S(vib)  - vibrational entropy
     S(rot)  - rotational entropy
     S(trans)- translational entropy
The entropies will be listed as multiplied by the temperature to get
units of energy

Electronic entropy                ...      0.00000000 Eh      0.00 kcal/mol
Vibrational entropy               ...      0.12125227 Eh     76.09 kcal/mol
Rotational entropy                ...      0.01910701 Eh     11.99 kcal/mol
Translational entropy             ...      0.02253999 Eh     14.14 kcal/mol
-----------------------------------------------------------------------
Final entropy term                ...      0.16289927 Eh    102.22 kcal/mol

In case the symmetry of your molecule has not been determined correctly
or in case you have a reason to use a different symmetry number we print 
out the resulting rotational entropy values for sn=1,12:

 non-linear molecules -----------------------------------
|  sn= 1 | S(rot)=       0.01910701 Eh     11.99 kcal/mol|
|  sn= 2 | S(rot)=       0.01845255 Eh     11.58 kcal/mol|
|  sn= 3 | S(rot)=       0.01806972 Eh     11.34 kcal/mol|
|  sn= 4 | S(rot)=       0.01779810 Eh     11.17 kcal/mol|
|  sn= 5 | S(rot)=       0.01758741 Eh     11.04 kcal/mol|
|  sn= 6 | S(rot)=       0.01741526 Eh     10.93 kcal/mol|
|  sn= 7 | S(rot)=       0.01726972 Eh     10.84 kcal/mol|
|  sn= 8 | S(rot)=       0.01714364 Eh     10.76 kcal/mol|
|  sn= 9 | S(rot)=       0.01703243 Eh     10.69 kcal/mol|
|  sn=10 | S(rot)=       0.01693295 Eh     10.63 kcal/mol|
|  sn=11 | S(rot)=       0.01684296 Eh     10.57 kcal/mol|
|  sn=12 | S(rot)=       0.01676081 Eh     10.52 kcal/mol|
 linear molecules ---------------------------------------
|  Dinfh | S(rot)=       0.01192485 Eh      7.48 kcal/mol|
|  Cinfv | S(rot)=       0.01257930 Eh      7.89 kcal/mol|
 --------------------------------------------------------


-------------------
GIBBS FREE ENERGY
-------------------

The Gibbs free energy is G = H - T*S

Total enthalpy                    ...  -4220.00124999 Eh 
Total entropy correction          ...     -0.16289927 Eh   -102.22 kcal/mol
-----------------------------------------------------------------------
Final Gibbs free energy         ...  -4220.16414926 Eh

For completeness - the Gibbs free energy minus the electronic energy
G-E(el)                           ...      0.32095848 Eh    201.40 kcal/mol


Maximum memory used throughout the entire PROP-calculation: 154.7 MB

--------------------------------
SUGGESTED CITATIONS FOR THIS RUN
--------------------------------

Below you find a list of papers that are relevant to this ORCA run
We neither can nor want to force you to cite these papers, but we appreciate if you do
You receive ORCA, which is the product of decades of hard work by many enthusiastic individuals, for free
The only thing we kindly ask in return is that you cite our papers,
We deeply appreciate it, if you show your appreciation for ORCA by not just citing the generic ORCA reference.

Please note that relegating all ORCA citations to the supporting information does *not* help us.
SI sections are not indexed - citations you put there will not count into any citation statistics
But we need these citations in order to attract the funding resources that allow us to do what we are doing

Therefore, if you are a happy ORCA user, please consider citing a few of the papers listed below in the main body of your paper

In addition to the list printed below, the program has created the file run.bibtex that contains the list in bibtex format
You can import this file easily into all common literature databanks and citation aid programs


List of essential papers. We consider these as the minimum necessary citations

  1. Neese, F.
     Software update: the ORCA program system, version 6.0
     WIRES Comput. Molec. Sci. 2025 15(1), e70019
     doi.org/10.1002/wcms.7019

List of papers to cite with high priority. The work reported in these papers was absolutely
necessary for this run to complete.
Our perspective: the developers of density functionals and basis sets usually get cited in chemistry papers
Good! But without the algorithms to do something with them, the functionals or basis sets would not do anything.
Hence, in our opinion, the algorithm design and method developments papers are equally worthy of getting cited

  1. Neese, F.
     An improvement of the resolution of the identity approximation for the formation of the Coulomb matrix
     J. Comp. Chem. 2003 24(14), 1740-1747
     doi.org/10.1002/jcc.10318
  2. Grimme, S.; Antony, J.; Ehrlich, S.; Krieg, H.
     A consistent and accurate ab initio parametrization of density functional dispersion correction (DFT-D) for the 94 elements H-Pu
     J. Chem. Phys. 2010 132 , 154104
     doi.org/10.1063/1.3382344
  3. Grimme, S.; Ehrlich, S.; Goerigk, L.
     Effect of the damping function in dispersion corrected density functional theory
     J. Comput. Chem. 2011 32(7), 1456-1465
     doi.org/10.1002/jcc.21759
  4. Bykov, D.; Petrenko, T.; Izsak, R.; Kossmann, S.; Becker, U.; Valeev, E.; Neese, F.
     Efficient implementation of the analytic second derivatives of Hartree-Fock and hybrid DFT energies: a detailed analysis of different approximations
     Molec. Phys. 2015 113 , 1961-1977
     doi.org/10.1080/00268976.2015.1025114
  5. Helmich-Paris, B.
     A trust-region augmented Hessian implementation for restricted and unrestricted Hartree–Fock and Kohn–Sham methods
     J. Chem. Phys. 2021 154 , 164104
     doi.org/10.1063/5.0040798
  6. Neese, F.
     The SHARK Integral Generation and Digestion System
     J. Comp. Chem. 2022 44(3), 381
     doi.org/10.1002/jcc.26942

List of suggested additional citations. These are papers that are important in the 'surrounding' of 
of this run, or papers that preceded the highly important papers. If you like your results we are grateful for a citation.

  1. Neese, F.
     The ORCA program system
     WIRES Comput. Molec. Sci. 2012 2(1), 73-78
     doi.org/10.1002/wcms.81
  2. Neese, F.
     Software update: the ORCA program system, version 4.0
     WIRES Comput. Molec. Sci. 2018 8(1), 1-6
     doi.org/10.1002/wcms.1327
  3. Neese, F.; Wennmohs, F.; Becker, U.; Riplinger, C.
     The ORCA quantum chemistry program package
     J. Chem. Phys. 2020 152(22), 224108
     doi.org/10.1063/5.0004608
  4. Neese, F.
     Software update: The ORCA program system—Version 5.0
     WIRES Comput. Molec. Sci. 2022 12(1), e1606
     doi.org/10.1002/wcms.1606

List of optional additional citations

  1. Neese, F.
     Approximate second-order SCF convergence for spin unrestricted wavefunctions
     Chem. Phys. Lett. 2000 325(1-3), 93-98
     doi.org/10.1016/s0009-2614(00)00662-x

Timings for individual modules:

Sum of individual times          ...    10533.385 sec (= 175.556 min)
Startup calculation              ...      454.196 sec (=   7.570 min)   4.3 %
SCF iterations                   ...     2904.938 sec (=  48.416 min)  27.6 %
Property integrals               ...     2334.861 sec (=  38.914 min)  22.2 %
SCF Response                     ...     1636.452 sec (=  27.274 min)  15.5 %
Property calculations            ...     2065.803 sec (=  34.430 min)  19.6 %
SCF Gradient evaluation          ...     1111.541 sec (=  18.526 min)  10.6 %
Geometry relaxation              ...       25.594 sec (=   0.427 min)   0.2 %
                             ****ORCA TERMINATED NORMALLY****
TOTAL RUN TIME: 0 days 2 hours 55 minutes 59 seconds 806 msec
