
                                 *****************
                                 * O   R   C   A *
                                 *****************

                                            #,                                       
                                            ###                                      
                                            ####                                     
                                            #####                                    
                                            ######                                   
                                           ########,                                 
                                     ,,################,,,,,                         
                               ,,#################################,,                 
                          ,,##########################################,,             
                       ,#########################################, ''#####,          
                    ,#############################################,,   '####,        
                  ,##################################################,,,,####,       
                ,###########''''           ''''###############################       
              ,#####''   ,,,,##########,,,,          '''####'''          '####       
            ,##' ,,,,###########################,,,                        '##       
           ' ,,###''''                  '''############,,,                           
         ,,##''                                '''############,,,,        ,,,,,,###''
      ,#''                                            '''#######################'''  
     '                                                          ''''####''''         
             ,#######,   #######,   ,#######,      ##                                
            ,#'     '#,  ##    ##  ,#'     '#,    #''#        ,####,    ,#,          
            ##       ##  ##   ,#'  ##            #'  '#       #'       ,# #          
            ##       ##  #######   ##           ,######,      #####,      #          
            '#,     ,#'  ##    ##  '#,     ,#' ,#      #,     #,   #      #          
             '#######'   ##     ##  '#######'  #'      '#     '####' #    #          



                #########################################################
                #                        -***-                          #
                #          Department of theory and spectroscopy        #
                #                                                       #
                #                      Frank Neese                      #
                #                                                       #
                #     Directorship, Architecture, Infrastructure        #
                #                    SHARK, DRIVERS                     #
                #        Core code/Algorithms in most modules           #
                #                                                       #
                #        Max Planck Institute fuer Kohlenforschung      #
                #                Kaiser Wilhelm Platz 1                 #
                #                 D-45470 Muelheim/Ruhr                 #
                #                      Germany                          #
                #                                                       #
                #                  All rights reserved                  #
                #                        -***-                          #
                #########################################################


                         Program Version 6.1.0  -  RELEASE   -
                                (GIT: $679e74b$)
                          ($2025-06-10 18:02:51 +0200$)


 With contributions from (in alphabetic order):
[Max-Planck-Institut fuer Kohlenforschung]                               
  Daniel Aravena         : Magnetic Suceptibility                        
  Michael Atanasov       : Ab Initio Ligand Field Theory (pilot matlab implementation)
  Alexander A. Auer      : GIAO ZORA, VPT2 properties, NMR spectrum      
  Ute Becker             : All parallelization in ORCA, NUMFREQ, NUMCALC 
  Giovanni Bistoni       : ED, misc. LED, open-shell LED, HFLD           
  Dmytro Bykov           : pre 5.0 version of the SCF Hessian            
  Marcos Casanova-Páez   : Triplet and SCS-CIS(D). UHF-(DLPNO)-IP/EA/STEOM-CCSD. UHF-CVS-IP/STEOM-CCSD   
  Vijay G. Chilkuri      : MRCI spin determinant printing, contributions to CSF-ICE 
  Pauline Colinet        : FMM embedding                                 
  Dipayan Datta          : RHF DLPNO-CCSD density                        
  Achintya Kumar Dutta   : EOM-CC, STEOM-CC                              
  Nicolas Foglia         : Exact transition moments, OPA infrastructure, MCD improvements    
  Dmitry Ganyushin       : Spin-Orbit,Spin-Spin,Magnetic field MRCI      
  Miquel Garcia-Rates    : C-PCM and meta-GGA Hessian, CCSD/C-PCM, Gaussian charge scheme 
  Tiago L. C. Gouveia    : GS-ROHF, GS-ROCIS                             
  Yang Guo               : DLPNO-NEVPT2, F12-NEVPT2, CIM, IAO-localization        
  Andreas Hansen         : Spin unrestricted coupled pair/coupled cluster methods 
  Ingolf Harden          : AUTO-CI MPn and infrastructure                
  Benjamin Helmich-Paris : MC-RPA, TRAH-(SCF,CASSCF), AVAS, COSX integrals, SCF dyn. polar., MC-PDFT, srDFT 
  Lee Huntington         : MR-EOM, pCC                                   
  Robert Izsak           : Overlap fitted RIJCOSX, COSX-SCS-MP3, EOM     
  Riya Kayal             : Wick's Theorem for AUTO-CI, AUTO-CI UHF-CCSDT 
  Emily Kempfer          : AUTO-CI RHF CISDT and CCSDT, approximate NEVPT4
  Christian Kollmar      : KDIIS, OOCD, Brueckner-CCSD(T), CCSD density, CASPT2, CASPT2-K, improved NEVPT2 
  Axel Koslowski         : Symmetry handling                             
  Simone Kossmann        : meta-GGA functionals, TD-DFT gradient, OOMP2, (MP2 Hessian; deprecated post 5.0) 
  Lucas Lang             : DCDCAS, Hyperfine gauge corrections, ICE-SOC+SSC
  Marvin Lechner         : AUTO-CI (C++ implementation), FIC-MRCC        
  Spencer Leger          : CASSCF response                               
  Dagmar Lenk            : GEPOL surface, SMD, ORCA-2-JSON               
  Dimitrios Liakos       : Extrapolation schemes; Compound Job, Property file
  Dimitrios Manganas     : Further ROCIS development; embedding schemes. LFT, Crystal Embedding 
  Dimitrios Pantazis     : SARC Basis sets                               
  Anastasios Papadopoulos: AUTO-CI, single reference methods and gradients 
  Taras Petrenko         : pre 6.0 DFT Hessian and TD-DFT gradient,  ECA, NRVS 
  Petra Pikulova         : Analytic Raman intensities                    
  Peter Pinski           : DLPNO-MP2, DLPNO-MP2 Gradient                 
  Shashank Vittal Rao    : ES-AILFT, MagRelax                            
  Christoph Reimann      : Effective Core Potentials                     
  Marius Retegan         : Local ZFS, SOC                                
  Christoph Riplinger    : Optimizer, TS searches, QM/MM, DLPNO-CCSD(T), (RO)-DLPNO pert. Triples 
  Michael Roemelt        : Original ROCIS implementation, recursive CI coupling coefficients
  Masaaki Saitow         : Open-shell DLPNO-CCSD energy and density      
  Barbara Sandhoefer     : DKH picture change effects                    
  Yorick L. A. Schmerwitz: GMF and freeze-and-release deltaSCF, NEB S-IDPP initial path                    
  Kantharuban Sivalingam : CASSCF convergence/infrastructure, NEVPT2, NEVPT3, NEVPT4(SD), FIC-MRCI and CEPA variants
  Bernardo de Souza      : ESD, SOC TD-DFT                               
  Georgi L. Stoychev     : AutoAux, RI-MP2 NMR, DLPNO-MP2 response, X2C  
  Van Anh Tran           : RI-MP2 g-tensors                              
  Willem Van den Heuvel  : Paramagnetic NMR                              
  Zikuan Wang            : NOTCH, Electric field optimization            
  Frank Wennmohs         : Technical directorship and infrastructure     
  Hang Xu                : AUTO-CI-Response properties                   
                                                                         
[FACCTs GmbH]                                                            
  Markus Bursch, Nicolas Foglia, Miquel Garcia-Rates, Ingolf Harden, Hagen Neugebauer, Anastasios Papadopoulos, 
  Christoph Riplinger, Bernardo de Souza, Georgi L. Stoychev                                                    
                                                                 
  APM, various basis sets, CI-OPT, improved COSX, DLPNO-Multilevel,           
  DOCKER, DRACO, updates on ESD, Fragmentator, GOAT, IRC, LR-CPCM, L-BFGS, MBIS, meta-GGA TD-DFT gradient, ML-optimized integration grids, 
  MM, NACMEs, nearIR, NEB, NEB-TS, NL-DFT gradient (VV10), 2- and 3-layer-ONIOM, interface openCOSMO-RS, QMMM,   
  Crystal-QMMM, RESP, rigid body optimization, SF, symmetry and pop. for TD-DFT, various functionals, SOLVATOR                                   
                                                                         
[Other institutions]                                                     
  V. Asgeirsson          : NEB                                           
  Christoph Bannwarth    : sTDA-DFT, sTD-DFT, PBEh-3c, B97-3c, D3        
  Giovanni Bistoni       : ETS/NOCV, ADLD/ADEX, COVALED                  
  Martin Brehm           : Molecular dynamics                            
  Ronald Cardenas        : ETS/NOCV                                      
  Martina Colucci        : COVALED                                       
  Sebastian Ehlert       : rSCAN, r2SCAN, r2SCAN-3c, D4, dhf basis sets  
  Marvin Friede          : D4 for Fr, Ra, Ac-Lr                          
  Lars Goerigk           : TD-DFT with DH, B97 family of functionals     
  Stefan Grimme          : VdW corrections, initial TS optimization, DFT functionals, gCP, sTDA/sTD-DF 
  Waldemar Hujo          : DFT-NL                                        
  H. Jonsson             : NEB                                           
  Holger Kruse           : gCP                                           
  Marcel Mueller         : wB97X-3c, vDZP basis set                      
  Hagen Neugebauer       : wr2SCAN, Native XTB                           
  Gianluca Regni         : ADLD/ADEX                                     
  Tobias Risthaus        : pre 6.0 range-separated hybrid DFT and stability analysis
  Lukas Wittmann         : regularized MP2, r2SCAN double-hybrids, wr2SCAN        
                                                                         
We gratefully acknowledge several colleagues who have allowed us to      
interface, adapt or use parts of their codes:                            
  Ed Valeev, F. Pavosevic, A. Kumar             : LibInt (2-el integral package), F12 methods 
  Garnet Chan, S. Sharma, J. Yang, R. Olivares  : DMRG                   
  Ulf Ekstrom                                   : XCFun DFT Library      
  Mihaly Kallay                                 : mrcc  (arbitrary order and MRCC methods)
  Frank Weinhold                                : gennbo (NPA and NBO analysis)           
  Simon Mueller                                 : openCOSMO-RS                            
  Christopher J. Cramer and Donald G. Truhlar   : smd solvation model                     
  S Lehtola, MJT Oliveira, MAL Marques          : LibXC Library                           
  Liviu Ungur et al                             : ANISO software                          


 Your calculation uses the libint2 library for the computation of 2-el integrals
 For citations please refer to: http://libint.valeyev.net

 Your ORCA version has been built with support for libXC version: 7.0.0
 For citations please refer to: https://libxc.gitlab.io

 This ORCA versions uses:
   CBLAS   interface :  Fast vector & matrix operations
   LAPACKE interface :  Fast linear algebra routines
   SCALAPACK package :  Parallel linear algebra routines
   Shared memory     :  Shared parallel matrices
   BLAS/LAPACK       :  OpenBLAS 0.3.29  USE64BITINT DYNAMIC_ARCH NO_AFFINITY Bulldozer SINGLE_THREADED
        Core in use  :  Bulldozer
   Copyright (c) 2011-2014, The OpenBLAS Project


  ***********************************
  * Starting time: Wed Aug 27 18:18:03 2025
  * Host name:     chromium03
  * Process ID:    426426
  * Working dir.:  /local/scratch/mehlhorn/62295
  ***********************************



***************************************
The coordinates will be read from file: start.xyz
***************************************


Your calculation utilizes the atom-pairwise dispersion correction
with the Becke-Johnson damping scheme (D3BJ)


Warning: RI is on but no J-basis has been assigned. Assigning Def2/J (nothing to worry about!)
================================================================================

----- Orbital basis set information -----
Your calculation utilizes the basis: def2-TZVP
   F. Weigend and R. Ahlrichs, Phys. Chem. Chem. Phys. 7, 3297 (2005).

----- AuxJ basis set information -----
Your calculation utilizes the auxiliary basis: def2/J
   H-Rn: F. Weigend, Phys. Chem. Chem. Phys. 8, 1057 (2006).
   Fr-Lr: K. Eichkorn, F. Weigend, O. Treutler, R. Ahlrichs; Theor. Chem. Acc. 97, 119 (1997).

================================================================================
                                        WARNINGS
                       Please study these warnings very carefully!
================================================================================


WARNING: Geometry Optimization
  ===> : Switching off AutoStart
         For restart on a previous wavefunction, please use MOREAD

================================================================================
                                       INPUT FILE
================================================================================
NAME = run.inp
|  1> # Geometry optimization for (AlH3)n cluster
|  2> 
|  3> %pal nprocs 24  end
|  4> 
|  5> %geom MaxIter 500 end
|  6> 
|  7> %cpcm
|  8> 	epsilon 1.95778548766667
|  9> end
| 10> 
| 11> ! PBE def2-TZVP
| 12> ! RKS	# closed shell for AlH3
| 13> ! D3    #  dispersion correction
| 14> ! Freq 	# Frequency analysis to check the stabiltity of the structures
| 15> 
| 16> ! NoPop # population analysis not necessary	
| 17> 
| 18> ! DEFGRID3
| 19> ! TightSCF
| 20> ! TightOpt
| 21> 
| 22> ! SmallPrint
| 23> 
| 24> 
| 25> * xyzFile 0 1 start.xyz # only maingroup elements H and Al so there should be no net spin
| 26> 
| 27>                          ****END OF INPUT****
================================================================================

                       *****************************
                       * Geometry Optimization Run *
                       *****************************

Geometry optimization settings:
Update method            Update   .... BFGS
Choice of coordinates    CoordSys .... (2022) Redundant Internals
Initial Hessian          InHess   .... Almloef's Model
Max. no of cycles        MaxIter  .... 500

Convergence Tolerances:
Energy Change            TolE     ....  1.0000e-06 Eh
Max. Gradient            TolMAXG  ....  1.0000e-04 Eh/bohr
RMS Gradient             TolRMSG  ....  3.0000e-05 Eh/bohr
Max. Displacement        TolMAXD  ....  1.0000e-03 bohr
RMS Displacement         TolRMSD  ....  6.0000e-04 bohr
Strict Convergence                .... False

------------------------------------------------------------------------------
                        ORCA OPTIMIZATION COORDINATE SETUP
------------------------------------------------------------------------------

The optimization will be done in redundant internal coordinates (2022)
Making redundant internal coordinates   ...  (2022 redundants) done
Evaluating the initial hessian          ...  (Almloef) done
Evaluating the coordinates              ...  done
Calculating the B-matrix                .... done
Calculating the G-matrix                .... done
The number of degrees of freedom        ....   51

    -----------------------------------------------------------------
                    Redundant Internal Coordinates


    -----------------------------------------------------------------
         Definition                    Initial Value    Approx d2E/dq
    -----------------------------------------------------------------
      1. B(Al  1,Al  0)                  2.6134         0.342843   
      2. B(H   2,Al  0)                  1.7504         0.223024   
      3. B(H   2,Al  1)                  1.7504         0.223024   
      4. B(H   3,Al  1)                  1.5867         0.406949   
      5. B(H   4,Al  1)                  1.7504         0.223023   
      6. B(H   4,Al  0)                  1.7504         0.223023   
      7. B(H   5,Al  0)                  1.5867         0.407018   
      8. B(H   6,Al  0)                  1.5867         0.406949   
      9. B(H   7,Al  1)                  1.5867         0.407018   
     10. A(H   2,Al  0,H   5)          109.0099         0.348720   
     11. A(Al  1,Al  0,H   5)          116.0602         0.438192   
     12. A(H   4,Al  0,H   6)          108.9002         0.348710   
     13. A(H   4,Al  0,H   5)          109.0117         0.348720   
     14. A(Al  1,Al  0,H   4)           41.7120         0.393741   
     15. A(H   2,Al  0,H   4)           83.4234         0.315658   
     16. A(Al  1,Al  0,H   2)           41.7120         0.393741   
     17. A(H   5,Al  0,H   6)          128.4101         0.386592   
     18. A(H   2,Al  0,H   6)          108.9021         0.348710   
     19. A(Al  1,Al  0,H   6)          115.5298         0.438179   
     20. A(H   4,Al  1,H   7)          109.0105         0.348720   
     21. A(H   2,Al  1,H   3)          108.9012         0.348710   
     22. A(H   3,Al  1,H   4)          108.9015         0.348710   
     23. A(Al  0,Al  1,H   2)           41.7120         0.393741   
     24. A(H   2,Al  1,H   4)           83.4233         0.315658   
     25. A(Al  0,Al  1,H   4)           41.7120         0.393741   
     26. A(Al  0,Al  1,H   3)          115.5300         0.438179   
     27. A(Al  0,Al  1,H   7)          116.0599         0.438192   
     28. A(H   2,Al  1,H   7)          109.0108         0.348720   
     29. A(H   3,Al  1,H   7)          128.4101         0.386592   
     30. A(Al  0,H   2,Al  1)           96.5760         0.315658   
     31. A(Al  0,H   4,Al  1)           96.5759         0.315658   
     32. D(H   4,Al  1,Al  0,H   2)   -179.5780         0.010000   
     33. D(H   3,Al  1,Al  0,H   4)    -90.2113         0.010000   
     34. D(H   3,Al  1,Al  0,H   2)     90.2107         0.010000   
     35. D(H   2,Al  1,Al  0,H   6)    -90.2125         0.010000   
     36. D(H   3,Al  1,Al  0,H   5)    179.9984         0.010000   
     37. D(H   3,Al  1,Al  0,H   6)     -0.0018         0.010000   
     38. D(H   2,Al  1,Al  0,H   5)     89.7876         0.010000   
     39. D(H   2,Al  1,Al  0,H   4)    179.5780         0.010000   
     40. D(Al  0,H   2,Al  1,H   7)    108.1668         0.010000   
     41. D(Al  0,H   2,Al  1,H   4)      0.2827         0.010000   
     42. D(Al  0,H   2,Al  1,H   3)   -107.4874         0.010000   
     43. D(Al  1,H   2,Al  0,H   6)    107.4861         0.010000   
     44. D(Al  1,H   2,Al  0,H   5)   -108.1680         0.010000   
     45. D(Al  1,H   2,Al  0,H   4)     -0.2827         0.010000   
     46. D(Al  1,H   4,Al  0,H   2)      0.2827         0.010000   
     47. D(Al  0,H   4,Al  1,H   7)   -108.1671         0.010000   
     48. D(Al  0,H   4,Al  1,H   3)    107.4871         0.010000   
     49. D(Al  0,H   4,Al  1,H   2)     -0.2827         0.010000   
     50. D(Al  1,H   4,Al  0,H   6)   -107.4881         0.010000   
     51. D(Al  1,H   4,Al  0,H   5)    108.1662         0.010000   
    -----------------------------------------------------------------

Number of atoms                         .... 8
Number of degrees of freedom            .... 51


         *************************************************************
         *                GEOMETRY OPTIMIZATION CYCLE   1            *
         *************************************************************
---------------------------------
CARTESIAN COORDINATES (ANGSTROEM)
---------------------------------
  Al     0.000064   -0.002698    2.341285
  Al    -0.000326   -0.002155   -0.272083
  H      1.163599   -0.050069    1.034418
  H     -0.064257   -1.432370   -0.956215
  H     -1.163479    0.053786    1.034787
  H      0.063751    1.421088    3.038615
  H     -0.063706   -1.433198    3.024837
  H      0.063113    1.421926   -0.968834

----------------------------
CARTESIAN COORDINATES (A.U.)
----------------------------
  NO LB      ZA    FRAG     MASS         X           Y           Z
   0 Al   13.0000    0    26.982    0.000122   -0.005099    4.424388
   1 Al   13.0000    0    26.982   -0.000616   -0.004072   -0.514161
   2 H     1.0000    0     1.008    2.198883   -0.094616    1.954767
   3 H     1.0000    0     1.008   -0.121427   -2.706787   -1.806984
   4 H     1.0000    0     1.008   -2.198656    0.101640    1.955464
   5 H     1.0000    0     1.008    0.120472    2.685468    5.742150
   6 H     1.0000    0     1.008   -0.120386   -2.708352    5.716113
   7 H     1.0000    0     1.008    0.119267    2.687050   -1.830831

--------------------------------
INTERNAL COORDINATES (ANGSTROEM)
--------------------------------
 Al     0   0   0     0.000000000000     0.00000000     0.00000000
 Al     1   0   0     2.613367926960     0.00000000     0.00000000
 H      1   2   0     1.750416539635    41.71200813     0.00000000
 H      2   1   3     1.586706843332   115.52999831    90.21074512
 H      1   2   3     1.750417509707    41.71203470   179.57798527
 H      1   2   3     1.586660791281   116.06015838    89.78761863
 H      1   2   3     1.586707007941   115.52976841   269.78750432
 H      2   1   3     1.586661103785   116.05994873   270.21079793

---------------------------
INTERNAL COORDINATES (A.U.)
---------------------------
 Al     0   0   0     0.000000000000     0.00000000     0.00000000
 Al     1   0   0     4.938549669129     0.00000000     0.00000000
 H      1   2   0     3.307807880197    41.71200813     0.00000000
 H      2   1   3     2.998441388717   115.52999831    90.21074512
 H      1   2   3     3.307809713367    41.71203470   179.57798527
 H      1   2   3     2.998354362952   116.06015838    89.78761863
 H      1   2   3     2.998441699783   115.52976841   269.78750432
 H      2   1   3     2.998354953498   116.05994873   270.21079793

---------------------
BASIS SET INFORMATION
---------------------
There are 2 groups of distinct atoms

 Group   1 Type Al  : 14s9p3d1f contracted to 5s5p2d1f pattern {73211/51111/21/1}
 Group   2 Type H   : 5s1p contracted to 3s1p pattern {311/1}

Atom   0Al   basis set group =>   1
Atom   1Al   basis set group =>   1
Atom   2H    basis set group =>   2
Atom   3H    basis set group =>   2
Atom   4H    basis set group =>   2
Atom   5H    basis set group =>   2
Atom   6H    basis set group =>   2
Atom   7H    basis set group =>   2
---------------------------------
AUXILIARY/J BASIS SET INFORMATION
---------------------------------
There are 2 groups of distinct atoms

 Group   1 Type Al  : 14s5p5d2f1g contracted to 8s4p3d1f1g pattern {71111111/2111/311/2/1}
 Group   2 Type H   : 5s2p1d contracted to 3s1p1d pattern {311/2/1}

Atom   0Al   basis set group =>   1
Atom   1Al   basis set group =>   1
Atom   2H    basis set group =>   2
Atom   3H    basis set group =>   2
Atom   4H    basis set group =>   2
Atom   5H    basis set group =>   2
Atom   6H    basis set group =>   2
Atom   7H    basis set group =>   2


           ************************************************************
           *        Program running with 24 parallel MPI-processes    *
           *              working on a common directory               *
           ************************************************************
------------------------------------------------------------------------------
                             ORCA STARTUP CALCULATIONS
                           -- RI-GTO INTEGRALS CHOSEN --
------------------------------------------------------------------------------
------------------------------------------------------------------------------
                   ___                                                        
                  /   \      - P O W E R E D   B Y -                         
                 /     \                                                     
                 |  |  |   _    _      __       _____    __    __             
                 |  |  |  | |  | |    /  \     |  _  \  |  |  /  |          
                  \  \/   | |  | |   /    \    | | | |  |  | /  /          
                 / \  \   | |__| |  /  /\  \   | |_| |  |  |/  /          
                |  |  |   |  __  | /  /__\  \  |    /   |      \           
                |  |  |   | |  | | |   __   |  |    \   |  |\   \          
                \     /   | |  | | |  |  |  |  | |\  \  |  | \   \       
                 \___/    |_|  |_| |__|  |__|  |_| \__\ |__|  \__/        
                                                                              
                      - O R C A' S   B I G   F R I E N D -                    
                                      &                                       
                       - I N T E G R A L  F E E D E R -                       
                                                                              
 v1 FN, 2020, v2 2021, v3 2022-2024                                           
------------------------------------------------------------------------------


----------------------
SHARK INTEGRAL PACKAGE
----------------------

Number of atoms                             ...      8
Number of basis functions                   ...    110
Number of shells                            ...     50
Maximum angular momentum                    ...      3
Integral batch strategy                     ... SHARK/LIBINT Hybrid
RI-J (if used) integral strategy            ... SPLIT-RIJ (Revised 2003 algorithm where possible)
Printlevel                                  ...      1
Contraction scheme used                     ... SEGMENTED contraction
Prescreening option                         ... SCHWARTZ
   Thresh                                   ... 2.500e-11
   Tcut                                     ... 2.500e-12
   Tpresel                                  ... 2.500e-12 
Coulomb Range Separation                    ... NOT USED
Exchange Range Separation                   ... NOT USED
Multipole approximations                    ... NOT USED
Finite Nucleus Model                        ... NOT USED
CABS basis                                  ... NOT available
Auxiliary Coulomb fitting basis             ... AVAILABLE
   # of basis functions in Aux-J            ...    168
   # of shells in Aux-J                     ...     64
   Maximum angular momentum in Aux-J        ...      4
Auxiliary J/K fitting basis                 ... NOT available
Auxiliary Correlation fitting basis         ... NOT available
Auxiliary 'external' fitting basis          ... NOT available

Checking pre-screening integrals            ... done (  0.0 sec) Dimension = 50
   => SHARK Basis and OBASIS are compatible. Storing Pre-screening
Shell pair information
Shell pair cut-off parameter TPreSel        ...   2.5e-12
Total number of shell pairs                 ...      1275
Shell pairs after pre-screening             ...      1222
Total number of primitive shell pairs       ...      4185
Primitive shell pairs kept                  ...      3236
          la=0 lb=0:    390 shell pairs
          la=1 lb=0:    420 shell pairs
          la=1 lb=1:    127 shell pairs
          la=2 lb=0:    112 shell pairs
          la=2 lb=1:     64 shell pairs
          la=2 lb=2:     10 shell pairs
          la=3 lb=0:     56 shell pairs
          la=3 lb=1:     32 shell pairs
          la=3 lb=2:      8 shell pairs
          la=3 lb=3:      3 shell pairs

Checking whether 4 symmetric matrices of dimension 110 fit in memory
:Max Core in MB      =   4096.00
 MB in use           =      4.80
 MB left             =   4091.20
 MB needed           =      0.19
 Data fit in memory  = YES
Calculating RI/J V-Matrix + Cholesky decomp.... done (  0.0 sec)
Calculating Nuclear repulsion               ... done (  0.0 sec) ENN=     77.564204413714 Eh

Diagonalization of the overlap matrix:
Smallest eigenvalue                        ... 1.831e-03
Time for diagonalization                   ...    0.029 sec
Threshold for overlap eigenvalues          ... 1.000e-07
Number of eigenvalues below threshold      ... 0
Time for construction of square roots      ...    0.002 sec
Total time needed                          ...    0.033 sec

-------------------
DFT GRID GENERATION
-------------------

General Integration Accuracy     IntAcc      ... 4.959
Radial Grid Type                 RadialGrid  ... OptM3 with GC (2021)
Angular Grid (max. ang.)         AngularGrid ... 6 (Lebedev-590)
Angular grid pruning method      GridPruning ... 4 (adaptive)
Weight generation scheme         WeightScheme... mBecke (2022)
Basis function cutoff            BFCut       ... 1.0000e-11
Integration weight cutoff        WCut        ... 1.0000e-14
Partially contracted basis set               ... off
Rotationally invariant grid construction     ... off
Angular grids for H and He will be reduced by one unit

Total number of grid points                  ...    86194
Total number of batches                      ...     1351
Average number of points per batch           ...       63
Average number of grid points per atom       ...    10774
Grids setup in   2.2 sec
Initializing property integral containers    ... done (  0.0 sec)

SHARK setup successfully completed in   2.8 seconds

Maximum memory used throughout the entire STARTUP-calculation: 20.3 MB


           ************************************************************
           *        Program running with 24 parallel MPI-processes    *
           *              working on a common directory               *
           ************************************************************
-------------------------------------------------------------------------------
                                 ORCA GUESS
                   Start orbitals & Density for SCF / CASSCF
-------------------------------------------------------------------------------

------------
SCF SETTINGS
------------
Hamiltonian:
 Density Functional     Method          .... DFT(GTOs)
 Exchange Functional    Exchange        .... PBE
   PBE kappa parameter   XKappa         ....  0.804000
   PBE mue parameter    XMuePBE         ....  0.219520
 Correlation Functional Correlation     .... PBE
   PBE beta parameter  CBetaPBE         ....  0.066725
 LDA part of GGA corr.  LDAOpt          .... PW91-LDA
 Gradients option       PostSCFGGA      .... off
   NL short-range parameter             ....  6.400000
 RI-approximation to the Coulomb term is turned on
   Number of AuxJ basis functions       .... 168


General Settings:
 Integral files         IntName         .... run
 Hartree-Fock type      HFTyp           .... RHF
 Total Charge           Charge          ....    0
 Multiplicity           Mult            ....    1
 Number of Electrons    NEL             ....   32
 Basis Dimension        Dim             ....  110
 Nuclear Repulsion      ENuc            ....     77.5642044137 Eh

Convergence Acceleration:
 AO-DIIS                CNVDIIS         .... on
   Start iteration      DIISMaxIt       ....    12
   Startup error        DIISStart       ....  0.200000
   # of expansion vecs  DIISMaxEq       ....     5
   Bias factor          DIISBfac        ....   1.050
   Max. coefficient     DIISMaxC        ....  10.000
 MO-DIIS                CNVKDIIS        .... off
 Trust-Rad. Augm. Hess. CNVTRAH         .... auto
   Auto Start mean grad. ratio tolernc. ....  1.125000
   Auto Start start iteration           ....    50
   Auto Start num. interpolation iter.  ....    10
   Max. Number of Micro iterations      ....    24
   Max. Number of Macro iterations      .... Maxiter - #DIIS iter
   Number of Davidson start vectors     ....     2
   Converg. threshold    (grad. norm)   ....   1.000e-05
   Grad. Scal. Fac. for Micro threshold ....   0.100
   Minimum threshold for Micro iter.    ....   1.000e-02
   NR start threshold (gradient norm)   ....   1.000e-04
   Initial trust radius                 ....   0.400
   Minimum AH scaling param. (alpha)    ....   1.000
   Maximum AH scaling param. (alpha)    .... 1000.000
   Quad. conv. algorithm                .... NR
   White noise on init. David. guess    .... on
   Maximum white noise                  ....   0.010
   Pseudo random numbers                .... off
   Inactive MOs                         .... canonical
   Orbital update algorithm             .... Taylor
   Preconditioner                       .... Diag
   Full preconditioner red. dimension   ....   250
 SOSCF                 CNVSOSCF           .... on
   Start iteration     SOSCFMaxIt         ....   150
   Startup grad/error  SOSCFStart         ....  0.003300
   Hessian update      SOSCFHessUp        .... L-BFGS
   Autom. constraints  SOSCFAutoConstrain .... off
 Level Shifting         CNVShift        .... on
   Level shift para.    LevelShift      ....    0.2500
   Turn off err/grad.   ShiftErr        ....    0.0010
 Zerner damping         CNVZerner       .... off
 Static damping         CNVDamp         .... on
   Fraction old density DampFac         ....    0.7000
   Max. Damping (<1)    DampMax         ....    0.9800
   Min. Damping (>=0)   DampMin         ....    0.0000
   Turn off err/grad.   DampErr         ....    0.1000

SCF Procedure:
 Maximum # iterations   MaxIter         ....   125
 SCF integral mode      SCFMode         .... Direct
   Integral package                     .... SHARK and LIBINT hybrid scheme
 Reset frequency        DirectResetFreq ....    20
 Integral Threshold     Thresh          ....  2.500e-11 Eh
 Primitive CutOff       TCut            ....  2.500e-12 Eh

Convergence Tolerance:
 Convergence Check Mode ConvCheckMode   .... Total+1el-Energy
 Convergence forced     ConvForced      .... 0
 Energy Change          TolE            ....  1.000e-08 Eh
 1-El. energy change                    ....  1.000e-05 Eh
 Orbital Gradient       TolG            ....  1.000e-05
 Orbital Rotation angle TolX            ....  1.000e-05
 DIIS Error             TolErr          ....  5.000e-07

------------------------------
INITIAL GUESS: MODEL POTENTIAL
------------------------------
Loading Hartree-Fock densities                     ... done
Calculating cut-offs                               ... done
Initializing the effective Hamiltonian             ... done
Setting up the integral package (SHARK)            ... done
Starting the Coulomb interaction                   ... done (   0.1 sec)
Making the grid                                    ... done (   0.1 sec)
Mapping shells                                     ... done
Starting the XC term evaluation                    ... done (   0.0 sec)
  promolecular density results
     # of electrons  =     32.000719240
     EX              =    -37.787009983
     EC              =     -1.092433606
     EX+EC           =    -38.879443589
Transforming the Hamiltonian                       ... done (   0.0 sec)
Diagonalizing the Hamiltonian                      ... done (   0.0 sec)
Back transforming the eigenvectors                 ... done (   0.0 sec)
Now organizing SCF variables                       ... done
                      ------------------
                      INITIAL GUESS DONE (   0.2 sec)
                      ------------------
             **** ENERGY FILE WAS UPDATED (run.en.tmp) ****
Finished Guess after   0.8 sec
Maximum memory used throughout the entire GUESS-calculation: 8.4 MB


           ************************************************************
           *        Program running with 24 parallel MPI-processes    *
           *              working on a common directory               *
           ************************************************************

-------------------------------------------------------------------------------------------
                                      ORCA LEAN-SCF
                              memory conserving SCF solver
-------------------------------------------------------------------------------------------

--------------------
CPCM SOLVATION MODEL
--------------------
CPCM parameters:
  Epsilon                                         ...       1.9578
  Refrac                                          ...       1.0000
  Rsolv                                           ...       1.3000
  Surface type                                    ... GAUSSIAN VDW
  Discretization scheme                           ... Constant charge density
    Threshold for H atoms                         ...       5.0000 (charges/Ang^2)
    Threshold for non-H atoms                     ...       5.0000 (charges/Ang^2)
  Epsilon function type                           ...         CPCM
Solvent:                                          ... CUSTOM
Radii:
  Scheme                                          ... Element-dependent radii
  Radius for Al used is    4.1725 Bohr (=   2.2080 Ang.)
  Radius for H  used is    2.4944 Bohr (=   1.3200 Ang.)
Calculating surface                               ...        done! (  0.0s)
Cavity surface points                             ...          766
Cavity Volume                                     ...     624.2354
Cavity Surface-area                               ...     398.2546
Calculating surface distance matrix               ...        done! (  0.0s)
Performing Cholesky decomposition & store         ...        done! (  0.0s)
Overall time for CPCM initialization              ...                 0.1s

----------------------------------------D-I-I-S--------------------------------------------
Iteration    Energy (Eh)           Delta-E    RMSDP     MaxDP     DIISErr   Damp  Time(sec)
-------------------------------------------------------------------------------------------
               ***  Starting incremental Fock matrix formation  ***
    1    -488.1401118443392306     0.00e+00  4.52e-03  1.67e-02  8.23e-02  0.700   0.3
    2    -488.1488839385577876    -8.77e-03  4.13e-03  1.58e-02  5.65e-02  0.700   0.2
                               ***Turning on AO-DIIS***
    3    -488.1546300700898655    -5.75e-03  2.40e-03  9.18e-03  3.45e-02  0.700   0.2
    4    -488.1580913422071717    -3.46e-03  4.93e-03  1.87e-02  2.26e-02  0.000   0.2
                              *** Initializing SOSCF ***
---------------------------------------S-O-S-C-F--------------------------------------
Iteration    Energy (Eh)           Delta-E    RMSDP     MaxDP     MaxGrad    Time(sec)
--------------------------------------------------------------------------------------
    5    -488.1650024204676583    -6.91e-03  3.83e-04  1.47e-03  1.56e-03     0.2
               *** Restarting incremental Fock matrix formation ***
    6    -488.1650180473565115    -1.56e-05  2.28e-04  7.53e-04  2.36e-04     0.2
    7    -488.1650197500667900    -1.70e-06  6.42e-05  3.57e-04  1.54e-04     0.2
    8    -488.1650201677808809    -4.18e-07  2.17e-05  1.52e-04  2.36e-05     0.2
    9    -488.1650201745404729    -6.76e-09  8.52e-06  5.51e-05  1.62e-05     0.2
                 **** Energy Check signals convergence ****

               *****************************************************
               *                     SUCCESS                       *
               *           SCF CONVERGED AFTER   9 CYCLES          *
               *****************************************************

             **** ENERGY FILE WAS UPDATED (run.en.tmp) ****

----------------
TOTAL SCF ENERGY
----------------

Total Energy       :       -488.16502018057747 Eh          -13283.64553 eV

Components:
Nuclear Repulsion  :         77.56420441371391 Eh            2110.62930 eV
Electronic Energy  :       -565.72663681025733 Eh          -15394.20441 eV
One Electron Energy:       -831.87536674811543 Eh          -22636.47955 eV
Two Electron Energy:        266.14872993785804 Eh            7242.27513 eV
CPCM Dielectric    :         -0.00258778403403 Eh              -0.07042 eV

Virial components:
Potential Energy   :       -975.20707770026434 Eh          -26536.73369 eV
Kinetic Energy     :        487.04205751968692 Eh           13253.08816 eV
Virial Ratio       :          2.00230567903439

DFT components:
N(Alpha)           :       16.000000448740 electrons
N(Beta)            :       16.000000448740 electrons
N(Total)           :       32.000000897481 electrons
E(X)               :      -38.099341523259 Eh       
E(C)               :       -1.085222701275 Eh       
E(XC)              :      -39.184564224534 Eh       

CPCM Solvation Model Properties:
Surface-charge          :         -0.05285411606355
Corrected charge        :         -0.00000000000000
Outlying charge corr.   :          0.00012285181000 Eh               0.00334 eV
Free-energy (cav+disp)  :  This term is not implemented in the current solvation scheme

---------------
SCF CONVERGENCE
---------------

  Last Energy change         ...    6.7596e-09  Tolerance :   1.0000e-08
  Last MAX-Density change    ...    5.5097e-05  Tolerance :   1.0000e-07
  Last RMS-Density change    ...    8.5178e-06  Tolerance :   5.0000e-09
  Last DIIS Error            ...    1.5576e-03  Tolerance :   5.0000e-07
  Last Orbital Gradient      ...    1.6204e-05  Tolerance :   1.0000e-05
  Last Orbital Rotation      ...    2.7486e-05  Tolerance :   1.0000e-05


----------------
ORBITAL ENERGIES
----------------

  NO   OCC          E(Eh)            E(eV) 
   0   2.0000     -55.371827     -1506.7440 
   1   2.0000     -55.371816     -1506.7437 
   2   2.0000      -3.932644      -107.0127 
   3   2.0000      -3.932591      -107.0112 
   4   2.0000      -2.538437       -69.0744 
   5   2.0000      -2.538367       -69.0725 
   6   2.0000      -2.535028       -68.9816 
   7   2.0000      -2.534369       -68.9637 
   8   2.0000      -2.530189       -68.8499 
   9   2.0000      -2.530134       -68.8484 
  10   2.0000      -0.459624       -12.5070 
  11   2.0000      -0.346252        -9.4220 
  12   2.0000      -0.309842        -8.4312 
  13   2.0000      -0.289177        -7.8689 
  14   2.0000      -0.280373        -7.6293 
  15   2.0000      -0.266593        -7.2544 
  16   0.0000      -0.061988        -1.6868 
  17   0.0000      -0.017305        -0.4709 
  18   0.0000      -0.010965        -0.2984 
  19   0.0000      -0.010556        -0.2872 
  20   0.0000       0.005471         0.1489 
  21   0.0000       0.023410         0.6370 
  22   0.0000       0.044790         1.2188 
  23   0.0000       0.078120         2.1258 
  24   0.0000       0.104077         2.8321 
  25   0.0000       0.120919         3.2904 
  26   0.0000       0.121588         3.3086 
*Only the first 10 virtual orbitals were printed.
-------
TIMINGS
-------

Total SCF time: 0 days 0 hours 0 min 2 sec 

Total time                  ....       2.999 sec
Sum of individual times     ....       2.713 sec  ( 90.5%)

SCF preparation             ....       0.683 sec  ( 22.8%)
Fock matrix formation       ....       1.715 sec  ( 57.2%)
  Startup                   ....       0.008 sec  (  0.5% of F)
  Split-RI-J                ....       0.312 sec  ( 18.2% of F)
  XC integration            ....       1.072 sec  ( 62.5% of F)
    XC Preparation          ....       0.000 sec  (  0.0% of XC)
    Basis function eval.    ....       0.237 sec  ( 22.1% of XC)
    Density eval.           ....       0.142 sec  ( 13.2% of XC)
    XC-Functional eval.     ....       0.045 sec  (  4.2% of XC)
    XC-Potential eval.      ....       0.174 sec  ( 16.2% of XC)
  CPCM terms                ....       0.417 sec  ( 24.3% of F)
Diagonalization             ....       0.000 sec  (  0.0%)
Density matrix formation    ....       0.046 sec  (  1.5%)
Total Energy calculation    ....       0.029 sec  (  1.0%)
Population analysis         ....       0.000 sec  (  0.0%)
Orbital Transformation      ....       0.027 sec  (  0.9%)
Orbital Orthonormalization  ....       0.000 sec  (  0.0%)
DIIS solution               ....       0.129 sec  (  4.3%)
SOSCF solution              ....       0.084 sec  (  2.8%)
Finished LeanSCF after   3.0 sec

Maximum memory used throughout the entire LEANSCF-calculation: 6.7 MB


           ************************************************************
           *        Program running with 24 parallel MPI-processes    *
           *              working on a common directory               *
           ************************************************************

------------------------------------------------------------------------------
                         ORCA PROPERTY INTEGRAL CALCULATIONS
------------------------------------------------------------------------------

GBWName                                   ... run.gbw
Number of atoms                           ...      8
Number of basis functions                 ...    110
Max core memory                           ...   4096 MB

Dipole integrals                          ... YES
Quadrupole integrals                      ...  NO
Linear momentum integrals                 ...  NO
Angular momentum integrals                ...  NO
Higher moments length integrals           ...  NO
Higher moments velocity integrals         ...  NO
Kinetic energy integrals                  ...  NO
GIAO right hand sides                     ...  NO
GIAO dipole derivative integrals          ...  NO
SOC integrals                             ...  NO
EPR diamagnetic integrals (GIAO)          ...  NO
EPR gauge integrals                       ...  NO
Field gradient integrals                  ...  NO (   0 nuclei)
Spin-dipole/Fermi contact integrals       ...  NO (   0 nuclei)
Contact density integrals                 ...  NO (   0 nuclei)
Nucleus-orbit integrals                   ...  NO (   0 nuclei)
Geometric perturbations                   ...  NO (   8 nuclei)

Choice of electric origin   ... Center of mass
Position of electric origin ... ( -0.0003, -0.0047,  1.9551) 
Choice of magnetic origin   ... GIAO
Position of magnetic origin ... (  0.0000,  0.0000,  0.0000) 

Calculating integrals                     ... Electric Dipole (Length)     done (  0.0 sec)

Property integrals calculated in   0.0 sec

Maximum memory used throughout the entire PROPINT-calculation: 8.6 MB


-------------------------------------------------------------------------------
                          DFT DISPERSION CORRECTION                            
                                                                               
                              DFTD3 V3.1  Rev 1                                
                          USING Becke-Johnson damping                          
-------------------------------------------------------------------------------
The PBE functional is recognized
Active option DFTDOPT                   ...         4   

molecular C6(AA) [au] = 1235.381755 


            DFT-D V3
 parameters
 s6 scaling factor         :     1.0000 
 a1 scaling factor         :     0.4289 
 s8 scaling factor         :     0.7875 
 a2 scaling factor         :     4.4407 
 ad hoc parameters k1-k3   :    16.0000     1.3333    -4.0000 

 Edisp/kcal,au: -2.792296853150  -0.004449807805 
 E6   /kcal   :  -1.785548905 
 E8   /kcal   :  -1.006747948 
 % E8         :  36.054474187 

-------------------------   ----------------
Dispersion correction           -0.004449808
-------------------------   ----------------


-------------------------   --------------------
FINAL SINGLE POINT ENERGY      -488.169469988382
-------------------------   --------------------



           ************************************************************
           *        Program running with 24 parallel MPI-processes    *
           *              working on a common directory               *
           ************************************************************
------------------------------------------------------------------------------
                         ORCA SCF GRADIENT CALCULATION
------------------------------------------------------------------------------

Nuc. rep. gradient        (SHARK) ... done (  0.0 sec)
HCore & Overlap gradient  (SHARK) ... done (  0.0 sec)
Split-RIJ-J gradient      (SHARK) ... done (  0.3 sec)
XC gradient                       ... done (  0.5 sec)
CPCM gradient                     ... done (  0.3 sec)
Dispersion correction             ... done (  0.1 sec)

-------------------
DISPERSION GRADIENT
-------------------

   1   Al  :    0.000000032    0.000000116    0.000169134
   2   Al  :   -0.000000018    0.000000186   -0.000169134
   3   H   :    0.000058444   -0.000002352   -0.000000009
   4   H   :   -0.000003183   -0.000070934   -0.000109623
   5   H   :   -0.000058421    0.000002864    0.000000009
   6   H   :    0.000003167    0.000070527    0.000109653
   7   H   :   -0.000003152   -0.000070980    0.000109594
   8   H   :    0.000003132    0.000070573   -0.000109625

Difference to translation invariance:
           :    0.0000000000    0.0000000000    0.0000000000

Difference to rotation invariance:
           :    0.0000000000    0.0000000000    0.0000000000

Norm of the Dispersion gradient    ...    0.0003635779
RMS gradient                       ...    0.0000742150
MAX gradient                       ...    0.0001691337

------------------
CARTESIAN GRADIENT
------------------

   1   Al  :    0.000002188    0.000015960    0.000873930
   2   Al  :    0.000002042    0.000015662   -0.000873925
   3   H   :    0.000012687    0.000007585    0.000000047
   4   H   :    0.000004743    0.000144951    0.000221341
   5   H   :   -0.000014733   -0.000008024   -0.000000009
   6   H   :   -0.000005351   -0.000160585   -0.000177917
   7   H   :    0.000004158    0.000144988   -0.000221417
   8   H   :   -0.000005734   -0.000160537    0.000177950

Difference to translation invariance:
           :   -0.0000000000    0.0000000000   -0.0000000000

Difference to rotation invariance:
           :   -0.0000003352   -0.0000007430    0.0000173590

Norm of the Cartesian gradient     ...    0.0013354923
RMS gradient                       ...    0.0002726062
MAX gradient                       ...    0.0008739303

-------
TIMINGS
-------

Total SCF gradient time     ....        1.214 sec

Densities                   ....       0.001 sec  (  0.1%)
One electron gradient       ....       0.043 sec  (  3.6%)
RI-J Coulomb gradient       ....       0.305 sec  ( 25.2%)
XC gradient                 ....       0.465 sec  ( 38.3%)
CPCM gradient               ....       0.273 sec  ( 22.5%)
   A-Matrix (El+Nuc)        ....       0.004 sec  (  0.4%)
   Potential                ....       0.269 sec  ( 22.1%)

Maximum memory used throughout the entire SCFGRAD-calculation: 27.1 MB
------------------------------------------------------------------------------
                         ORCA GEOMETRY RELAXATION STEP
------------------------------------------------------------------------------

Reading the OPT-File                    .... done
Getting information on internals        .... done
Copying old internal coords+grads       .... done
Making the new internal coordinates     .... (2022 redundants) done
Validating the new internal coordinates .... (2022 redundants) done
Calculating the B-matrix                .... done
Calculating the G,G- and P matrices     .... done
Transforming gradient to internals      .... done
Projecting the internal gradient        .... done
Number of atoms                         ....   8
Number of internal coordinates          ....  51
Current Energy                          ....  -488.169469988 Eh
Current gradient norm                   ....     0.001335492 Eh/bohr
Maximum allowed component of the step   ....  0.300
Current trust radius                    ....  0.300
Evaluating the initial hessian          ....  (Almloef) done
Projecting the Hessian                  .... done
Forming the augmented Hessian           .... done
Diagonalizing the augmented Hessian     .... done
Last element of RFO vector              ....  0.999997821
Lowest eigenvalues of augmented Hessian:
 -0.000001275  0.031001764  0.052197494  0.082473597  0.103135869
Length of the computed step             ....  0.002087551
The final length of the internal step   ....  0.002087551
Converting the step to Cartesian space:
 Initial RMS(Int)=    0.0002923156
Transforming coordinates:
 Iter   0:  RMS(Cart)=    0.0002893298 RMS(Int)=    0.0002923151
done
Storing new coordinates                 .... done

                                .--------------------.
          ----------------------|Geometry convergence|-------------------------
          Item                value                   Tolerance       Converged
          ---------------------------------------------------------------------
          RMS gradient        0.0000916504            0.0000300000      NO
          MAX gradient        0.0002772702            0.0001000000      NO
          RMS step            0.0002923156            0.0006000000      YES
          MAX step            0.0009188304            0.0010000000      YES
          -------------------------------------------------------------------------
          ........................................................
          Max(Bonds)      0.0005      Max(Angles)    0.03
          Max(Dihed)        0.02      Max(Improp)    0.00
          ---------------------------------------------------------------------

The optimization has not yet converged - more geometry cycles are needed


    ---------------------------------------------------------------------------
                         Redundant Internal Coordinates
                            (Angstroem and degrees)

        Definition                    Value    dE/dq     Step     New-Value
    ----------------------------------------------------------------------------
     1. B(Al  1,Al  0)                2.6134  0.000277 -0.0005    2.6129   
     2. B(H   2,Al  0)                1.7504  0.000077 -0.0002    1.7503   
     3. B(H   2,Al  1)                1.7504  0.000078 -0.0002    1.7503   
     4. B(H   3,Al  1)                1.5867 -0.000226  0.0003    1.5870   
     5. B(H   4,Al  1)                1.7504  0.000079 -0.0002    1.7503   
     6. B(H   4,Al  0)                1.7504  0.000079 -0.0002    1.7503   
     7. B(H   5,Al  0)                1.5867 -0.000223  0.0003    1.5870   
     8. B(H   6,Al  0)                1.5867 -0.000226  0.0003    1.5870   
     9. B(H   7,Al  1)                1.5867 -0.000222  0.0003    1.5870   
    10. A(H   2,Al  0,H   5)          109.01 -0.000021    0.01    109.02   
    11. A(Al  1,Al  0,H   5)          116.06 -0.000043    0.01    116.07   
    12. A(H   4,Al  0,H   6)          108.90 -0.000055    0.01    108.91   
    13. A(H   4,Al  0,H   5)          109.01 -0.000017    0.01    109.02   
    14. A(Al  1,Al  0,H   4)           41.71 -0.000036    0.01     41.72   
    15. A(H   2,Al  0,H   4)           83.42 -0.000073    0.01     83.44   
    16. A(Al  1,Al  0,H   2)           41.71 -0.000037    0.01     41.72   
    17. A(H   5,Al  0,H   6)          128.41  0.000132   -0.03    128.38   
    18. A(H   2,Al  0,H   6)          108.90 -0.000051    0.01    108.91   
    19. A(Al  1,Al  0,H   6)          115.53 -0.000089    0.02    115.55   
    20. A(H   4,Al  1,H   7)          109.01 -0.000016    0.01    109.02   
    21. A(H   2,Al  1,H   3)          108.90 -0.000051    0.01    108.91   
    22. A(H   3,Al  1,H   4)          108.90 -0.000054    0.01    108.91   
    23. A(Al  0,Al  1,H   2)           41.71 -0.000037    0.01     41.72   
    24. A(H   2,Al  1,H   4)           83.42 -0.000073    0.01     83.44   
    25. A(Al  0,Al  1,H   4)           41.71 -0.000036    0.01     41.72   
    26. A(Al  0,Al  1,H   3)          115.53 -0.000089    0.02    115.55   
    27. A(Al  0,Al  1,H   7)          116.06 -0.000043    0.01    116.07   
    28. A(H   2,Al  1,H   7)          109.01 -0.000021    0.01    109.02   
    29. A(H   3,Al  1,H   7)          128.41  0.000132   -0.03    128.38   
    30. A(Al  0,H   2,Al  1)           96.58  0.000073   -0.01     96.56   
    31. A(Al  0,H   4,Al  1)           96.58  0.000073   -0.01     96.56   
    32. D(H   4,Al  1,Al  0,H   2)   -179.58 -0.000001   -0.01   -179.59   
    33. D(H   3,Al  1,Al  0,H   4)    -90.21  0.000003    0.01    -90.21   
    34. D(H   3,Al  1,Al  0,H   2)     90.21  0.000002   -0.01     90.20   
    35. D(H   2,Al  1,Al  0,H   6)    -90.21 -0.000003    0.01    -90.20   
    36. D(H   3,Al  1,Al  0,H   5)    180.00 -0.000001   -0.00    180.00   
    37. D(H   3,Al  1,Al  0,H   6)     -0.00 -0.000001    0.00     -0.00   
    38. D(H   2,Al  1,Al  0,H   5)     89.79 -0.000002    0.01     89.80   
    39. D(H   2,Al  1,Al  0,H   4)    179.58  0.000001    0.01    179.59   
    40. D(Al  0,H   2,Al  1,H   7)    108.17 -0.000042    0.00    108.17   
    41. D(Al  0,H   2,Al  1,H   4)      0.28 -0.000001   -0.01      0.27   
    42. D(Al  0,H   2,Al  1,H   3)   -107.49  0.000079   -0.02   -107.51   
    43. D(Al  1,H   2,Al  0,H   6)    107.49 -0.000080    0.02    107.51   
    44. D(Al  1,H   2,Al  0,H   5)   -108.17  0.000042   -0.00   -108.17   
    45. D(Al  1,H   2,Al  0,H   4)     -0.28  0.000001    0.01     -0.27   
    46. D(Al  1,H   4,Al  0,H   2)      0.28 -0.000001   -0.01      0.27   
    47. D(Al  0,H   4,Al  1,H   7)   -108.17  0.000047   -0.00   -108.17   
    48. D(Al  0,H   4,Al  1,H   3)    107.49 -0.000076    0.02    107.51   
    49. D(Al  0,H   4,Al  1,H   2)     -0.28  0.000001    0.01     -0.27   
    50. D(Al  1,H   4,Al  0,H   6)   -107.49  0.000075   -0.02   -107.51   
    51. D(Al  1,H   4,Al  0,H   5)    108.17 -0.000046    0.00    108.17   
    ----------------------------------------------------------------------------

Geometry step timings:
Preparation and reading OPT file:      0.000 s ( 0.492 %)
Internal coordinates            :      0.000 s ( 0.468 %)
B/P matrices and projection     :      0.001 s ( 6.739 %)
Hessian update/contruction      :      0.000 s ( 3.808 %)
Making the step                 :      0.006 s (69.526 %)
Converting the step to Cartesian:      0.000 s ( 2.739 %)
Storing new data                :      0.000 s ( 1.261 %)
Checking convergence            :      0.000 s ( 1.802 %)
Final printing                  :      0.001 s (13.153 %)
Total time                      :      0.008 s

Time for energy+gradient        :     11.582 s
Time for complete geometry iter :     12.356 s

         *************************************************************
         *                GEOMETRY OPTIMIZATION CYCLE   2            *
         *************************************************************
---------------------------------
CARTESIAN COORDINATES (ANGSTROEM)
---------------------------------
  Al     0.000063   -0.002708    2.341042
  Al    -0.000327   -0.002164   -0.271839
  H      1.163636   -0.050243    1.034418
  H     -0.064249   -1.432398   -0.956616
  H     -1.163529    0.053660    1.034787
  H      0.063750    1.421276    3.038628
  H     -0.063697   -1.433226    3.025238
  H      0.063113    1.422113   -0.968848

----------------------------
CARTESIAN COORDINATES (A.U.)
----------------------------
  NO LB      ZA    FRAG     MASS         X           Y           Z
   0 Al   13.0000    0    26.982    0.000118   -0.005117    4.423929
   1 Al   13.0000    0    26.982   -0.000619   -0.004090   -0.513702
   2 H     1.0000    0     1.008    2.198954   -0.094945    1.954767
   3 H     1.0000    0     1.008   -0.121413   -2.706839   -1.807742
   4 H     1.0000    0     1.008   -2.198751    0.101402    1.955463
   5 H     1.0000    0     1.008    0.120471    2.685822    5.742175
   6 H     1.0000    0     1.008   -0.120370   -2.708405    5.716871
   7 H     1.0000    0     1.008    0.119266    2.687404   -1.830857

--------------------------------
INTERNAL COORDINATES (ANGSTROEM)
--------------------------------
 Al     0   0   0     0.000000000000     0.00000000     0.00000000
 Al     1   0   0     2.612881708047     0.00000000     0.00000000
 H      1   2   0     1.750265784783    41.71842812     0.00000000
 H      2   1   3     1.587001095978   115.55068422    90.20232398
 H      1   2   3     1.750264544170    41.71837745   179.59186291
 H      1   2   3     1.586950089900   116.06534477    89.79594544
 H      1   2   3     1.587001226395   115.55049195   269.79597596
 H      2   1   3     1.586950321861   116.06517054   270.20246251

---------------------------
INTERNAL COORDINATES (A.U.)
---------------------------
 Al     0   0   0     0.000000000000     0.00000000     0.00000000
 Al     1   0   0     4.937630848541     0.00000000     0.00000000
 H      1   2   0     3.307522994813    41.71842812     0.00000000
 H      2   1   3     2.998997445631   115.55068422    90.20232398
 H      1   2   3     3.307520650395    41.71837745   179.59186291
 H      1   2   3     2.998901058113   116.06534477    89.79594544
 H      1   2   3     2.998997692084   115.55049195   269.79597596
 H      2   1   3     2.998901496456   116.06517054   270.20246251



           ************************************************************
           *        Program running with 24 parallel MPI-processes    *
           *              working on a common directory               *
           ************************************************************
------------------------------------------------------------------------------
                   ___                                                        
                  /   \      - P O W E R E D   B Y -                         
                 /     \                                                     
                 |  |  |   _    _      __       _____    __    __             
                 |  |  |  | |  | |    /  \     |  _  \  |  |  /  |          
                  \  \/   | |  | |   /    \    | | | |  |  | /  /          
                 / \  \   | |__| |  /  /\  \   | |_| |  |  |/  /          
                |  |  |   |  __  | /  /__\  \  |    /   |      \           
                |  |  |   | |  | | |   __   |  |    \   |  |\   \          
                \     /   | |  | | |  |  |  |  | |\  \  |  | \   \       
                 \___/    |_|  |_| |__|  |__|  |_| \__\ |__|  \__/        
                                                                              
                      - O R C A' S   B I G   F R I E N D -                    
                                      &                                       
                       - I N T E G R A L  F E E D E R -                       
                                                                              
 v1 FN, 2020, v2 2021, v3 2022-2024                                           
------------------------------------------------------------------------------


----------------------
SHARK INTEGRAL PACKAGE
----------------------

Number of atoms                             ...      8
Number of basis functions                   ...    110
Number of shells                            ...     50
Maximum angular momentum                    ...      3
Integral batch strategy                     ... SHARK/LIBINT Hybrid
RI-J (if used) integral strategy            ... SPLIT-RIJ (Revised 2003 algorithm where possible)
Printlevel                                  ...      1
Contraction scheme used                     ... SEGMENTED contraction
Prescreening option                         ... SCHWARTZ
   Thresh                                   ... 2.500e-11
   Tcut                                     ... 2.500e-12
   Tpresel                                  ... 2.500e-12 
Coulomb Range Separation                    ... NOT USED
Exchange Range Separation                   ... NOT USED
Multipole approximations                    ... NOT USED
Finite Nucleus Model                        ... NOT USED
CABS basis                                  ... NOT available
Auxiliary Coulomb fitting basis             ... AVAILABLE
   # of basis functions in Aux-J            ...    168
   # of shells in Aux-J                     ...     64
   Maximum angular momentum in Aux-J        ...      4
Auxiliary J/K fitting basis                 ... NOT available
Auxiliary Correlation fitting basis         ... NOT available
Auxiliary 'external' fitting basis          ... NOT available

Checking pre-screening integrals            ... done (  0.0 sec) Dimension = 50
   => SHARK Basis and OBASIS are compatible. Storing Pre-screening
Shell pair information
Shell pair cut-off parameter TPreSel        ...   2.5e-12
Total number of shell pairs                 ...      1275
Shell pairs after pre-screening             ...      1222
Total number of primitive shell pairs       ...      4185
Primitive shell pairs kept                  ...      3236
          la=0 lb=0:    390 shell pairs
          la=1 lb=0:    420 shell pairs
          la=1 lb=1:    127 shell pairs
          la=2 lb=0:    112 shell pairs
          la=2 lb=1:     64 shell pairs
          la=2 lb=2:     10 shell pairs
          la=3 lb=0:     56 shell pairs
          la=3 lb=1:     32 shell pairs
          la=3 lb=2:      8 shell pairs
          la=3 lb=3:      3 shell pairs

Checking whether 4 symmetric matrices of dimension 110 fit in memory
:Max Core in MB      =   4096.00
 MB in use           =      4.90
 MB left             =   4091.10
 MB needed           =      0.19
 Data fit in memory  = YES
Calculating RI/J V-Matrix + Cholesky decomp.... done (  0.0 sec)
Calculating Nuclear repulsion               ... done (  0.0 sec) ENN=     77.568512866380 Eh

Diagonalization of the overlap matrix:
Smallest eigenvalue                        ... 1.831e-03
Time for diagonalization                   ...    0.004 sec
Threshold for overlap eigenvalues          ... 1.000e-07
Number of eigenvalues below threshold      ... 0
Time for construction of square roots      ...    0.001 sec
Total time needed                          ...    0.007 sec

-------------------
DFT GRID GENERATION
-------------------

General Integration Accuracy     IntAcc      ... 4.959
Radial Grid Type                 RadialGrid  ... OptM3 with GC (2021)
Angular Grid (max. ang.)         AngularGrid ... 6 (Lebedev-590)
Angular grid pruning method      GridPruning ... 4 (adaptive)
Weight generation scheme         WeightScheme... mBecke (2022)
Basis function cutoff            BFCut       ... 1.0000e-11
Integration weight cutoff        WCut        ... 1.0000e-14
Partially contracted basis set               ... off
Rotationally invariant grid construction     ... off
Angular grids for H and He will be reduced by one unit

Total number of grid points                  ...    86195
Total number of batches                      ...     1351
Average number of points per batch           ...       63
Average number of grid points per atom       ...    10774
Grids setup in   2.0 sec
Initializing property integral containers    ... done (  0.0 sec)

SHARK setup successfully completed in   2.2 seconds

Maximum memory used throughout the entire STARTUP-calculation: 20.4 MB


           ************************************************************
           *        Program running with 24 parallel MPI-processes    *
           *              working on a common directory               *
           ************************************************************
Occupation numbers will be reassigned to an Aufbau configuration
             **** ENERGY FILE WAS UPDATED (run.en.tmp) ****
Finished Guess after   0.6 sec
Maximum memory used throughout the entire GUESS-calculation: 8.5 MB


           ************************************************************
           *        Program running with 24 parallel MPI-processes    *
           *              working on a common directory               *
           ************************************************************
--------------------
CPCM SOLVATION MODEL
--------------------
CPCM parameters:
  Epsilon                                         ...       1.9578
  Refrac                                          ...       1.0000
  Rsolv                                           ...       1.3000
  Surface type                                    ... GAUSSIAN VDW
  Discretization scheme                           ... Constant charge density
    Threshold for H atoms                         ...       5.0000 (charges/Ang^2)
    Threshold for non-H atoms                     ...       5.0000 (charges/Ang^2)
  Epsilon function type                           ...         CPCM
Solvent:                                          ... CUSTOM
Radii:
  Scheme                                          ... Element-dependent radii
  Radius for Al used is    4.1725 Bohr (=   2.2080 Ang.)
  Radius for H  used is    2.4944 Bohr (=   1.3200 Ang.)
Calculating surface                               ...        done! (  0.0s)
Cavity surface points                             ...          766
Cavity Volume                                     ...     624.2408
Cavity Surface-area                               ...     398.2608
Calculating surface distance matrix               ...        done! (  0.0s)
Performing Cholesky decomposition & store         ...        done! (  0.0s)
Overall time for CPCM initialization              ...                 0.1s

----------------------------------------D-I-I-S--------------------------------------------
Iteration    Energy (Eh)           Delta-E    RMSDP     MaxDP     DIISErr   Damp  Time(sec)
-------------------------------------------------------------------------------------------
               ***  Starting incremental Fock matrix formation  ***
                              *** Initializing SOSCF ***
---------------------------------------S-O-S-C-F--------------------------------------
Iteration    Energy (Eh)           Delta-E    RMSDP     MaxDP     MaxGrad    Time(sec)
--------------------------------------------------------------------------------------
    1    -488.1650213818892894     0.00e+00  1.47e-05  3.35e-05  9.42e-06     0.2
               *** Restarting incremental Fock matrix formation ***
    2    -488.1650214150702709    -3.32e-08  7.51e-06  2.93e-05  7.06e-06     0.2
    3    -488.1650214168557227    -1.79e-09  1.92e-06  1.12e-05  2.36e-06     0.2
                 **** Energy Check signals convergence ****

               *****************************************************
               *                     SUCCESS                       *
               *           SCF CONVERGED AFTER   3 CYCLES          *
               *****************************************************

             **** ENERGY FILE WAS UPDATED (run.en.tmp) ****

----------------
TOTAL SCF ENERGY
----------------

Total Energy       :       -488.16502141651853 Eh          -13283.64556 eV

Components:
Nuclear Repulsion  :         77.56851286637988 Eh            2110.74654 eV
Electronic Energy  :       -565.73094504592723 Eh          -15394.32165 eV
One Electron Energy:       -831.88326955137370 Eh          -22636.69459 eV
Two Electron Energy:        266.15232450544653 Eh            7242.37294 eV
CPCM Dielectric    :         -0.00258923697129 Eh              -0.07046 eV

Virial components:
Potential Energy   :       -975.20665208045421 Eh          -26536.72210 eV
Kinetic Energy     :        487.04163066393562 Eh           13253.07654 eV
Virial Ratio       :          2.00230656001839

DFT components:
N(Alpha)           :       16.000000454340 electrons
N(Beta)            :       16.000000454340 electrons
N(Total)           :       32.000000908681 electrons
E(X)               :      -38.099222438609 Eh       
E(C)               :       -1.085221304064 Eh       
E(XC)              :      -39.184443742673 Eh       

CPCM Solvation Model Properties:
Surface-charge          :         -0.05286176150708
Corrected charge        :          0.00000000000000
Outlying charge corr.   :          0.00012288609382 Eh               0.00334 eV
Free-energy (cav+disp)  :  This term is not implemented in the current solvation scheme

---------------
SCF CONVERGENCE
---------------

  Last Energy change         ...    1.7855e-09  Tolerance :   1.0000e-08
  Last MAX-Density change    ...    1.1158e-05  Tolerance :   1.0000e-07
  Last RMS-Density change    ...    1.9228e-06  Tolerance :   5.0000e-09
  Last DIIS Error            ...    1.0173e-04  Tolerance :   5.0000e-07
  Last Orbital Gradient      ...    2.3559e-06  Tolerance :   1.0000e-05
  Last Orbital Rotation      ...    7.0718e-06  Tolerance :   1.0000e-05


Total SCF time: 0 days 0 hours 0 min 1 sec 
Finished LeanSCF after   1.6 sec

Maximum memory used throughout the entire LEANSCF-calculation: 6.8 MB


           ************************************************************
           *        Program running with 24 parallel MPI-processes    *
           *              working on a common directory               *
           ************************************************************

------------------------------------------------------------------------------
                         ORCA PROPERTY INTEGRAL CALCULATIONS
------------------------------------------------------------------------------

GBWName                                   ... run.gbw
Number of atoms                           ...      8
Number of basis functions                 ...    110
Max core memory                           ...   4096 MB

Dipole integrals                          ... YES
Quadrupole integrals                      ...  NO
Linear momentum integrals                 ...  NO
Angular momentum integrals                ...  NO
Higher moments length integrals           ...  NO
Higher moments velocity integrals         ...  NO
Kinetic energy integrals                  ...  NO
GIAO right hand sides                     ...  NO
GIAO dipole derivative integrals          ...  NO
SOC integrals                             ...  NO
EPR diamagnetic integrals (GIAO)          ...  NO
EPR gauge integrals                       ...  NO
Field gradient integrals                  ...  NO (   0 nuclei)
Spin-dipole/Fermi contact integrals       ...  NO (   0 nuclei)
Contact density integrals                 ...  NO (   0 nuclei)
Nucleus-orbit integrals                   ...  NO (   0 nuclei)
Geometric perturbations                   ...  NO (   8 nuclei)

Choice of electric origin   ... Center of mass
Position of electric origin ... ( -0.0003, -0.0047,  1.9551) 
Choice of magnetic origin   ... GIAO
Position of magnetic origin ... (  0.0000,  0.0000,  0.0000) 

Calculating integrals                     ... Electric Dipole (Length)     done (  0.0 sec)

Property integrals calculated in   0.0 sec

Maximum memory used throughout the entire PROPINT-calculation: 8.6 MB


-------------------------------------------------------------------------------
                          DFT DISPERSION CORRECTION                            
                                                                               
                              DFTD3 V3.1  Rev 1                                
                          USING Becke-Johnson damping                          
-------------------------------------------------------------------------------
-------------------------   ----------------
Dispersion correction           -0.004449724
-------------------------   ----------------


-------------------------   --------------------
FINAL SINGLE POINT ENERGY      -488.169471140846
-------------------------   --------------------



           ************************************************************
           *        Program running with 24 parallel MPI-processes    *
           *              working on a common directory               *
           ************************************************************
------------------------------------------------------------------------------
                         ORCA SCF GRADIENT CALCULATION
------------------------------------------------------------------------------

Nuc. rep. gradient        (SHARK) ... done (  0.0 sec)
HCore & Overlap gradient  (SHARK) ... done (  0.0 sec)
Split-RIJ-J gradient      (SHARK) ... done (  0.2 sec)
XC gradient                       ... done (  0.5 sec)
CPCM gradient                     ... done (  0.3 sec)
Dispersion correction             ... done (  0.1 sec)

-------------------
DISPERSION GRADIENT
-------------------

   1   Al  :    0.000000032    0.000000110    0.000169150
   2   Al  :   -0.000000019    0.000000181   -0.000169150
   3   H   :    0.000058450   -0.000002361   -0.000000009
   4   H   :   -0.000003181   -0.000070899   -0.000109602
   5   H   :   -0.000058428    0.000002857    0.000000009
   6   H   :    0.000003165    0.000070506    0.000109632
   7   H   :   -0.000003150   -0.000070945    0.000109573
   8   H   :    0.000003130    0.000070551   -0.000109604

Difference to translation invariance:
           :    0.0000000000    0.0000000000   -0.0000000000

Difference to rotation invariance:
           :   -0.0000000000    0.0000000000   -0.0000000000

Norm of the Dispersion gradient    ...    0.0003635472
RMS gradient                       ...    0.0000742088
MAX gradient                       ...    0.0001691498

------------------
CARTESIAN GRADIENT
------------------

   1   Al  :    0.000001924    0.000017862    0.000730136
   2   Al  :    0.000001844    0.000017560   -0.000730130
   3   H   :    0.000006246    0.000006684    0.000000050
   4   H   :    0.000002330    0.000082996    0.000180172
   5   H   :   -0.000007897   -0.000008094   -0.000000022
   6   H   :   -0.000002907   -0.000100039   -0.000137725
   7   H   :    0.000001771    0.000083022   -0.000180262
   8   H   :   -0.000003310   -0.000099992    0.000137780

Difference to translation invariance:
           :    0.0000000000    0.0000000000   -0.0000000000

Difference to rotation invariance:
           :   -0.0000003308   -0.0000007465    0.0000176554

Norm of the Cartesian gradient     ...    0.0010971586
RMS gradient                       ...    0.0002239566
MAX gradient                       ...    0.0007301362

-------
TIMINGS
-------

Total SCF gradient time     ....        1.130 sec

Densities                   ....       0.001 sec  (  0.1%)
One electron gradient       ....       0.039 sec  (  3.4%)
RI-J Coulomb gradient       ....       0.242 sec  ( 21.4%)
XC gradient                 ....       0.475 sec  ( 42.1%)
CPCM gradient               ....       0.254 sec  ( 22.5%)
   A-Matrix (El+Nuc)        ....       0.004 sec  (  0.3%)
   Potential                ....       0.251 sec  ( 22.2%)

Maximum memory used throughout the entire SCFGRAD-calculation: 27.1 MB
------------------------------------------------------------------------------
                         ORCA GEOMETRY RELAXATION STEP
------------------------------------------------------------------------------

Reading the OPT-File                    .... done
Getting information on internals        .... done
Copying old internal coords+grads       .... done
Making the new internal coordinates     .... (2022 redundants) done
Validating the new internal coordinates .... (2022 redundants) done
Calculating the B-matrix                .... done
[...]
     16       0.000000   0.000000   0.000000   0.000000   0.000000   0.000000
     17       0.000000   0.000000   0.000000   0.000000   0.000000   0.000000
     18       0.000000   0.000000   0.000000   0.000000   0.000000   0.000000
     19       0.000000   0.000000   0.000000   0.000000   0.000000   0.000000
     20       0.000000   0.000000   0.000000   0.000000   0.000000   0.000000
     21       0.000000   0.000000   0.000000   0.000000   0.000000   0.000000
     22       0.000000   0.000000   0.000000   0.000000   0.000000   0.000000
     23       0.000000   0.000000   0.000000   0.000000   0.000000   0.000000
                  6          7          8          9         10         11    
      0      -0.000114   0.000060   0.000271  -0.001364  -0.060049   0.032876
      1      -0.003745   0.000017  -0.000029   0.058392  -0.001209  -0.001486
      2       0.000419   0.373936   0.000022   0.000031   0.000005   0.000000
      3      -0.000114  -0.000053  -0.000271   0.001364   0.060049   0.032876
      4      -0.003745   0.000175   0.000029  -0.058392   0.001209  -0.001486
      5      -0.000421  -0.373936   0.000014   0.000006  -0.000012  -0.000009
      6      -0.013581  -0.140801  -0.000001  -0.000002  -0.000016   0.106332
      7      -0.293910   0.009892   0.000004   0.000003   0.000025  -0.007191
      8      -0.000060   0.000025   0.000267  -0.007325  -0.113058  -0.000019
      9       0.008308  -0.000036  -0.498181  -0.024952  -0.492389  -0.491242
     10       0.196007   0.016315   0.022347   0.177203   0.010255   0.021848
     11      -0.410646  -0.407644  -0.000026  -0.464805   0.031151   0.000351
     12      -0.013788   0.140971   0.000002  -0.000000   0.000016   0.106608
     13      -0.293671  -0.006396   0.000004  -0.000004  -0.000023  -0.001087
     14      -0.000060  -0.000024  -0.000255   0.007476   0.113043  -0.000017
     15       0.008309  -0.000064  -0.500811   0.024265   0.488903  -0.495242
     16       0.198208  -0.020639   0.022578  -0.179957  -0.009952   0.022078
     17      -0.408675   0.416392  -0.000290   0.464221  -0.031052   0.000274
     18       0.008436   0.000001   0.498175   0.024822   0.492399  -0.491247
     19       0.195835   0.016151  -0.022360  -0.177007  -0.010271   0.021844
     20       0.410723   0.407658  -0.000185  -0.464877   0.031012  -0.000226
     21       0.008442  -0.000264   0.500806  -0.024115  -0.488912  -0.495250
     22       0.198035  -0.020464  -0.022571   0.179760   0.009957   0.022066
     23       0.408751  -0.416407  -0.000459   0.464297  -0.030901  -0.000124
                 12         13         14         15         16         17    
      0       0.000002   0.000013  -0.000250  -0.001423   0.029903  -0.011769
      1       0.000062  -0.000182   0.000049  -0.029478  -0.001416   0.000530
      2      -0.034143   0.036887   0.002752  -0.000050  -0.000006   0.000019
      3      -0.000011   0.000003  -0.000250  -0.001423   0.029903   0.011770
      4      -0.000048  -0.000167   0.000050  -0.029478  -0.001416  -0.000530
      5      -0.034142  -0.036888  -0.002754   0.000038  -0.000005   0.000014
      6       0.000006  -0.020438  -0.028692   0.029718  -0.702379  -0.000087
      7       0.000017   0.049415  -0.611104   0.642047   0.031612   0.000144
      8       0.018515   0.000013  -0.000122   0.000131   0.000127  -0.693457
      9      -0.010025  -0.029227   0.251125   0.004109  -0.048853   0.098992
     10      -0.219666  -0.226493  -0.027678   0.073150   0.002194  -0.004495
     11       0.448537   0.441882   0.031703  -0.193797  -0.000171  -0.000070
     12       0.000004   0.020395   0.030891   0.031668  -0.702109   0.000083
     13      -0.000031  -0.045728   0.609202   0.644101   0.035407  -0.000148
     14       0.018491  -0.000013   0.000128   0.000135   0.000124   0.692500
     15      -0.010173   0.029038  -0.245528   0.003223  -0.049337  -0.099004
     16      -0.221857   0.229318   0.027293   0.072914   0.002205   0.004442
     17       0.446796  -0.441709  -0.030859  -0.190755  -0.000156   0.000106
     18       0.010123  -0.029361   0.251115   0.004161  -0.048853  -0.098993
     19       0.219484  -0.226308  -0.027653   0.073071   0.002194   0.004493
     20       0.448633  -0.441970  -0.031758   0.193828   0.000185  -0.000040
     21       0.010301   0.029156  -0.245519   0.003282  -0.049338   0.099005
     22       0.221669   0.229139   0.027294   0.072836   0.002203  -0.004442
     23       0.446882   0.441806   0.030980   0.190787   0.000172   0.000074
                 18         19         20         21         22         23    
      0      -0.000011  -0.000002   0.000009   0.000007  -0.001461   0.001478
      1       0.000047   0.000042   0.000239   0.000201  -0.032623   0.033029
      2      -0.024722  -0.010120  -0.013862  -0.016186  -0.000186   0.000180
      3       0.000002   0.000002  -0.000013   0.000012   0.001461   0.001477
      4      -0.000036   0.000038  -0.000235   0.000199   0.032622   0.033030
      5      -0.024722   0.010120  -0.013861   0.016186  -0.000176  -0.000168
      6       0.000117  -0.706140  -0.000008  -0.006050   0.000001   0.000487
      7      -0.000148   0.031375   0.000010   0.000473  -0.000000   0.009143
      8       0.703532   0.000092  -0.049009   0.000002  -0.000137   0.000002
      9       0.001763   0.000178   0.020388  -0.020281  -0.019869  -0.019952
     10       0.037760   0.010244   0.455117  -0.453188  -0.443103  -0.444936
     11      -0.021110  -0.001367   0.210281  -0.215631  -0.222468  -0.220335
     12       0.000120   0.706142  -0.000007   0.006051  -0.000000   0.000402
     13      -0.000154  -0.033285   0.000010  -0.000306  -0.000000   0.009143
     14       0.704498  -0.000096  -0.049010  -0.000001  -0.000316  -0.000001
     15       0.001634  -0.000186   0.020102   0.020045   0.020083  -0.020108
     16       0.037793  -0.010351   0.448533   0.447744   0.447705  -0.448213
     17      -0.021125   0.001476   0.209966   0.215910   0.227552  -0.224895
     18      -0.001771   0.000174  -0.020333  -0.020221   0.019815  -0.019895
     19      -0.037751   0.010244  -0.455188  -0.453195   0.443283  -0.445045
     20      -0.021126   0.001371   0.210089   0.215407  -0.222332   0.220164
     21      -0.001637  -0.000181  -0.020030   0.019970  -0.020011  -0.020036
     22      -0.037784  -0.010350  -0.448581   0.447774  -0.447863  -0.448348
     23      -0.021141  -0.001480   0.209766  -0.215699   0.227402   0.224734


-----------
IR SPECTRUM
-----------

 Mode   freq       eps      Int      T**2         TX        TY        TZ
       cm**-1   L/(mol*cm) km/mol    a.u.
----------------------------------------------------------------------------
  6:    193.62   0.003988   20.15  0.006428  (-0.002588 -0.080130 -0.000015)
  7:    365.58   0.000000    0.00  0.000000  ( 0.000014  0.000332  0.000000)
  8:    402.10   0.000000    0.00  0.000000  ( 0.000002  0.000000  0.000087)
  9:    446.25   0.000000    0.00  0.000000  (-0.000002 -0.000000  0.000279)
 10:    450.94   0.000000    0.00  0.000000  (-0.000000  0.000001 -0.000032)
 11:    583.20   0.065979  333.43  0.035305  ( 0.187697 -0.008623 -0.000024)
 12:    656.78   0.151426  765.25  0.071949  (-0.000036  0.000058 -0.268234)
 13:    701.67   0.000002    0.01  0.000001  ( 0.000030 -0.000979 -0.000001)
 14:    705.13   0.000004    0.02  0.000002  (-0.001282  0.000243 -0.000012)
 15:    772.90   0.046836  236.69  0.018910  (-0.007160 -0.137328 -0.000030)
 16:   1264.67   0.069529  351.37  0.017157  ( 0.130844 -0.006032 -0.000025)
 17:   1366.07   0.000000    0.00  0.000000  ( 0.000000  0.000001  0.000159)
 18:   1404.79   0.235612  1190.69  0.052339  (-0.000037  0.000049 -0.228778)
 19:   1484.82   0.000000    0.00  0.000000  (-0.000007  0.000184  0.000001)
 20:   1890.57   0.031015  156.74  0.005119  (-0.000011  0.000010 -0.071550)
 21:   1895.80   0.000004    0.02  0.000001  ( 0.000035  0.000777  0.000001)
 22:   1903.85   0.000004    0.02  0.000001  (-0.000001 -0.000002 -0.000804)
 23:   1910.12   0.100832  509.56  0.016473  ( 0.005738  0.128220  0.000023)

* The epsilon (eps) is given for a Dirac delta lineshape.
** The dipole moment derivative (T) already includes vibrational overlap.

The first frequency considered to be a vibration is 6
The total number of vibrations considered is 18


--------------------------
THERMOCHEMISTRY AT 298.15K
--------------------------

Temperature         ...   298.15 K
Pressure            ...     1.00 atm
Total Mass          ...    60.01 AMU
Quasi RRHO          ...     True
Cut-Off Frequency   ...     1.00 cm^-1

Throughout the following assumptions are being made:
  (1) The electronic state is orbitally nondegenerate
  (2) There are no thermally accessible electronically excited states
  (3) Hindered rotations indicated by low frequency modes are not
      treated as such but are treated as vibrations and this may
      cause some error
  (4) All equations used are the standard statistical mechanics
      equations for an ideal gas
  (5) All vibrations are strictly harmonic

freq.     193.62  E(vib)   ...       0.36 
freq.     365.58  E(vib)   ...       0.22 
freq.     402.10  E(vib)   ...       0.19 
freq.     446.25  E(vib)   ...       0.17 
freq.     450.94  E(vib)   ...       0.17 
freq.     583.20  E(vib)   ...       0.11 
freq.     656.78  E(vib)   ...       0.08 
freq.     701.67  E(vib)   ...       0.07 
freq.     705.13  E(vib)   ...       0.07 
freq.     772.90  E(vib)   ...       0.05 
freq.    1264.67  E(vib)   ...       0.01 
freq.    1366.07  E(vib)   ...       0.01 
freq.    1404.79  E(vib)   ...       0.00 
freq.    1484.82  E(vib)   ...       0.00 
freq.    1890.57  E(vib)   ...       0.00 
freq.    1895.80  E(vib)   ...       0.00 
freq.    1903.85  E(vib)   ...       0.00 
freq.    1910.12  E(vib)   ...       0.00 

------------
INNER ENERGY
------------

The inner energy is: U= E(el) + E(ZPE) + E(vib) + E(rot) + E(trans)
    E(el)   - is the total energy from the electronic structure calculation
              = E(kin-el) + E(nuc-el) + E(el-el) + E(nuc-nuc)
    E(ZPE)  - the the zero temperature vibrational energy from the frequency calculation
    E(vib)  - the the finite temperature correction to E(ZPE) due to population
              of excited vibrational states
    E(rot)  - is the rotational thermal energy
    E(trans)- is the translational thermal energy

Summary of contributions to the inner energy U:
Electronic energy                ...   -488.16947447 Eh
Zero point energy                ...      0.04191574 Eh      26.30 kcal/mol
Thermal vibrational correction   ...      0.00240019 Eh       1.51 kcal/mol
Thermal rotational correction    ...      0.00141627 Eh       0.89 kcal/mol
Thermal translational correction ...      0.00141627 Eh       0.89 kcal/mol
-----------------------------------------------------------------------
Total thermal energy                   -488.12232600 Eh


Summary of corrections to the electronic energy:
(perhaps to be used in another calculation)
Total thermal correction                  0.00523274 Eh       3.28 kcal/mol
Non-thermal (ZPE) correction              0.04191574 Eh      26.30 kcal/mol
-----------------------------------------------------------------------
Total correction                          0.04714847 Eh      29.59 kcal/mol


--------
ENTHALPY
--------

The enthalpy is H = U + kB*T
                kB is Boltzmann's constant
Total thermal energy              ...   -488.12232600 Eh 
Thermal Enthalpy correction       ...      0.00094421 Eh       0.59 kcal/mol
-----------------------------------------------------------------------
Total Enthalpy                    ...   -488.12138179 Eh


Note: Rotational entropy computed according to Herzberg 
Infrared and Raman Spectra, Chapter V,1, Van Nostrand Reinhold, 1945 
Point Group:  Cs, Symmetry Number:   1  
Rotational constants in cm-1:     1.538482     0.152295     0.145109 

Vibrational entropy computed according to the QRRHO of S. Grimme
Chem.Eur.J. 2012 18 9955 using a reference frequency of 100.0 cm-1


-------
ENTROPY
-------

The entropy contributions are T*S = T*(S(el)+S(vib)+S(rot)+S(trans))
     S(el)   - electronic entropy
     S(vib)  - vibrational entropy
     S(rot)  - rotational entropy
     S(trans)- translational entropy
The entropies will be listed as multiplied by the temperature to get
units of energy

Electronic entropy                ...      0.00000000 Eh      0.00 kcal/mol
Vibrational entropy               ...      0.00362169 Eh      2.27 kcal/mol
Rotational entropy                ...      0.01110714 Eh      6.97 kcal/mol
Translational entropy             ...      0.01814806 Eh     11.39 kcal/mol
-----------------------------------------------------------------------
Final entropy term                ...      0.03287688 Eh     20.63 kcal/mol

In case the symmetry of your molecule has not been determined correctly
or in case you have a reason to use a different symmetry number we print 
out the resulting rotational entropy values for sn=1,12:

 non-linear molecules -----------------------------------
|  sn= 1 | S(rot)=       0.01110714 Eh      6.97 kcal/mol|
|  sn= 2 | S(rot)=       0.01045269 Eh      6.56 kcal/mol|
|  sn= 3 | S(rot)=       0.01006985 Eh      6.32 kcal/mol|
|  sn= 4 | S(rot)=       0.00979823 Eh      6.15 kcal/mol|
|  sn= 5 | S(rot)=       0.00958754 Eh      6.02 kcal/mol|
|  sn= 6 | S(rot)=       0.00941540 Eh      5.91 kcal/mol|
|  sn= 7 | S(rot)=       0.00926985 Eh      5.82 kcal/mol|
|  sn= 8 | S(rot)=       0.00914377 Eh      5.74 kcal/mol|
|  sn= 9 | S(rot)=       0.00903256 Eh      5.67 kcal/mol|
|  sn=10 | S(rot)=       0.00893308 Eh      5.61 kcal/mol|
|  sn=11 | S(rot)=       0.00884309 Eh      5.55 kcal/mol|
|  sn=12 | S(rot)=       0.00876094 Eh      5.50 kcal/mol|
 linear molecules ---------------------------------------
|  Dinfh | S(rot)=       0.00714833 Eh      4.49 kcal/mol|
|  Cinfv | S(rot)=       0.00780279 Eh      4.90 kcal/mol|
 --------------------------------------------------------


-------------------
GIBBS FREE ENERGY
-------------------

The Gibbs free energy is G = H - T*S

Total enthalpy                    ...   -488.12138179 Eh 
Total entropy correction          ...     -0.03287688 Eh    -20.63 kcal/mol
-----------------------------------------------------------------------
Final Gibbs free energy         ...   -488.15425867 Eh

For completeness - the Gibbs free energy minus the electronic energy
G-E(el)                           ...      0.01521580 Eh      9.55 kcal/mol


Maximum memory used throughout the entire PROP-calculation: 27.2 MB

--------------------------------
SUGGESTED CITATIONS FOR THIS RUN
--------------------------------

Below you find a list of papers that are relevant to this ORCA run
We neither can nor want to force you to cite these papers, but we appreciate if you do
You receive ORCA, which is the product of decades of hard work by many enthusiastic individuals, for free
The only thing we kindly ask in return is that you cite our papers,
We deeply appreciate it, if you show your appreciation for ORCA by not just citing the generic ORCA reference.

Please note that relegating all ORCA citations to the supporting information does *not* help us.
SI sections are not indexed - citations you put there will not count into any citation statistics
But we need these citations in order to attract the funding resources that allow us to do what we are doing

Therefore, if you are a happy ORCA user, please consider citing a few of the papers listed below in the main body of your paper

In addition to the list printed below, the program has created the file run.bibtex that contains the list in bibtex format
You can import this file easily into all common literature databanks and citation aid programs


List of essential papers. We consider these as the minimum necessary citations

  1. Neese, F.
     Software update: the ORCA program system, version 6.0
     WIRES Comput. Molec. Sci. 2025 15(1), e70019
     doi.org/10.1002/wcms.7019

List of papers to cite with high priority. The work reported in these papers was absolutely
necessary for this run to complete.
Our perspective: the developers of density functionals and basis sets usually get cited in chemistry papers
Good! But without the algorithms to do something with them, the functionals or basis sets would not do anything.
Hence, in our opinion, the algorithm design and method developments papers are equally worthy of getting cited

  1. Neese, F.
     An improvement of the resolution of the identity approximation for the formation of the Coulomb matrix
     J. Comp. Chem. 2003 24(14), 1740-1747
     doi.org/10.1002/jcc.10318
  2. Grimme, S.; Antony, J.; Ehrlich, S.; Krieg, H.
     A consistent and accurate ab initio parametrization of density functional dispersion correction (DFT-D) for the 94 elements H-Pu
     J. Chem. Phys. 2010 132 , 154104
     doi.org/10.1063/1.3382344
  3. Grimme, S.; Ehrlich, S.; Goerigk, L.
     Effect of the damping function in dispersion corrected density functional theory
     J. Comput. Chem. 2011 32(7), 1456-1465
     doi.org/10.1002/jcc.21759
  4. Bykov, D.; Petrenko, T.; Izsak, R.; Kossmann, S.; Becker, U.; Valeev, E.; Neese, F.
     Efficient implementation of the analytic second derivatives of Hartree-Fock and hybrid DFT energies: a detailed analysis of different approximations
     Molec. Phys. 2015 113 , 1961-1977
     doi.org/10.1080/00268976.2015.1025114
  5. Garcia-Rates, M.; Neese, F.
     Efficient implementation of the analytical second derivatives of hartree-fock and hybrid DFT energies within the framework of the conductor-like polarizable continuum model
     J. Comput. Chem. 2019 40 , 1816-1828
     doi.org/10.1002/jcc.25833
  6. Garcia-Rates, M.; Neese, F.
     Effect of the Solute Cavity on the Solvation Energy and its Derivatives within the Framework of the Gaussian Charge Scheme
     J. Comput. Chem. 2020 41 , 922-939
     doi.org/10.1002/jcc.26139
  7. Neese, F.
     The SHARK Integral Generation and Digestion System
     J. Comp. Chem. 2022 44(3), 381
     doi.org/10.1002/jcc.26942

List of suggested additional citations. These are papers that are important in the 'surrounding' of 
of this run, or papers that preceded the highly important papers. If you like your results we are grateful for a citation.

  1. Neese, F.
     The ORCA program system
     WIRES Comput. Molec. Sci. 2012 2(1), 73-78
     doi.org/10.1002/wcms.81
  2. Neese, F.
     Software update: the ORCA program system, version 4.0
     WIRES Comput. Molec. Sci. 2018 8(1), 1-6
     doi.org/10.1002/wcms.1327
  3. Neese, F.; Wennmohs, F.; Becker, U.; Riplinger, C.
     The ORCA quantum chemistry program package
     J. Chem. Phys. 2020 152(22), 224108
     doi.org/10.1063/5.0004608
  4. Neese, F.
     Software update: The ORCA program system—Version 5.0
     WIRES Comput. Molec. Sci. 2022 12(1), e1606
     doi.org/10.1002/wcms.1606

List of optional additional citations

  1. Neese, F.
     Approximate second-order SCF convergence for spin unrestricted wavefunctions
     Chem. Phys. Lett. 2000 325(1-3), 93-98
     doi.org/10.1016/s0009-2614(00)00662-x

Timings for individual modules:

Sum of individual times          ...       71.861 sec (=   1.198 min)
Startup calculation              ...       18.993 sec (=   0.317 min)  26.4 %
SCF iterations                   ...       18.323 sec (=   0.305 min)  25.5 %
Property integrals               ...       13.970 sec (=   0.233 min)  19.4 %
SCF Response                     ...        4.660 sec (=   0.078 min)   6.5 %
Property calculations            ...        5.855 sec (=   0.098 min)   8.1 %
SCF Gradient evaluation          ...        9.978 sec (=   0.166 min)  13.9 %
Geometry relaxation              ...        0.081 sec (=   0.001 min)   0.1 %
                             ****ORCA TERMINATED NORMALLY****
TOTAL RUN TIME: 0 days 0 hours 1 minutes 17 seconds 604 msec
