
     Program PWSCF v.7.3.1 starts on  3Jun2025 at 11:17:28 

     This program is part of the open-source Quantum ESPRESSO suite
     for quantum simulation of materials; please cite
         "P. Giannozzi et al., J. Phys.:Condens. Matter 21 395502 (2009);
         "P. Giannozzi et al., J. Phys.:Condens. Matter 29 465901 (2017);
         "P. Giannozzi et al., J. Chem. Phys. 152 154105 (2020);
          URL http://www.quantum-espresso.org", 
     in publications or presentations arising from this work. More details at
     http://www.quantum-espresso.org/quote

     Parallel version (MPI), running on   256 processors

     MPI processes distributed on     1 nodes
     1533434 MiB available memory on the printing compute node when the environment starts

     Waiting for input...
     Reading input from standard input

     Current dimensions of program PWSCF are:
     Max number of different atomic species (ntypx) = 10
     Max number of k-points (npk) =  40000
     Max angular momentum in pseudopotentials (lmaxx) =  4
     file H.pbe-kjpaw_psl.1.0.0.UPF: wavefunction(s)  1S renormalized
     file Zr.pbe-spn-kjpaw_psl.1.0.0.UPF: wavefunction(s)  4S 4P renormalized
     file C.pbe-n-kjpaw_psl.1.0.0.UPF: wavefunction(s)  2S 2P renormalized
     file O.pbe-n-kjpaw_psl.1.0.0.UPF: wavefunction(s)  2S 2P renormalized
     file N.pbe-n-kjpaw_psl.1.0.0.UPF: wavefunction(s)  2S renormalized

     IMPORTANT: XC functional enforced from input :
     Exchange-correlation= PBE
                           (   1   4   3   4   0   0   0)
     Any further DFT definition will be discarded
     Please, verify this is what you really want


     gamma-point specific algorithms are used

     R & G space division:  proc/nbgrp/npool/nimage =     256
     WARNING: too many processors for an effective parallelization!
     wavefunctions fft division:  task group distribution
                                  #TG    x Z-proc =       8     32
     Subspace diagonalization in iterative solution of the eigenvalue problem:
     one sub-group per band group will be used
     custom distributed-memory algorithm (size of sub-group:  3*  3 procs)


     Parallelization info
     --------------------
     sticks:   dense  smooth     PW     G-vecs:    dense   smooth      PW
     Min          98      66     16                10592     5766     714
     Max         100      68     18                10624     5782     734
     Sum       25443   16987   4247              2715863  1478707  184701

     Using Pencil Decomposition


     Title: 
     UiO-66-NH2-dehydrox GeomOpt                                                


     bravais-lattice index     =            0
     lattice parameter (alat)  =      27.5206  a.u.
     unit-cell volume          =   15295.2665 (a.u.)^3
     number of atoms/cell      =          120
     number of atomic types    =            5
     number of electrons       =       504.00
     number of Kohn-Sham states=          252
     kinetic-energy cutoff     =      80.0000  Ry
     charge density cutoff     =     480.0000  Ry
     scf convergence threshold =      1.0E-08
     mixing beta               =       0.7000
     number of iterations used =            8  plain     mixing
     energy convergence thresh.=      3.6E-06
     force convergence thresh. =      1.0E-05
     press convergence thresh. =      5.0E-01
     Exchange-correlation= PBE
                           (   1   4   3   4   0   0   0)
     nstep                     =           50


     celldm(1)=  27.520592  celldm(2)=   0.000000  celldm(3)=   0.000000
     celldm(4)=   0.000000  celldm(5)=   0.000000  celldm(6)=   0.000000

     crystal axes: (cart. coord. in units of alat)
               a(1) = (   1.000000   0.000000   0.000000 )  
               a(2) = (   0.474326   0.880349   0.000000 )  
               a(3) = (   0.474326   0.283229   0.833544 )  

     reciprocal axes: (cart. coord. in units 2 pi/alat)
               b(1) = (  1.000000 -0.538793 -0.385971 )  
               b(2) = (  0.000000  1.135913 -0.385971 )  
               b(3) = (  0.000000  0.000000  1.199696 )  


     PseudoPot. # 1 for H  read from file:
     /home/mehlhorn/pseudos/UiO-66_pbe-spn-kjpaw/H.pbe-kjpaw_psl.1.0.0.UPF
     MD5 check sum: d81a744832360e4a8af0b0b5b123bc2a
     Pseudo is Projector augmented-wave, Zval =  1.0
     Generated using &quot;atomic&quot; code by A. Dal Corso  v.6.3MaX
     Shape of augmentation charge: PSQ
     Using radial grid of  929 points,  2 beta functions with: 
                l(1) =   0
                l(2) =   0
     Q(r) pseudized with 0 coefficients 


     PseudoPot. # 2 for Zr read from file:
     /home/mehlhorn/pseudos/UiO-66_pbe-spn-kjpaw/Zr.pbe-spn-kjpaw_psl.1.0.0.UPF
     MD5 check sum: 02112c41713a0468aff2bb39ef194e36
     Pseudo is Projector augmented-wave + core cor, Zval = 12.0
     Generated using &quot;atomic&quot; code by A. Dal Corso  v.6.2.2
     Shape of augmentation charge: PSQ
     Using radial grid of 1225 points,  6 beta functions with: 
                l(1) =   0
                l(2) =   0
                l(3) =   1
                l(4) =   1
                l(5) =   2
                l(6) =   2
     Q(r) pseudized with 0 coefficients 


     PseudoPot. # 3 for C  read from file:
     /home/mehlhorn/pseudos/UiO-66_pbe-spn-kjpaw/C.pbe-n-kjpaw_psl.1.0.0.UPF
     MD5 check sum: 5f16ad9a65e90284d1d834d4ab3b0f7d
     Pseudo is Projector augmented-wave + core cor, Zval =  4.0
     Generated using &quot;atomic&quot; code by A. Dal Corso  v.6.3
     Shape of augmentation charge: PSQ
     Using radial grid of 1073 points,  4 beta functions with: 
                l(1) =   0
                l(2) =   0
                l(3) =   1
                l(4) =   1
     Q(r) pseudized with 0 coefficients 


     PseudoPot. # 4 for O  read from file:
     /home/mehlhorn/pseudos/UiO-66_pbe-spn-kjpaw/O.pbe-n-kjpaw_psl.1.0.0.UPF
     MD5 check sum: e99d9cef9b487d1ca56f5b95ecd0fd7a
     Pseudo is Projector augmented-wave + core cor, Zval =  6.0
     Generated using &quot;atomic&quot; code by A. Dal Corso  v.6.3
     Shape of augmentation charge: PSQ
     Using radial grid of 1095 points,  4 beta functions with: 
                l(1) =   0
                l(2) =   0
                l(3) =   1
                l(4) =   1
     Q(r) pseudized with 0 coefficients 


     PseudoPot. # 5 for N  read from file:
     /home/mehlhorn/pseudos/UiO-66_pbe-spn-kjpaw/N.pbe-n-kjpaw_psl.1.0.0.UPF
     MD5 check sum: 14c48229446f9f2d411169a3abcbc3fa
     Pseudo is Projector augmented-wave + core cor, Zval =  5.0
     Generated using &quot;atomic&quot; code by A. Dal Corso  v.6.3
     Shape of augmentation charge: PSQ
     Using radial grid of 1085 points,  4 beta functions with: 
                l(1) =   0
                l(2) =   0
                l(3) =   1
                l(4) =   1
     Q(r) pseudized with 0 coefficients 


     atomic species   valence    mass     pseudopotential
     H                 1.00     1.00750     H ( 1.00)
     Zr               12.00    91.22400     Zr( 1.00)
     C                 4.00    12.01060     C ( 1.00)
     O                 6.00    15.99900     O ( 1.00)
     N                 5.00    14.00650     N ( 1.00)

     No symmetry found



   Cartesian axes

     site n.     atom                  positions (alat units)
         1        Zr     tau(   1) = (   0.9874181   0.1392538   0.1019900  )
         2        Zr     tau(   2) = (   0.5928119   0.8022180   0.0990376  )
         3        Zr     tau(   3) = (   0.5909499   0.3549830   0.7277042  )
         4        Zr     tau(   4) = (   1.3577007   0.8085958   0.1058401  )
         5        Zr     tau(   5) = (   0.9612331   1.0243241   0.7315543  )
         6        Zr     tau(   6) = (   1.3558393   0.3613605   0.7345059  )
         7        O      tau(   7) = (   1.0836615   0.2543800   0.0708329  )
         8        O      tau(   8) = (   0.6450989   0.8833703   0.2180669  )
         9        O      tau(   9) = (   0.7379519   0.3351729   0.7662473  )
        10        O      tau(  10) = (   1.3035537   0.2802097   0.6154783  )
        11        O      tau(  11) = (   0.8649916   0.9091997   0.7627114  )
        12        O      tau(  12) = (   1.2107012   0.8284061   0.0672979  )
        13        O      tau(  13) = (   1.3013736   0.6798381   0.0446063  )
        14        O      tau(  14) = (   1.2157702   0.3070774   0.7650811  )
        15        O      tau(  15) = (   0.7328815   0.8565014   0.0684632  )
        16        O      tau(  16) = (   0.8470066   1.0218857   0.6293426  )
        17        O      tau(  17) = (   0.8799826   0.0527165   0.0398718  )
        18        O      tau(  18) = (   0.4655642   0.7487408   0.0370861  )
        19        O      tau(  19) = (   0.6472781   0.4837407   0.7889380  )
        20        O      tau(  20) = (   1.1016451   0.1416930   0.2042017  )
        21        O      tau(  21) = (   0.6511863   0.6679768   0.0643605  )
        22        O      tau(  22) = (   0.5517124   0.4424321   0.6117565  )
        23        O      tau(  23) = (   0.8893487   0.2516787   0.0700236  )
        24        O      tau(  24) = (   1.3969392   0.7211467   0.2217878  )
        25        O      tau(  25) = (   1.0517243   1.0201396   0.6114514  )
        26        O      tau(  26) = (   1.2974654   0.4956020   0.7691838  )
        27        O      tau(  27) = (   0.4638074   0.2789442   0.6970014  )
        28        O      tau(  28) = (   1.3052454   0.8837951   0.2277918  )
        29        O      tau(  29) = (   0.5514916   0.7130828   0.2157696  )
        30        O      tau(  30) = (   1.4848442   0.8846345   0.1365429  )
        31        O      tau(  31) = (   1.4830874   0.4148380   0.7964582  )
        32        O      tau(  32) = (   1.0686691   1.1108623   0.7936725  )
        33        O      tau(  33) = (   1.3971600   0.4504960   0.6177747  )
        34        O      tau(  34) = (   0.6434063   0.2797837   0.6057525  )
        35        O      tau(  35) = (   1.0593029   0.9119001   0.7635207  )
        36        O      tau(  36) = (   0.8969274   0.1434392   0.2220929  )
        37        N      tau(  37) = (   1.1058469   0.4168572   0.1065736  )
        38        N      tau(  38) = (   0.7314318   0.8620554   0.3604071  )
        39        N      tau(  39) = (   0.8915117   0.3505027   0.7002714  )
        40        N      tau(  40) = (   1.3274638   0.6401489   0.3520608  )
        41        N      tau(  41) = (   1.1932050   0.6116318   0.7057378  )
        42        N      tau(  42) = (   1.1044176   0.9128308   0.4928481  )
        43        C      tau(  43) = (   0.8027583   0.8998665   0.8234059  )
        44        C      tau(  44) = (   1.3219829   0.1995885   0.5871144  )
        45        C      tau(  45) = (   0.1523429   0.0836409   0.2464299  )
        46        C      tau(  46) = (   1.1729659   0.8696717   0.0000884  )
        47        C      tau(  47) = (   0.1927358   0.3549793   0.0043411  )
        48        C      tau(  48) = (   0.4039254   0.0045282  -0.0001667  )
        49        C      tau(  49) = (   0.3013599   0.0106777  -0.0000884  )
        50        C      tau(  50) = (   0.1458934   0.2637123   0.0101384  )
        51        C      tau(  51) = (   1.1634472   0.4278485   0.0601536  )
        52        C      tau(  52) = (   0.7231730   0.9319341   0.3857485  )
        53        C      tau(  53) = (   0.7852045   0.7357303   0.7733907  )
        54        C      tau(  54) = (   1.2787472   0.1696747   0.4988346  )
        55        C      tau(  55) = (   0.7559158   0.8085994   0.8292032  )
        56        C      tau(  56) = (   1.0704004   0.8758212   0.0001667  )
        57        C      tau(  57) = (   0.1955787   0.1135547   0.3347097  )
        58        C      tau(  58) = (   1.1842639   0.2038405   0.3662894  )
        59        C      tau(  59) = (   1.1128668   0.8960757   0.8307561  )
        60        C      tau(  60) = (   1.3167211   0.9650414   0.2579153  )
        61        C      tau(  61) = (   1.4741285   0.4698698   0.5811604  )
        62        C      tau(  62) = (   0.7845268   0.3564835   0.0015962  )
        63        C      tau(  63) = (   0.4745237   0.6937099   0.2523839  )
        64        C      tau(  64) = (   0.8357859   0.2675031   0.0027882  )
        65        C      tau(  65) = (   1.2254787   0.2316447   0.4477958  )
        66        C      tau(  66) = (   1.0238727   0.3166227   0.7583853  )
        67        C      tau(  67) = (   0.9247790   0.8469561   0.0751590  )
        68        C      tau(  68) = (   0.7411778   0.6511270   0.7777460  )
        69        C      tau(  69) = (   0.7643878   0.9597382   0.4672549  )
        70        C      tau(  70) = (   1.0201425   0.8423914   0.0752624  )
        71        C      tau(  71) = (   1.2074738   0.5124518   0.0557983  )
        72        C      tau(  72) = (   0.9285092   0.3211874   0.7582819  )
        73        C      tau(  73) = (   0.7463375   0.2310081   0.4505832  )
        74        C      tau(  74) = (   1.3912767   0.5608190   0.4601498  )
        75        C      tau(  75) = (   1.2023142   0.9325707   0.3829611  )
        76        C      tau(  76) = (   1.3913751   0.6141916   0.3809589  )
        77        C      tau(  77) = (   1.1514684   0.9600778   0.4589737  )
        78        C      tau(  78) = (   1.2627003   0.9942664   0.3402194  )
        79        C      tau(  79) = (   1.2006684   0.6610562   0.7613710  )
        80        C      tau(  80) = (   1.1536351   0.7441537   0.7597815  )
        81        C      tau(  81) = (   0.5573750   0.6027597   0.3733945  )
        82        C      tau(  82) = (   0.7950165   0.4194251   0.0737628  )
        83        C      tau(  83) = (   0.4744185   0.6355407   0.3370170  )
        84        C      tau(  84) = (   0.7479833   0.5025226   0.0721733  )
        85        C      tau(  85) = (   0.7971832   0.2035010   0.3745706  )
        86        C      tau(  86) = (   0.5572766   0.5493871   0.4525854  )
        87        C      tau(  87) = (   1.4742332   0.5280381   0.4965273  )
        88        C      tau(  88) = (   0.6859513   0.1693124   0.4933249  )
        89        C      tau(  89) = (   1.1641249   0.8070953   0.8319481  )
        90        C      tau(  90) = (   0.6319310   0.1985376   0.5756299  )
        91        H      tau(  91) = (   0.8428047   0.7467216   0.7269707  )
        92        H      tau(  92) = (   1.2172198   0.3015234   0.4731373  )
        93        H      tau(  93) = (   1.1850362   0.5697200   0.0983499  )
        94        H      tau(  94) = (   0.7636155   0.5938588   0.7351944  )
        95        H      tau(  95) = (   1.0571400   0.8130761   0.1332729  )
        96        H      tau(  96) = (   1.1432179   0.2514430   0.3257558  )
        97        H      tau(  97) = (   1.0636459   0.3418177   0.7002731  )
        98        H      tau(  98) = (   0.8850057   0.8217611   0.1332712  )
        99        H      tau(  99) = (   0.8054337   0.9121358   0.5077885  )
       100        H      tau( 100) = (   0.8442341   0.2507480   0.3406962  )
       101        H      tau( 101) = (   0.6211879   0.5234299   0.4814835  )
       102        H      tau( 102) = (   0.7554466   0.5519470   0.1278065  )
       103        H      tau( 103) = (   0.8404247   0.4020521   0.1306006  )
       104        H      tau( 104) = (   0.6213695   0.6198598   0.3386590  )
       105        H      tau( 105) = (   1.1082269   0.7615267   0.7029437  )
       106        H      tau( 106) = (   0.7525814   0.3003361   0.4779493  )
       107        H      tau( 107) = (   1.1960702   0.8632427   0.3555950  )
       108        H      tau( 108) = (   1.0743463   0.3547294   0.1089192  )
       109        H      tau( 109) = (   1.0836710   0.4687427   0.1474873  )
       110        H      tau( 110) = (   1.3272822   0.5437190   0.4948853  )
       111        H      tau( 111) = (   1.3286305   0.6790899   0.2942703  )
       112        H      tau( 112) = (   1.0678293   0.9338695   0.5483113  )
       113        H      tau( 113) = (   1.2667388   0.6253970   0.3829211  )
       114        H      tau( 114) = (   0.7697121   0.8162403   0.3963712  )
       115        H      tau( 115) = (   1.2280401   0.5513018   0.7078141  )
       116        H      tau( 116) = (   0.9266705   0.3750424   0.6453217  )
       117        H      tau( 117) = (   0.7008490   0.8427512   0.3008278  )
       118        H      tau( 118) = (   0.8218760   0.3532825   0.7011616  )
       119        H      tau( 119) = (   1.1514148   0.6259034   0.6518175  )
       120        H      tau( 120) = (   1.0971594   0.8477631   0.4689520  )

     number of k points=     1
                       cart. coord. in units 2pi/alat
        k(    1) = (   0.0000000   0.0000000   0.0000000), wk =   2.0000000

     Dense  grid:  1357932 G-vectors     FFT dimensions: ( 192, 192, 192)

     Smooth grid:   739354 G-vectors     FFT dimensions: ( 160, 160, 160)

     Estimated max dynamical RAM per process >      55.75 MB

     Estimated total dynamical RAM >      13.94 GB

     Check: negative core charge=   -0.000001

     Initial potential from superposition of free atoms

     starting charge     503.9847, renormalised to     504.0000

     negative rho (up, down):  1.405E-05 0.000E+00
     Starting wfcs are  444 randomized atomic wfcs
     Checking if some PAW data can be deallocated... 

     total cpu time spent up to now is        6.8 secs

     Self-consistent Calculation

     iteration #  1     ecut=    80.00 Ry     beta= 0.70
     Davidson diagonalization with overlap
     ethr =  1.00E-02,  avg # of iterations =  2.0

     negative rho (up, down):  4.333E-06 0.000E+00

     total cpu time spent up to now is       11.8 secs

     total energy              =   -4174.97560966 Ry
     estimated scf accuracy    <      20.91638778 Ry

     iteration #  2     ecut=    80.00 Ry     beta= 0.70
     Davidson diagonalization with overlap
     ethr =  4.15E-03,  avg # of iterations = 13.0

     negative rho (up, down):  1.025E-05 0.000E+00

     total cpu time spent up to now is       19.6 secs

     total energy              =   -4177.84094366 Ry
     estimated scf accuracy    <      23.78287203 Ry

     iteration #  3     ecut=    80.00 Ry     beta= 0.70
     Davidson diagonalization with overlap
     ethr =  4.15E-03,  avg # of iterations =  6.0

     negative rho (up, down):  2.790E-05 0.000E+00

     total cpu time spent up to now is       25.0 secs

     total energy              =   -4183.09707043 Ry
     estimated scf accuracy    <       4.70329233 Ry

     iteration #  4     ecut=    80.00 Ry     beta= 0.70
     Davidson diagonalization with overlap
     ethr =  9.33E-04,  avg # of iterations =  6.0

     negative rho (up, down):  1.420E-04 0.000E+00

     total cpu time spent up to now is       29.6 secs

     total energy              =   -4183.64896245 Ry
     estimated scf accuracy    <       0.67852441 Ry

     iteration #  5     ecut=    80.00 Ry     beta= 0.70
     Davidson diagonalization with overlap
     ethr =  1.35E-04,  avg # of iterations = 10.0

     negative rho (up, down):  1.846E-04 0.000E+00

     total cpu time spent up to now is       39.0 secs

     total energy              =   -4184.26510586 Ry
     estimated scf accuracy    <       0.75322590 Ry

     iteration #  6     ecut=    80.00 Ry     beta= 0.70
     Davidson diagonalization with overlap
     ethr =  1.35E-04,  avg # of iterations =  2.0

     negative rho (up, down):  2.505E-04 0.000E+00

     total cpu time spent up to now is       42.5 secs

     total energy              =   -4184.09499888 Ry
     estimated scf accuracy    <       0.35311938 Ry

     iteration #  7     ecut=    80.00 Ry     beta= 0.70
     Davidson diagonalization with overlap
     ethr =  7.01E-05,  avg # of iterations =  6.0

     negative rho (up, down):  2.619E-04 0.000E+00

     total cpu time spent up to now is       49.9 secs

     total energy              =   -4184.32275044 Ry
     estimated scf accuracy    <       0.15170974 Ry

     iteration #  8     ecut=    80.00 Ry     beta= 0.70
     Davidson diagonalization with overlap
     ethr =  3.01E-05,  avg # of iterations =  2.0

     negative rho (up, down):  2.989E-04 0.000E+00

     total cpu time spent up to now is       53.5 secs

     total energy              =   -4184.27414249 Ry
     estimated scf accuracy    <       0.11035265 Ry

     iteration #  9     ecut=    80.00 Ry     beta= 0.70
     Davidson diagonalization with overlap
     ethr =  2.19E-05,  avg # of iterations =  2.0

     negative rho (up, down):  3.037E-04 0.000E+00

     total cpu time spent up to now is       57.6 secs

     total energy              =   -4184.27852962 Ry
     estimated scf accuracy    <       0.02295868 Ry

     iteration # 10     ecut=    80.00 Ry     beta= 0.70
     Davidson diagonalization with overlap
     ethr =  4.56E-06,  avg # of iterations = 12.0

     negative rho (up, down):  3.038E-04 0.000E+00

     total cpu time spent up to now is       67.5 secs

     total energy              =   -4184.30090912 Ry
     estimated scf accuracy    <       0.01267111 Ry

     iteration # 11     ecut=    80.00 Ry     beta= 0.70
     Davidson diagonalization with overlap
     ethr =  2.51E-06,  avg # of iterations =  2.0

     negative rho (up, down):  3.043E-04 0.000E+00

     total cpu time spent up to now is       71.1 secs

     total energy              =   -4184.29531221 Ry
     estimated scf accuracy    <       0.00883011 Ry

     iteration # 12     ecut=    80.00 Ry     beta= 0.70
     Davidson diagonalization with overlap
     ethr =  1.75E-06,  avg # of iterations =  8.0

     negative rho (up, down):  3.047E-04 0.000E+00

     total cpu time spent up to now is       78.2 secs

     total energy              =   -4184.29936933 Ry
     estimated scf accuracy    <       0.00415097 Ry

     iteration # 13     ecut=    80.00 Ry     beta= 0.70
     Davidson diagonalization with overlap
     ethr =  8.24E-07,  avg # of iterations =  2.0

     negative rho (up, down):  3.082E-04 0.000E+00

     total cpu time spent up to now is       81.8 secs

     total energy              =   -4184.29792897 Ry
     estimated scf accuracy    <       0.00209972 Ry

     iteration # 14     ecut=    80.00 Ry     beta= 0.70
     Davidson diagonalization with overlap
     ethr =  4.17E-07,  avg # of iterations =  7.0

     negative rho (up, down):  3.085E-04 0.000E+00

     total cpu time spent up to now is       90.7 secs

     total energy              =   -4184.29997349 Ry
     estimated scf accuracy    <       0.00395839 Ry

     iteration # 15     ecut=    80.00 Ry     beta= 0.70
     Davidson diagonalization with overlap
     ethr =  4.17E-07,  avg # of iterations =  1.0

     negative rho (up, down):  3.093E-04 0.000E+00

     total cpu time spent up to now is       94.0 secs

     total energy              =   -4184.29910965 Ry
     estimated scf accuracy    <       0.00262515 Ry

     iteration # 16     ecut=    80.00 Ry     beta= 0.70
     Davidson diagonalization with overlap
     ethr =  4.17E-07,  avg # of iterations =  2.0

     negative rho (up, down):  3.095E-04 0.000E+00

     total cpu time spent up to now is       97.9 secs

     total energy              =   -4184.29894648 Ry
     estimated scf accuracy    <       0.00085606 Ry

     iteration # 17     ecut=    80.00 Ry     beta= 0.70
     Davidson diagonalization with overlap
     ethr =  1.70E-07,  avg # of iterations =  6.0

     negative rho (up, down):  3.090E-04 0.000E+00

     total cpu time spent up to now is      105.6 secs

     total energy              =   -4184.29962862 Ry
     estimated scf accuracy    <       0.00033377 Ry

     iteration # 18     ecut=    80.00 Ry     beta= 0.70
     Davidson diagonalization with overlap
     ethr =  6.62E-08,  avg # of iterations =  2.0

     negative rho (up, down):  3.091E-04 0.000E+00

     total cpu time spent up to now is      109.2 secs

     total energy              =   -4184.29949160 Ry
     estimated scf accuracy    <       0.00025160 Ry

     iteration # 19     ecut=    80.00 Ry     beta= 0.70
     Davidson diagonalization with overlap
     ethr =  4.99E-08,  avg # of iterations =  6.0

     negative rho (up, down):  3.093E-04 0.000E+00

     total cpu time spent up to now is      114.9 secs

     total energy              =   -4184.29957170 Ry
     estimated scf accuracy    <       0.00002119 Ry

     iteration # 20     ecut=    80.00 Ry     beta= 0.70
     Davidson diagonalization with overlap
     ethr =  4.20E-09,  avg # of iterations =  9.0

     negative rho (up, down):  3.094E-04 0.000E+00

     total cpu time spent up to now is      120.7 secs

     total energy              =   -4184.29957680 Ry
     estimated scf accuracy    <       0.00000483 Ry

     iteration # 21     ecut=    80.00 Ry     beta= 0.70
     Davidson diagonalization with overlap
     ethr =  9.58E-10,  avg # of iterations = 12.0

     negative rho (up, down):  3.094E-04 0.000E+00

     total cpu time spent up to now is      131.7 secs

     total energy              =   -4184.29957619 Ry
     estimated scf accuracy    <       0.00002583 Ry

     iteration # 22     ecut=    80.00 Ry     beta= 0.70
     Davidson diagonalization with overlap
     ethr =  9.58E-10,  avg # of iterations =  7.0

     negative rho (up, down):  3.095E-04 0.000E+00

     total cpu time spent up to now is      137.9 secs

     total energy              =   -4184.29957662 Ry
     estimated scf accuracy    <       0.00000432 Ry

     iteration # 23     ecut=    80.00 Ry     beta= 0.70
     Davidson diagonalization with overlap
     ethr =  8.57E-10,  avg # of iterations =  6.0

     negative rho (up, down):  3.095E-04 0.000E+00

     total cpu time spent up to now is      144.0 secs

     total energy              =   -4184.29957843 Ry
     estimated scf accuracy    <       0.00000070 Ry

     iteration # 24     ecut=    80.00 Ry     beta= 0.70
     Davidson diagonalization with overlap
     ethr =  1.40E-10,  avg # of iterations =  9.0

     negative rho (up, down):  3.095E-04 0.000E+00

     total cpu time spent up to now is      148.5 secs

     total energy              =   -4184.29957831 Ry
     estimated scf accuracy    <       0.00000069 Ry

     iteration # 25     ecut=    80.00 Ry     beta= 0.70
     Davidson diagonalization with overlap
     ethr =  1.37E-10,  avg # of iterations =  2.0

     negative rho (up, down):  3.095E-04 0.000E+00

     total cpu time spent up to now is      152.3 secs

     total energy              =   -4184.29957821 Ry
     estimated scf accuracy    <       0.00000036 Ry

     iteration # 26     ecut=    80.00 Ry     beta= 0.70
     Davidson diagonalization with overlap
     ethr =  7.23E-11,  avg # of iterations = 10.0

     negative rho (up, down):  3.095E-04 0.000E+00

     total cpu time spent up to now is      158.8 secs

     total energy              =   -4184.29957836 Ry
     estimated scf accuracy    <       0.00000023 Ry

     iteration # 27     ecut=    80.00 Ry     beta= 0.70
     Davidson diagonalization with overlap
     ethr =  4.47E-11,  avg # of iterations =  2.0

     negative rho (up, down):  3.095E-04 0.000E+00

     total cpu time spent up to now is      162.4 secs

     total energy              =   -4184.29957832 Ry
     estimated scf accuracy    <       0.00000020 Ry

     iteration # 28     ecut=    80.00 Ry     beta= 0.70
     Davidson diagonalization with overlap
     ethr =  3.90E-11,  avg # of iterations =  2.0

     negative rho (up, down):  3.095E-04 0.000E+00

     total cpu time spent up to now is      166.2 secs

     total energy              =   -4184.29957829 Ry
     estimated scf accuracy    <       0.00000010 Ry

     iteration # 29     ecut=    80.00 Ry     beta= 0.70
     Davidson diagonalization with overlap
     ethr =  1.89E-11,  avg # of iterations = 11.0

     negative rho (up, down):  3.095E-04 0.000E+00

     total cpu time spent up to now is      172.9 secs

     total energy              =   -4184.29957833 Ry
     estimated scf accuracy    <       0.00000007 Ry

     iteration # 30     ecut=    80.00 Ry     beta= 0.70
     Davidson diagonalization with overlap
     ethr =  1.44E-11,  avg # of iterations =  2.0

     negative rho (up, down):  3.095E-04 0.000E+00

     total cpu time spent up to now is      176.5 secs

     total energy              =   -4184.29957832 Ry
     estimated scf accuracy    <       0.00000003 Ry

     iteration # 31     ecut=    80.00 Ry     beta= 0.70
     Davidson diagonalization with overlap
     ethr =  6.74E-12,  avg # of iterations = 12.0

     negative rho (up, down):  3.095E-04 0.000E+00

     total cpu time spent up to now is      183.4 secs

     End of self-consistent calculation

          k = 0.0000 0.0000 0.0000 ( 92351 PWs)   bands (ev):

   -49.2501 -49.2362 -49.2362 -49.2126 -49.2080 -49.2080 -27.7446 -27.6393
   -27.6392 -27.5404 -27.5404 -27.5369 -27.4022 -27.3766 -27.3766 -27.3420
   -27.3420 -27.3275 -27.2546 -27.2546 -27.2194 -27.2043 -27.2042 -27.2032
   -22.7337 -22.7240 -22.7240 -22.4978 -22.4420 -22.4420 -22.3320 -22.3302
   -22.3301 -22.1130 -22.0473 -22.0472 -21.5669 -21.5660 -21.5660 -21.3024
   -21.2940 -21.2940 -20.3207 -20.3206 -20.3186 -20.0988 -20.0987 -20.0612
   -20.0530 -20.0529 -19.9865 -19.8720 -19.8720 -19.7711 -17.6140 -17.3886
   -17.3885 -17.1901 -17.1901 -17.1517 -16.3504 -16.3504 -16.3504 -16.1323
   -16.1318 -16.1318 -14.5138 -14.5138 -14.5065 -14.2824 -14.2638 -14.2638
   -13.3326 -13.3326 -13.3272 -13.1077 -13.1036 -13.1036 -12.2379 -12.2284
   -12.2284 -12.0053 -11.9790 -11.9790 -11.1330 -11.1213 -11.1213 -10.8776
   -10.8612 -10.8612 -10.4994 -10.4275 -10.4275 -10.2679 -10.1790 -10.1790
    -9.8309  -9.8309  -9.6976  -9.6513  -9.4474  -9.4474  -8.9124  -8.9124
    -8.9025  -8.6971  -8.6517  -8.6517  -8.3433  -8.1691  -8.1690  -8.0771
    -8.0232  -8.0231  -7.8616  -7.8615  -7.8367  -7.7173  -7.6732  -7.6732
    -7.6065  -7.5414  -7.5414  -7.5108  -7.5108  -7.3229  -7.3204  -7.3203
    -7.2679  -7.1292  -7.1292  -7.0709  -7.0394  -7.0394  -6.9614  -6.9614
    -6.9440  -6.8808  -6.8046  -6.7709  -6.7709  -6.7187  -6.6983  -6.6983
    -6.4493  -6.4493  -6.3976  -6.2630  -6.0606  -6.0550  -6.0550  -5.9745
    -5.9745  -5.9635  -5.9275  -5.8971  -5.8971  -5.7936  -5.7936  -5.7519
    -5.6794  -5.6794  -5.4403  -5.4403  -5.4384  -5.3212  -5.2718  -5.2718
    -5.1987  -5.1550  -5.1550  -5.0621  -4.9141  -4.9141  -4.7233  -4.5072
    -4.5072  -4.4898  -4.4768  -4.4768  -4.4178  -3.9344  -3.9344  -3.8572
    -3.8572  -3.8529  -3.8316  -3.7731  -3.7731  -3.7139  -3.7139  -3.6345
    -3.6228  -3.6227  -3.5931  -3.4342  -3.4341  -3.3760  -3.3490  -3.2956
    -3.2955  -3.2446  -3.1478  -3.1371  -3.1371  -3.0319  -3.0318  -2.9863
    -2.8929  -2.8929  -2.7788  -2.7352  -2.7352  -2.6983  -2.6391  -2.6391
    -2.5692  -2.5691  -2.5585  -2.5441  -2.5299  -2.5299  -2.3763  -2.3515
    -2.3515  -2.2922  -2.2446  -2.2446  -2.1936  -2.1364  -2.1258  -2.1258
    -2.1052  -2.1051  -1.9886  -1.9886  -1.9700  -1.7692  -1.7692  -1.7349
    -1.6011  -1.5450  -1.5450  -1.2164  -1.2164  -1.1070  -0.1628  -0.1628
    -0.1436   0.0445   0.0814   0.0814

     highest occupied level (ev):     0.0814

!    total energy              =   -4184.29957833 Ry
     total all-electron energy =    -52052.509448 Ry
     estimated scf accuracy    <          9.0E-09 Ry

     The total energy is the sum of the following terms:
     one-electron contribution =   -6138.05901234 Ry
     hartree contribution      =    3218.03715057 Ry
     xc contribution           =    -612.86915412 Ry
     ewald contribution        =    1240.24890149 Ry
     one-center paw contrib.   =   -1891.65746393 Ry

     convergence has been achieved in  31 iterations

     negative rho (up, down):  3.095E-04 0.000E+00

     Forces acting on atoms (cartesian axes, Ry/au):

     atom    1 type  2   force =    -0.00681073   -0.00899528    0.00566879
     atom    2 type  2   force =    -0.00105050   -0.00716668   -0.01034148
     atom    3 type  2   force =    -0.01114970    0.00481438   -0.00345901
     atom    4 type  2   force =    -0.00473958    0.01049884   -0.01541739
     atom    5 type  2   force =    -0.01212452    0.00115080    0.01490146
     atom    6 type  2   force =     0.00699651   -0.01754366   -0.00370562
     atom    7 type  4   force =    -0.03292145   -0.03479001    0.01606117
     atom    8 type  4   force =    -0.01208101   -0.03088611   -0.03810767
     atom    9 type  4   force =    -0.04624166    0.01119002   -0.01698259
     atom   10 type  4   force =     0.00229558    0.00218563    0.00486434
     atom   11 type  4   force =     0.00301434    0.00492268   -0.00063499
     atom   12 type  4   force =     0.00576339   -0.00049915    0.00050610
     atom   13 type  4   force =     0.00177740    0.00677456    0.00467859
     atom   14 type  4   force =     0.00680601    0.00389812   -0.00306398
     atom   15 type  4   force =    -0.01623827    0.00187236    0.00179824
     atom   16 type  4   force =     0.00666045   -0.00156898    0.00490864
     atom   17 type  4   force =     0.00041930   -0.00035725   -0.00048320
     atom   18 type  4   force =    -0.00030525    0.00064118   -0.00018325
     atom   19 type  4   force =    -0.00567519   -0.01538480    0.00119681
     atom   20 type  4   force =    -0.00605372   -0.00318039   -0.01495468
     atom   21 type  4   force =    -0.00310940    0.00292569   -0.00231914
     atom   22 type  4   force =    -0.00257730   -0.00214127    0.00351705
     atom   23 type  4   force =     0.00998474   -0.01299708   -0.00014789
     atom   24 type  4   force =    -0.01934770    0.02582316   -0.03670620
     atom   25 type  4   force =    -0.03245669   -0.00448634    0.03625897
     atom   26 type  4   force =     0.01355767   -0.04417385   -0.01591370
     atom   27 type  4   force =    -0.00011554   -0.00028369    0.00066600
     atom   28 type  4   force =     0.00196857   -0.00896893   -0.00452002
     atom   29 type  4   force =     0.00092729    0.01083907   -0.01225720
     atom   30 type  4   force =     0.00035723   -0.00142263    0.00040237
     atom   31 type  4   force =    -0.00108330    0.00069744    0.00080793
     atom   32 type  4   force =     0.00010030    0.00035197   -0.00147611
     atom   33 type  4   force =    -0.00695819   -0.00235301    0.00712291
     atom   34 type  4   force =    -0.00670753    0.00465938    0.01420383
     atom   35 type  4   force =    -0.00537376    0.00513252   -0.00703758
     atom   36 type  4   force =     0.00110406   -0.00351817   -0.00316080
     atom   37 type  5   force =    -0.82776056   -0.09602803    0.68953520
     atom   38 type  5   force =     0.15493178   -1.02374015   -0.31276276
     atom   39 type  5   force =    -0.47716665    0.43308288   -0.86868820
     atom   40 type  5   force =    -0.95700977    0.34682372   -0.37157326
     atom   41 type  5   force =    -0.14860831   -0.67579729   -0.83392721
     atom   42 type  5   force =    -0.66542749   -0.72855267    0.44792911
     atom   43 type  3   force =    -0.00308308   -0.00850844   -0.00075945
     atom   44 type  3   force =    -0.00450600   -0.00107300   -0.00781247
     atom   45 type  3   force =     0.00879256    0.06394093    0.05799811
     atom   46 type  3   force =    -0.00895345   -0.00029335    0.00149358
     atom   47 type  3   force =     0.03599261   -0.07833838   -0.06453227
     atom   48 type  3   force =    -0.05189307   -0.03895270    0.08594537
     atom   49 type  3   force =     0.07062473   -0.02806540    0.04188405
     atom   50 type  3   force =     0.06046412    0.04764564   -0.04005040
     atom   51 type  3   force =     0.73985924    0.13852719   -0.59594026
     atom   52 type  3   force =    -0.10657240    0.89783502    0.32289060
     atom   53 type  3   force =     0.01305256   -0.01765833   -0.01902999
     atom   54 type  3   force =     0.00767624   -0.03262908   -0.00521404
     atom   55 type  3   force =    -0.02508456    0.00221574    0.02273009
     atom   56 type  3   force =    -0.00994718    0.01407886   -0.02921719
     atom   57 type  3   force =    -0.05890593    0.07262295   -0.05341127
     atom   58 type  3   force =     0.00749876    0.00006234    0.01328528
     atom   59 type  3   force =     0.00658445   -0.00624533    0.00512626
     atom   60 type  3   force =    -0.00237516    0.00767091    0.00664485
     atom   61 type  3   force =     0.00562677    0.00444653   -0.00756237
     atom   62 type  3   force =     0.06381355   -0.02018954    0.08268874
     atom   63 type  3   force =     0.04824058   -0.04456295    0.05819024
     atom   64 type  3   force =    -0.01635022    0.07555903    0.04150143
     atom   65 type  3   force =    -0.01467180    0.02273236   -0.01059593
     atom   66 type  3   force =     0.10179496   -0.03275590    0.06276235
     atom   67 type  3   force =     0.01464861    0.00062549   -0.00421525
     atom   68 type  3   force =     0.00361176    0.01469348    0.00194831
     atom   69 type  3   force =     0.01944733    0.09325545    0.07936939
     atom   70 type  3   force =    -0.00935439   -0.01162661    0.02493259
     atom   71 type  3   force =     0.09132157    0.06642654   -0.05120656
     atom   72 type  3   force =     0.47288646   -0.37584531    0.74621921
     atom   73 type  3   force =     0.00690318   -0.00839125   -0.01152971
     atom   74 type  3   force =     0.06849972   -0.06072945    0.08153703
     atom   75 type  3   force =     0.08325458    0.03295179   -0.08373203
     atom   76 type  3   force =     0.82387705   -0.33385370    0.37144268
     atom   77 type  3   force =     0.60584371    0.60942890   -0.43560643
     atom   78 type  3   force =    -0.01879547   -0.02542828    0.00997632
     atom   79 type  3   force =     0.09687804    0.63598773    0.71717187
     atom   80 type  3   force =    -0.02097184    0.10587032    0.05813912
     atom   81 type  3   force =    -0.00411195   -0.00768177    0.01323305
     atom   82 type  3   force =    -0.00871319    0.01253730   -0.00423507
     atom   83 type  3   force =     0.09347435    0.02212295   -0.04571929
     atom   84 type  3   force =     0.01570127   -0.00037494    0.02386430
     atom   85 type  3   force =     0.00711779    0.02709908    0.00557754
     atom   86 type  3   force =     0.02723314    0.00316225   -0.00803286
     atom   87 type  3   force =    -0.03130205    0.00800318   -0.00745638
     atom   88 type  3   force =     0.01249534    0.09944669    0.03565425
     atom   89 type  3   force =    -0.00780172   -0.01714665   -0.02728677
     atom   90 type  3   force =     0.05876294    0.02313791   -0.06091301
     atom   91 type  1   force =    -0.00062217   -0.00051058    0.00094242
     atom   92 type  1   force =     0.00034599   -0.00089317   -0.00078660
     atom   93 type  1   force =    -0.00504316   -0.00001332    0.00306874
     atom   94 type  1   force =    -0.00036041    0.00022478    0.00009411
     atom   95 type  1   force =    -0.00074469    0.00079411   -0.00059263
     atom   96 type  1   force =    -0.00002869   -0.00039379    0.00018264
     atom   97 type  1   force =    -0.00240378    0.00147928   -0.00518505
     atom   98 type  1   force =     0.00002700   -0.00004723   -0.00043160
     atom   99 type  1   force =     0.00016206   -0.00581596   -0.00099998
     atom  100 type  1   force =    -0.00126734   -0.00059206    0.00065622
     atom  101 type  1   force =    -0.00112222    0.00035272   -0.00100157
     atom  102 type  1   force =    -0.00022178   -0.00132006   -0.00077174
     atom  103 type  1   force =    -0.00111391   -0.00037901    0.00015968
     atom  104 type  1   force =    -0.00050282   -0.00099450   -0.00041023
     atom  105 type  1   force =    -0.00152003   -0.00383312   -0.00416355
     atom  106 type  1   force =    -0.00086216   -0.00010635   -0.00080941
     atom  107 type  1   force =    -0.00409547   -0.00378748    0.00179404
     atom  108 type  1   force =    -0.02480908   -0.01859629    0.01725788
     atom  109 type  1   force =    -0.01642768   -0.00304254    0.01075178
     atom  110 type  1   force =    -0.00527715    0.00111662   -0.00228981
     atom  111 type  1   force =    -0.02085876    0.01788054   -0.02253771
     atom  112 type  1   force =    -0.02361564   -0.01096935    0.02418119
     atom  113 type  1   force =    -0.01610472    0.00665264   -0.00845621
     atom  114 type  1   force =     0.00030828   -0.01882648   -0.00633992
     atom  115 type  1   force =     0.00584747   -0.02997601   -0.01816615
     atom  116 type  1   force =    -0.01047059    0.00599164   -0.01578590
     atom  117 type  1   force =    -0.00264928   -0.02675352   -0.02316005
     atom  118 type  1   force =    -0.02813902    0.01215162   -0.01787998
     atom  119 type  1   force =    -0.00178226   -0.01358313   -0.01369136
     atom  120 type  1   force =    -0.01280333   -0.01139510    0.00901959

     Total force =     3.581938     Total SCF correction =     0.000244


     Computing stress (Cartesian axis) and pressure


     negative rho (up, down):  3.095E-04 0.000E+00
          total   stress  (Ry/bohr**3)                   (kbar)     P=       59.64
   0.00039534  -0.00001236  -0.00000885           58.16       -1.82       -1.30
  -0.00001236   0.00040866  -0.00000528           -1.82       60.12       -0.78
  -0.00000885  -0.00000528   0.00041225           -1.30       -0.78       60.64


     BFGS Geometry Optimization
     Energy error            =      0.0E+00 Ry
     Gradient error          =      1.0E+00 Ry/Bohr
     Cell gradient error     =      6.1E+01 kbar

     number of scf cycles    =   1
     number of bfgs steps    =   0

     enthalpy           new  =   -4184.2995783290 Ry

     new trust radius        =       0.5000000000 bohr
     new conv_thr            =       0.0000000100 Ry

     new unit-cell volume =  15510.86254 a.u.^3 (  2298.47269 Ang^3 )
     density =      1.24124 g/cm^3

CELL_PARAMETERS (alat= 27.52059178)
   1.004560415  -0.000142536  -0.000102119
   0.476363471   0.884431752  -0.000102087
   0.476363462   0.284446163   0.837442516

ATOMIC_POSITIONS (crystal)
Zr               0.8729543843        0.1186070001        0.1224710245
Zr               0.1224710504        0.8729544331        0.1186069868
Zr               0.1186069543        0.1224710744        0.8729544240
Zr               0.8811094636        0.8779427213        0.1266658877
Zr               0.1266658892        0.8811094852        0.8779427346
Zr               0.8779427674        0.1266658604        0.8811094635
O                0.9189223703        0.2608474862        0.0853010617
O                0.0853010638        0.9189223789        0.2608474851
O                0.2608475128        0.0853010137        0.9189224045
O                0.9150092657        0.0807471467        0.7384848435
O                0.0807471793        0.7384848617        0.9150092275
O                0.7384848646        0.9150092186        0.0807471800
O                0.9178033254        0.7551187453        0.0536081072
O                0.7551187256        0.0536080678        0.9178033697
O                0.2446791936        0.9465100221        0.0821711707
O                0.0536080792        0.9178033533        0.7551187347
O                0.8362033842        0.0444883231        0.0478242807
O                0.0478242758        0.8362033973        0.0444883140
O                0.0821710827        0.2446792509        0.9465100732
O                0.9465100080        0.0821712056        0.2446791947
O                0.2663804455        0.7339927277        0.0771663518
O                0.0771663716        0.2663804596        0.7339927435
O                0.7270047739        0.2586114272        0.0840040252
O                0.9224668728        0.7342853400        0.2653396748
O                0.2653397068        0.9224669148        0.7342853294
O                0.7342853410        0.2653396897        0.9224669046
O                0.0444883157        0.0478242873        0.8362033963
O                0.7412852773        0.9158514367        0.2731900823
O                0.0840039519        0.7270047505        0.2586114532
O                0.9555242370        0.9521363021        0.1638180935
O                0.9521363084        0.1638180544        0.9555242510
O                0.1638180544        0.9555242556        0.9521363088
O                0.9158514986        0.2731900924        0.7412852734
O                0.2586115316        0.0840038208        0.7270047022
O                0.2731900794        0.7412852914        0.9158514428
O                0.7339927470        0.0771664508        0.2663804222
N                0.8226398141        0.4260879535        0.1417256229
N                0.1417256238        0.8226398113        0.4260879484
N                0.4260879513        0.1417256216        0.8226398124
N                0.8298970105        0.6002778330        0.4148920074
N                0.6002778342        0.4148920078        0.8298970107
N                0.4148919877        0.8298970030        0.6002778488
C                0.0001360843        0.7042018710        0.9878217241
C                0.9878217009        0.0001361215        0.7042018565
C                0.0113574817        0.0007364342        0.2968076003
C                0.7042018685        0.9878217476        0.0001360426
C                0.0015287441        0.4004756503        0.0039099687
C                0.4004756489        0.0039099661        0.0015287441
C                0.2968076005        0.0113574491        0.0007364747
C                0.0007365274        0.2968075913        0.0113574081
C                0.9247178078        0.4692757637        0.0601789879
C                0.0601790139        0.9247177803        0.4692757676
C                0.0907935093        0.5370058452        0.9274512221
C                0.9952492003       -0.0003876805        0.5983451225
C               -0.0003876841        0.5983451057        0.9952492032
C                0.5983451138        0.9952492056       -0.0003876877
C                0.0039099633        0.0015287472        0.4004756615
C                0.9330981901        0.0900832142        0.4397032262
C                0.3095536407        0.6970638840        0.9967581119
C                0.6970638810        0.9967580919        0.3095536574
C                0.9967581105        0.3095536227        0.6970638870
C                0.5925571959        0.4033983858        0.0035782388
C                0.0041798107        0.6893557304        0.3039544648
C                0.6893557328        0.3039544564        0.0041797786
C                0.9274512238        0.0907935082        0.5370058686
C                0.5621604718        0.0659110087        0.9110944303
C                0.4397032305        0.9330981907        0.0900832125
C                0.0900832133        0.4397032298        0.9330981892
C                0.0659110084        0.9110944305        0.5621604717
C                0.5370058449        0.9274512245        0.0907935054
C                0.9110944291        0.5621604690        0.0659110080
C                0.4692757608        0.0601790035        0.9247177909
C                0.4482261557        0.0884078006        0.5403310861
C                0.9126764380        0.4577527548        0.5536800727
C                0.5536800535        0.9126764232        0.4577527760
C                0.9278395277        0.5418670265        0.4645063662
C                0.4645063808        0.9278395363        0.5418670153
C                0.5955320178        0.9975361577        0.4083606682
C                0.5418670217        0.4645063764        0.9278395195
C                0.4577527591        0.5536800686        0.9126764366
C                0.0884078164        0.5403310654        0.4482261756
C                0.5403310623        0.4482261797        0.0884078139
C                0.0035782321        0.5925571957        0.4033983816
C                0.4494832060        0.5428034262        0.0870660173
C                0.5428034440        0.0870660090        0.4494831891
C                0.0870660153        0.4494832081        0.5428034234
C                0.9975361360        0.4083606734        0.5955320190
C                0.4033984140        0.0035782367        0.5925571657
C                0.4083606701        0.5955320223        0.9975361416
C                0.3039544051        0.0041798487        0.6893557682
H                0.1598750823        0.5676051773        0.8721629562
H                0.8721629597        0.1598750798        0.5676051780
H                0.8400107065        0.6091718875        0.1180517260
H                0.1598763178        0.3908116719        0.8820118929
H                0.5676051758        0.8721629589        0.1598750796
H                0.8820118944        0.1598763183        0.3908116737
H                0.6091718884        0.1180517270        0.8400107055
H                0.3908116724        0.8820118936        0.1598763185
H                0.1180517271        0.8400107060        0.6091718859
H                0.5776138531        0.1533134775        0.4087451996
H                0.1533134797        0.4087451989        0.5776138540
H                0.4087452006        0.5776138536        0.1533134768
H                0.5733777143        0.4062797484        0.1566842119
H                0.1566842082        0.5733777144        0.4062797484
H                0.4266420851        0.5936659417        0.8432352524
H                0.4062797435        0.1566842125        0.5733777191
H                0.5936659387        0.8432352575        0.4266420862
H                0.8408213534        0.3604361520        0.1310171329
H                0.7738724758        0.4753974766        0.1771562661
H                0.8432352527        0.4266420841        0.5936659418
H                0.8487965995        0.6582933838        0.3525816663
H                0.3525816619        0.8487966045        0.6582933914
H                0.7817076093        0.5627814224        0.4592189080
H                0.1771562663        0.7738724765        0.4753974759
H                0.6582933889        0.3525816643        0.8487965979
H                0.4753974767        0.1771562662        0.7738724753
H                0.1310171365        0.8408213538        0.3604361482
H                0.3604361475        0.1310171348        0.8408213540
H                0.5627814230        0.4592189096        0.7817076058
H                0.4592189056        0.7817076114        0.5627814241



     Writing config-only to output data dir ./pwscf.save/ :
     XML data file
     NEW-OLD atomic charge density approx. for the potential

     Check: negative core charge=   -0.000001

     negative rho (up, down):  3.148E-04 0.000E+00

     total cpu time spent up to now is      188.9 secs

     Self-consistent Calculation

     iteration #  1     ecut=    80.00 Ry     beta= 0.70
     Davidson diagonalization with overlap
     ethr =  1.00E-06,  avg # of iterations = 22.0

     negative rho (up, down):  3.108E-04 0.000E+00

     total cpu time spent up to now is      213.5 secs

     total energy              =   -4184.20004166 Ry
     estimated scf accuracy    <       1.49658018 Ry

     iteration #  2     ecut=    80.00 Ry     beta= 0.70
     Davidson diagonalization with overlap
     ethr =  2.97E-04,  avg # of iterations = 13.0

     negative rho (up, down):  3.125E-04 0.000E+00

     total cpu time spent up to now is      220.0 secs

     total energy              =   -4184.04818006 Ry
     estimated scf accuracy    <       1.86881234 Ry

     iteration #  3     ecut=    80.00 Ry     beta= 0.70
     Davidson diagonalization with overlap
     ethr =  2.97E-04,  avg # of iterations = 10.0

     negative rho (up, down):  3.364E-04 0.000E+00

     total cpu time spent up to now is      225.5 secs

     total energy              =   -4184.60273149 Ry
     estimated scf accuracy    <       0.35958312 Ry

     iteration #  4     ecut=    80.00 Ry     beta= 0.70
     Davidson diagonalization with overlap
     ethr =  7.13E-05,  avg # of iterations = 10.0

     negative rho (up, down):  3.392E-04 0.000E+00

     total cpu time spent up to now is      230.1 secs

     total energy              =   -4184.63599548 Ry
     estimated scf accuracy    <       0.05788645 Ry

     iteration #  5     ecut=    80.00 Ry     beta= 0.70
     Davidson diagonalization with overlap
     ethr =  1.15E-05,  avg # of iterations = 10.0

     negative rho (up, down):  3.411E-04 0.000E+00

     total cpu time spent up to now is      235.3 secs

     total energy              =   -4184.64267747 Ry
     estimated scf accuracy    <       0.01097754 Ry

     iteration #  6     ecut=    80.00 Ry     beta= 0.70
     Davidson diagonalization with overlap
     ethr =  2.18E-06,  avg # of iterations = 16.0

     negative rho (up, down):  3.422E-04 0.000E+00

     total cpu time spent up to now is      242.1 secs

     total energy              =   -4184.64793048 Ry
     estimated scf accuracy    <       0.00184970 Ry

     iteration #  7     ecut=    80.00 Ry     beta= 0.70
     Davidson diagonalization with overlap
     ethr =  3.67E-07,  avg # of iterations = 17.0

     negative rho (up, down):  3.426E-04 0.000E+00

     total cpu time spent up to now is      248.8 secs

     total energy              =   -4184.64852852 Ry
     estimated scf accuracy    <       0.00098117 Ry

     iteration #  8     ecut=    80.00 Ry     beta= 0.70
     Davidson diagonalization with overlap
     ethr =  1.95E-07,  avg # of iterations = 10.0

     negative rho (up, down):  3.429E-04 0.000E+00

     total cpu time spent up to now is      254.1 secs

     total energy              =   -4184.64855184 Ry
     estimated scf accuracy    <       0.00048938 Ry

     iteration #  9     ecut=    80.00 Ry     beta= 0.70
     Davidson diagonalization with overlap
     ethr =  9.71E-08,  avg # of iterations = 12.0

     negative rho (up, down):  3.430E-04 0.000E+00

     total cpu time spent up to now is      259.2 secs

     total energy              =   -4184.64859617 Ry
     estimated scf accuracy    <       0.00010147 Ry

     iteration # 10     ecut=    80.00 Ry     beta= 0.70
     Davidson diagonalization with overlap
     ethr =  2.01E-08,  avg # of iterations = 14.0

     negative rho (up, down):  3.429E-04 0.000E+00

     total cpu time spent up to now is      267.0 secs

     total energy              =   -4184.64865853 Ry
     estimated scf accuracy    <       0.00003372 Ry

     iteration # 11     ecut=    80.00 Ry     beta= 0.70
     Davidson diagonalization with overlap
     ethr =  6.69E-09,  avg # of iterations = 11.0

     negative rho (up, down):  3.428E-04 0.000E+00

     total cpu time spent up to now is      271.8 secs

     total energy              =   -4184.64865625 Ry
     estimated scf accuracy    <       0.00001365 Ry

     iteration # 12     ecut=    80.00 Ry     beta= 0.70
     Davidson diagonalization with overlap
     ethr =  2.71E-09,  avg # of iterations =  7.0

     negative rho (up, down):  3.428E-04 0.000E+00

     total cpu time spent up to now is      279.6 secs

     total energy              =   -4184.64866527 Ry
     estimated scf accuracy    <       0.00001010 Ry

     iteration # 13     ecut=    80.00 Ry     beta= 0.70
     Davidson diagonalization with overlap
     ethr =  2.00E-09,  avg # of iterations =  2.0

     negative rho (up, down):  3.428E-04 0.000E+00

     total cpu time spent up to now is      283.1 secs

     total energy              =   -4184.64866201 Ry
     estimated scf accuracy    <       0.00000602 Ry

     iteration # 14     ecut=    80.00 Ry     beta= 0.70
     Davidson diagonalization with overlap
     ethr =  1.19E-09,  avg # of iterations = 10.0

     negative rho (up, down):  3.428E-04 0.000E+00

     total cpu time spent up to now is      290.4 secs

     total energy              =   -4184.64866508 Ry
     estimated scf accuracy    <       0.00000340 Ry

     iteration # 15     ecut=    80.00 Ry     beta= 0.70
     Davidson diagonalization with overlap
     ethr =  6.75E-10,  avg # of iterations =  2.0

     negative rho (up, down):  3.428E-04 0.000E+00

     total cpu time spent up to now is      294.0 secs

     total energy              =   -4184.64866421 Ry
     estimated scf accuracy    <       0.00000186 Ry

     iteration # 16     ecut=    80.00 Ry     beta= 0.70
     Davidson diagonalization with overlap
     ethr =  3.70E-10,  avg # of iterations = 11.0

     negative rho (up, down):  3.428E-04 0.000E+00

     total cpu time spent up to now is      300.7 secs

     total energy              =   -4184.64866510 Ry
     estimated scf accuracy    <       0.00000072 Ry

     iteration # 17     ecut=    80.00 Ry     beta= 0.70
     Davidson diagonalization with overlap
     ethr =  1.42E-10,  avg # of iterations =  2.0

     negative rho (up, down):  3.428E-04 0.000E+00

     total cpu time spent up to now is      304.3 secs

     total energy              =   -4184.64866493 Ry
     estimated scf accuracy    <       0.00000045 Ry

     iteration # 18     ecut=    80.00 Ry     beta= 0.70
     Davidson diagonalization with overlap
     ethr =  9.02E-11,  avg # of iterations =  8.0

     negative rho (up, down):  3.428E-04 0.000E+00

     total cpu time spent up to now is      309.9 secs

     total energy              =   -4184.64866509 Ry
     estimated scf accuracy    <       0.00000003 Ry

     iteration # 19     ecut=    80.00 Ry     beta= 0.70
     Davidson diagonalization with overlap
     ethr =  6.04E-12,  avg # of iterations = 10.0

     negative rho (up, down):  3.428E-04 0.000E+00

     total cpu time spent up to now is      315.8 secs

     total energy              =   -4184.64866510 Ry
     estimated scf accuracy    <       0.00000001 Ry

     iteration # 20     ecut=    80.00 Ry     beta= 0.70
     Davidson diagonalization with overlap
     ethr =  2.35E-12,  avg # of iterations = 10.0

     negative rho (up, down):  3.428E-04 0.000E+00

     total cpu time spent up to now is      320.6 secs

     End of self-consistent calculation

          k = 0.0000 0.0000 0.0000 ( 92351 PWs)   bands (ev):

   -49.6336 -49.6212 -49.6212 -49.5954 -49.5906 -49.5906 -28.0859 -27.9843
   -27.9843 -27.8936 -27.8911 -27.8911 -27.7692 -27.7314 -27.7314 -27.7203
   -27.7203 -27.6878 -27.6209 -27.6209 -27.5832 -27.5767 -27.5760 -27.5760
   -22.6678 -22.6425 -22.6424 -22.5493 -22.5493 -22.5481 -22.4504 -22.3909
   -22.3908 -22.3593 -22.2953 -22.2953 -20.4546 -20.4535 -20.4535 -20.3235
   -20.3235 -20.2909 -20.2722 -20.2721 -20.1857 -20.1441 -20.1441 -20.0465
   -18.1749 -18.1643 -18.1643 -18.0366 -18.0119 -18.0119 -17.8781 -17.6889
   -17.6889 -17.4857 -17.4857 -17.4462 -16.5968 -16.5960 -16.5960 -16.4437
   -16.4437 -16.4428 -15.1817 -15.1817 -15.1753 -15.0268 -15.0113 -15.0113
   -13.8951 -13.8951 -13.8912 -13.7483 -13.7442 -13.7442 -12.3736 -12.3427
   -12.3427 -12.2038 -12.1506 -12.1506 -10.8362 -10.8362 -10.8279 -10.6955
   -10.6717 -10.6717 -10.3646 -10.3645 -10.2775 -10.2194 -10.0765 -10.0765
    -9.6555  -9.5647  -9.5647  -9.5135  -9.3794  -9.3794  -8.9955  -8.9955
    -8.9724  -8.8566  -8.8333  -8.8333  -8.4106  -8.2928  -8.2733  -8.2733
    -8.2668  -8.1802  -8.1802  -8.1580  -8.1580  -8.0835  -8.0834  -7.9556
    -7.7519  -7.7518  -7.6036  -7.6036  -7.5908  -7.5349  -7.5150  -7.5150
    -7.4014  -7.3833  -7.3833  -7.1447  -7.0340  -6.9183  -6.8779  -6.8779
    -6.7849  -6.7849  -6.7676  -6.7676  -6.7173  -6.6683  -6.6362  -6.6362
    -6.6064  -6.4653  -6.4652  -6.3457  -6.2030  -6.2030  -6.1751  -6.1566
    -6.1566  -6.0087  -6.0087  -6.0039  -5.6741  -5.6184  -5.6184  -5.5549
    -5.5473  -5.5473  -5.4481  -5.4060  -5.4059  -5.3804  -5.2852  -5.2852
    -5.2430  -5.1481  -5.1481  -5.0558  -5.0296  -5.0296  -5.0184  -4.8652
    -4.8652  -4.8317  -4.7875  -4.7875  -4.6894  -4.2523  -4.2523  -4.2266
    -4.1263  -4.1263  -3.9359  -3.9359  -3.9203  -3.7481  -3.7366  -3.7366
    -3.6249  -3.5791  -3.5791  -3.5453  -3.4813  -3.4813  -3.4331  -3.3277
    -3.3018  -3.3018  -3.2019  -3.2019  -3.1024  -3.0687  -3.0687  -3.0630
    -2.9870  -2.9694  -2.9694  -2.8991  -2.8991  -2.8886  -2.8886  -2.7589
    -2.7242  -2.6571  -2.6462  -2.6462  -2.6119  -2.6119  -2.5810  -2.5327
    -2.5327  -2.5027  -2.5027  -2.4858  -2.4653  -2.4653  -2.4632  -2.4533
    -2.4533  -2.3949  -2.3521  -2.3521  -2.3311  -2.3311  -2.3136  -2.3082
    -2.2567  -2.1932  -2.1932  -1.5660  -1.5660  -1.4558  -0.5274  -0.5274
    -0.5215  -0.3883  -0.3627  -0.3627

     highest occupied level (ev):    -0.3627

!    total energy              =   -4184.64866510 Ry
     total all-electron energy =    -52052.858535 Ry
     estimated scf accuracy    <          2.3E-09 Ry

     The total energy is the sum of the following terms:
     one-electron contribution =   -6067.68182611 Ry
     hartree contribution      =    3179.45552179 Ry
     xc contribution           =    -610.50521896 Ry
     ewald contribution        =    1205.66433960 Ry
     one-center paw contrib.   =   -1891.58148143 Ry

     convergence has been achieved in  20 iterations

     negative rho (up, down):  3.428E-04 0.000E+00

     Forces acting on atoms (cartesian axes, Ry/au):

     atom    1 type  2   force =    -0.00584623   -0.01135252   -0.00237033
     atom    2 type  2   force =    -0.00796354   -0.00234861   -0.00998296
     atom    3 type  2   force =    -0.01276431   -0.00216464    0.00098952
     atom    4 type  2   force =     0.00252715    0.00678806   -0.00576035
     atom    5 type  2   force =    -0.00167992    0.00377700    0.00827759
     atom    6 type  2   force =     0.00717639   -0.00577442    0.00090964
     atom    7 type  4   force =     0.03393033   -0.01937380   -0.04304379
     atom    8 type  4   force =    -0.02526876    0.05215010   -0.00449579
     atom    9 type  4   force =    -0.00096660   -0.02818217    0.05082096
     atom   10 type  4   force =     0.00484475   -0.01517216   -0.00294904
     atom   11 type  4   force =    -0.01106063    0.00089460    0.01180167
     atom   12 type  4   force =    -0.00445840    0.00790700   -0.01341883
     atom   13 type  4   force =     0.00626392   -0.01117277   -0.01014308
     atom   14 type  4   force =    -0.00686406   -0.00612370    0.01350044
     atom   15 type  4   force =     0.01264138    0.00757242   -0.01503983
     atom   16 type  4   force =    -0.00864789    0.01177414   -0.00731482
     atom   17 type  4   force =     0.00351805   -0.00161930   -0.00182040
     atom   18 type  4   force =    -0.00030668    0.00416203   -0.00094874
     atom   19 type  4   force =    -0.00439276    0.01672281    0.01200071
     atom   20 type  4   force =     0.01266279   -0.01181759    0.01197748
     atom   21 type  4   force =    -0.00409072   -0.00497327   -0.01020828
     atom   22 type  4   force =    -0.01185864    0.00174381   -0.00142636
     atom   23 type  4   force =    -0.01270514    0.00535500   -0.01442519
     atom   24 type  4   force =     0.05607412   -0.00394560   -0.00214374
     atom   25 type  4   force =     0.02369115    0.05092828   -0.00304473
     atom   26 type  4   force =     0.02312373    0.01445552    0.04920315
     atom   27 type  4   force =     0.00024490   -0.00047588    0.00424393
     atom   28 type  4   force =     0.00332420    0.01741707    0.00403216
     atom   29 type  4   force =    -0.01652706   -0.00552457    0.00971026
     atom   30 type  4   force =     0.00109141    0.00079658   -0.00489283
     atom   31 type  4   force =     0.00121978   -0.00444470    0.00212582
     atom   32 type  4   force =    -0.00333451    0.00303854    0.00232783
     atom   33 type  4   force =     0.01690907    0.00210303   -0.00634880
     atom   34 type  4   force =    -0.00130972   -0.01806537   -0.00835261
     atom   35 type  4   force =     0.00987004   -0.00154148    0.01519185
     atom   36 type  4   force =    -0.00632251   -0.01006843    0.00211053
     atom   37 type  5   force =     0.25312286    0.00699198   -0.22347109
     atom   38 type  5   force =    -0.06423045    0.32213151    0.07851654
     atom   39 type  5   force =     0.12621756   -0.14096510    0.27974492
     atom   40 type  5   force =     0.30794558   -0.09667677    0.09672352
     atom   41 type  5   force =     0.06095713    0.19355076    0.26898481
     atom   42 type  5   force =     0.19930657    0.24241251   -0.12265373
     atom   43 type  3   force =     0.00728126    0.01044712   -0.00194092
     atom   44 type  3   force =     0.00479592    0.00568613    0.01051588
     atom   45 type  3   force =    -0.01010167   -0.01875774   -0.02994006
     atom   46 type  3   force =     0.01265104   -0.00137031    0.00200369
     atom   47 type  3   force =     0.07157898   -0.04769577   -0.08343788
     atom   48 type  3   force =    -0.00803615   -0.05144940    0.10792733
     atom   49 type  3   force =    -0.03506089    0.00741706   -0.00812954
     atom   50 type  3   force =    -0.02130691   -0.02834470    0.00964086
     atom   51 type  3   force =    -0.33161793   -0.08918781    0.25781679
     atom   52 type  3   force =     0.03234628   -0.39411609   -0.16738992
     atom   53 type  3   force =    -0.00691716    0.00357373    0.00754035
     atom   54 type  3   force =     0.00391223    0.06143326    0.04107568
     atom   55 type  3   force =     0.05593937    0.03062547   -0.03754429
     atom   56 type  3   force =     0.05349403   -0.02437774    0.04495247
     atom   57 type  3   force =    -0.04910558    0.10776456   -0.01831486
     atom   58 type  3   force =    -0.02706455    0.05670996   -0.01125128
     atom   59 type  3   force =    -0.00735170    0.00963924   -0.00281268
     atom   60 type  3   force =     0.00500061   -0.00621510   -0.00955218
     atom   61 type  3   force =    -0.00310036   -0.00667957    0.01003115
     atom   62 type  3   force =     0.05269853    0.02584181    0.10687153
     atom   63 type  3   force =    -0.00927500    0.02078841   -0.02822345
     atom   64 type  3   force =     0.01390285   -0.03252160   -0.00798402
     atom   65 type  3   force =     0.00401660   -0.01002163    0.00095903
     atom   66 type  3   force =     0.13460832   -0.01866026    0.02593192
     atom   67 type  3   force =    -0.00615554   -0.02742709    0.05731529
     atom   68 type  3   force =     0.03708693   -0.02697368   -0.04440841
     atom   69 type  3   force =     0.04742108    0.06552678    0.11224170
     atom   70 type  3   force =    -0.00013429    0.00463487   -0.00979653
     atom   71 type  3   force =     0.08017945    0.10970449   -0.02601163
     atom   72 type  3   force =    -0.23580957    0.16379526   -0.31930879
     atom   73 type  3   force =     0.02360764    0.05865552    0.00048481
     atom   74 type  3   force =     0.02769813   -0.07877421    0.11195857
     atom   75 type  3   force =     0.08414833   -0.01387621   -0.11060481
     atom   76 type  3   force =    -0.35240262    0.16132021   -0.18611139
     atom   77 type  3   force =    -0.27659442   -0.25127106    0.21261919
     atom   78 type  3   force =     0.04954574    0.02947153   -0.04592631
     atom   79 type  3   force =    -0.02513672   -0.30064321   -0.30631659
     atom   80 type  3   force =    -0.05621070    0.12586912    0.02244476
     atom   81 type  3   force =     0.06283396   -0.00180621   -0.00681931
     atom   82 type  3   force =     0.02821495    0.01161281    0.05538095
     atom   83 type  3   force =     0.12139886   -0.00554744   -0.00991399
     atom   84 type  3   force =    -0.00400337   -0.00331883   -0.00906901
     atom   85 type  3   force =    -0.00482102   -0.00921377    0.00107260
     atom   86 type  3   force =    -0.01039807    0.00105563   -0.00022478
     atom   87 type  3   force =     0.04944636   -0.03394918    0.04283795
     atom   88 type  3   force =     0.04774670    0.11217171   -0.00206193
     atom   89 type  3   force =    -0.00643380    0.05974490    0.04268026
     atom   90 type  3   force =    -0.02203715    0.00133515    0.02876036
     atom   91 type  1   force =    -0.00229093   -0.00134446    0.00175308
     atom   92 type  1   force =    -0.00000652   -0.00259868   -0.00183639
     atom   93 type  1   force =    -0.00066610   -0.01508991   -0.00489295
     atom   94 type  1   force =     0.00291336    0.00839879    0.00125805
     atom   95 type  1   force =    -0.00227027    0.00121583   -0.00186909
     atom   96 type  1   force =     0.00480897    0.00071827    0.00754785
     atom   97 type  1   force =    -0.01360039   -0.00251897    0.00779649
     atom   98 type  1   force =     0.00877567    0.00073443   -0.00174787
     atom   99 type  1   force =    -0.00866882    0.00391432   -0.01271303
     atom  100 type  1   force =    -0.00208651   -0.00108455    0.00195056
     atom  101 type  1   force =    -0.00194540    0.00142148   -0.00187955
     atom  102 type  1   force =     0.00032866   -0.00254753   -0.00165430
     atom  103 type  1   force =    -0.00506894    0.00731724   -0.00259552
     atom  104 type  1   force =    -0.00249598   -0.00441330    0.00776401
     atom  105 type  1   force =     0.01077680   -0.00925195    0.00713615
     atom  106 type  1   force =     0.00403733   -0.00501054   -0.00667590
     atom  107 type  1   force =    -0.00303330    0.01121982    0.01084238
     atom  108 type  1   force =    -0.09253914   -0.14507097    0.02526845
     atom  109 type  1   force =    -0.07369473    0.20459403    0.14776378
     atom  110 type  1   force =     0.00843853    0.00769431   -0.01105489
     atom  111 type  1   force =    -0.02253866    0.09882050   -0.14228101
     atom  112 type  1   force =    -0.10129889    0.02897695    0.13934109
     atom  113 type  1   force =    -0.22071410   -0.06325429    0.12618375
     atom  114 type  1   force =     0.14615921   -0.16246038    0.14617780
     atom  115 type  1   force =     0.07630482   -0.15617923   -0.01739259
     atom  116 type  1   force =     0.14515907    0.08781354   -0.20085146
     atom  117 type  1   force =    -0.06391975   -0.07067690   -0.14548663
     atom  118 type  1   force =    -0.17160622    0.01985310   -0.02011240
     atom  119 type  1   force =    -0.16037439    0.06661323   -0.19616092
     atom  120 type  1   force =    -0.01742671   -0.24132015   -0.10048551

     Total force =     1.638419     Total SCF correction =     0.000079


     Computing stress (Cartesian axis) and pressure


     negative rho (up, down):  3.428E-04 0.000E+00
          total   stress  (Ry/bohr**3)                   (kbar)     P=       20.64
   0.00012705  -0.00001629  -0.00001167           18.69       -2.40       -1.72
  -0.00001629   0.00014461  -0.00000697           -2.40       21.27       -1.02
  -0.00001167  -0.00000697   0.00014934           -1.72       -1.02       21.97

     Energy error            =      3.5E-01 Ry
     Gradient error          =      3.9E-01 Ry/Bohr
     Cell gradient error     =      2.2E+01 kbar

     number of scf cycles    =   2
     number of bfgs steps    =   1

     enthalpy           old  =   -4184.2995783290 Ry
     enthalpy           new  =   -4184.6486650993 Ry

     CASE: enthalpy          _new < enthalpy          _old

     new trust radius        =       0.1994438933 bohr
     new conv_thr            =       0.0000000100 Ry

     new unit-cell volume =  15722.76004 a.u.^3 (  2329.87266 Ang^3 )
     density =      1.22451 g/cm^3

CELL_PARAMETERS (alat= 27.52059178)
   1.008817822  -0.000506932  -0.000363198
   0.478062075   0.888352649  -0.000363138
   0.478062032   0.285460455   0.841238931

ATOMIC_POSITIONS (crystal)
Zr               0.8729581812        0.1181958257        0.1224403704
Zr               0.1224403709        0.8729582505        0.1181959175
Zr               0.1181957788        0.1224405196        0.8729582866
Zr               0.8811086780        0.8783357871        0.1263508182
Zr               0.1263508425        0.8811087713        0.8783357138
Zr               0.8783359209        0.1263507890        0.8811086279
O                0.9204420883        0.2603868262        0.0840279808
O                0.0840281977        0.9204418490        0.2603868168
O                0.2603867447        0.0840282281        0.9204417901
O                0.9153893659        0.0803132712        0.7384286420
O                0.0803132702        0.7384286415        0.9153893332
O                0.7384286333        0.9153893890        0.0803132499
O                0.9182189290        0.7549203489        0.0533154921
O                0.7549203461        0.0533154869        0.9182189306
O                0.2449469609        0.9469118933        0.0816949045
O                0.0533154585        0.9182189422        0.7549203554
O                0.8363474674        0.0444558749        0.0477608600
O                0.0477608792        0.8363475062        0.0444558229
O                0.0816950097        0.2449469702        0.9469117111
O                0.9469118874        0.0816948593        0.2449470438
O                0.2664232838        0.7339752141        0.0768139940
O                0.0768139995        0.2664233690        0.7339751796
O                0.7268490796        0.2588275788        0.0835318853
O                0.9239420274        0.7344843583        0.2649671804
O                0.2649671812        0.9239420284        0.7344843893
O                0.7344843230        0.2649672303        0.9239421114
O                0.0444558652        0.0477610145        0.8363474378
O                0.7411366197        0.9162894879        0.2732844499
O                0.0835319862        0.7268490291        0.2588275843
O                0.9556003041        0.9522001632        0.1636616614
O                0.9522001913        0.1636616230        0.9556003140
O                0.1636616004        0.9556003939        0.9522001551
O                0.9162895327        0.2732845172        0.7411366047
O                0.2588276476        0.0835318429        0.7268490349
O                0.2732844348        0.7411366855        0.9162894320
O                0.7339751541        0.0768140076        0.2664233340
N                0.8246179140        0.4260748855        0.1401081812
N                0.1401081764        0.8246178875        0.4260748889
N                0.4260748684        0.1401081795        0.8246179103
N                0.8318097201        0.5999615711        0.4149885760
N                0.5999616242        0.4149885114        0.8318096726
N                0.4149885050        0.8318096650        0.5999616372
C                0.0002137190        0.7044808332        0.9877520571
C                0.9877520778        0.0002137322        0.7044808051
C                0.0113423791        0.0008161299        0.2963078845
C                0.7044808252        0.9877520519        0.0002137215
C                0.0057604101        0.3994376976        0.0006542325
C                0.3994377292        0.0006542641        0.0057603639
C                0.2963078739        0.0113423885        0.0008161375
C                0.0008161273        0.2963078931        0.0113424180
C                0.9204396385        0.4664708885        0.0636890569
C                0.0636890652        0.9204396041        0.4664709555
C                0.0906790161        0.5369498404        0.9275406764
C                0.9942104258        0.0008391424        0.5996430812
C                0.0008391590        0.5996430716        0.9942104256
C                0.5996430660        0.9942104403        0.0008391459
C                0.0006542465        0.0057603714        0.3994377507
C                0.9316643176        0.0919197804        0.4394452952
C                0.3092965019        0.6973291328        0.9967085109
C                0.6973291608        0.9967085213        0.3092965233
C                0.9967085407        0.3092964900        0.6973291208
C                0.5927831600        0.4026977208        0.0077482112
C                0.0042608990        0.6897931455        0.3035122941
C                0.6897931381        0.3035122678        0.0042609573
C                0.9275406760        0.0906789914        0.5369499132
C                0.5664782984        0.0646395581        0.9124575819
C                0.4394452484        0.9316643178        0.0919197975
C                0.0919197870        0.4394452657        0.9316643212
C                0.0646395326        0.9124575887        0.5664783690
C                0.5369498554        0.9275406760        0.0906790147
C                0.9124576012        0.5664783243        0.0646395390
C                0.4664709393        0.0636890559        0.9204396260
C                0.4481122566        0.0901808760        0.5402517564
C                0.9138880489        0.4534517864        0.5580069309
C                0.5580068685        0.9138880208        0.4534518485
C                0.9237465025        0.5452222245        0.4614904075
C                0.4614904528        0.9237465246        0.5452221867
C                0.5968690902        0.9987047457        0.4069432127
C                0.5452221555        0.4614904765        0.9237464986
C                0.4534518546        0.5580068444        0.9138880076
C                0.0901808648        0.5402516925        0.4481123268
C                0.5402517495        0.4481122454        0.0901808921
C                0.0077482268        0.5927831396        0.4026977553
C                0.4495641598        0.5427299631        0.0869665084
C                0.5427299562        0.0869664975        0.4495641805
C                0.0869665050        0.4495641819        0.5427299553
C                0.9987047267        0.4069432234        0.5968690811
C                0.4026977745        0.0077482010        0.5927831303
C                0.4069432257        0.5968690617        0.9987047243
C                0.3035122748        0.0042609024        0.6897931023
H                0.1598091624        0.5675387293        0.8722279632
H                0.8722279480        0.1598091617        0.5675387500
H                0.8402225728        0.6087486043        0.1179172886
H                0.1598156538        0.3910595690        0.8820537145
H                0.5675387245        0.8722279487        0.1598091816
H                0.8820537016        0.1598156562        0.3910595826
H                0.6087486020        0.1179172767        0.8402225892
H                0.3910595663        0.8820537044        0.1598156686
H                0.1179172651        0.8402225835        0.6087486158
H                0.5775442400        0.1532531117        0.4088142954
H                0.1532530870        0.4088142958        0.5775442449
H                0.4088142884        0.5775442340        0.1532531148
H                0.5731530721        0.4065298409        0.1566007909
H                0.1566007591        0.5731530670        0.4065298660
H                0.4270108246        0.5932860849        0.8434339233
H                0.4065298377        0.1566007647        0.5731530943
H                0.5932860930        0.8434338945        0.4270108325
H                0.8400179851        0.3554958754        0.1319848343
H                0.7671843979        0.4801174918        0.1820688516
H                0.8434338839        0.4270108123        0.5932861188
H                0.8480791925        0.6630420532        0.3477507271
H                0.3477507459        0.8480791930        0.6630420424
H                0.7751909058        0.5595755285        0.4632697623
H                0.1820688416        0.7671843947        0.4801175055
H                0.6630420143        0.3477507532        0.8480791972
H                0.4801174967        0.1820688427        0.7671844048
[...]
     atom   26 type  4   force =    -0.00014495   -0.00004883    0.00010922
     atom   27 type  4   force =    -0.00103960    0.00032755    0.00030230
     atom   28 type  4   force =    -0.00053872    0.00009105    0.00014092
     atom   29 type  4   force =    -0.00001482   -0.00027468    0.00001676
     atom   30 type  4   force =     0.00002613    0.00063701   -0.00014802
     atom   31 type  4   force =     0.00059436   -0.00023348   -0.00021964
     atom   32 type  4   force =     0.00007227   -0.00000913    0.00067151
     atom   33 type  4   force =    -0.00001786    0.00000626   -0.00061203
     atom   34 type  4   force =    -0.00006378    0.00005434   -0.00025682
     atom   35 type  4   force =    -0.00004560   -0.00056337    0.00013196
     atom   36 type  4   force =     0.00012974   -0.00005096   -0.00031594
     atom   37 type  5   force =     0.00000339    0.00056797   -0.00028297
     atom   38 type  5   force =     0.00007936   -0.00015265    0.00085874
     atom   39 type  5   force =     0.00058106   -0.00033727   -0.00023810
     atom   40 type  5   force =     0.00000130   -0.00018806   -0.00005066
     atom   41 type  5   force =    -0.00015095   -0.00003104    0.00011250
     atom   42 type  5   force =     0.00006599   -0.00023397   -0.00053846
     atom   43 type  3   force =     0.00020979   -0.00000097   -0.00014634
     atom   44 type  3   force =     0.00000797    0.00022042    0.00007694
     atom   45 type  3   force =    -0.00041775    0.00037603    0.00010755
     atom   46 type  3   force =     0.00010251    0.00009228   -0.00009326
     atom   47 type  3   force =     0.00040112   -0.00052398    0.00008516
     atom   48 type  3   force =    -0.00030469    0.00033145    0.00043040
     atom   49 type  3   force =    -0.00002196   -0.00041511    0.00021963
     atom   50 type  3   force =     0.00004029   -0.00006273   -0.00045037
     atom   51 type  3   force =    -0.00036909   -0.00019432    0.00009213
     atom   52 type  3   force =    -0.00023829   -0.00009150   -0.00022014
     atom   53 type  3   force =    -0.00019924   -0.00000054    0.00004580
     atom   54 type  3   force =    -0.00003577    0.00001687    0.00018271
     atom   55 type  3   force =    -0.00024138    0.00023106    0.00014942
     atom   56 type  3   force =     0.00013128   -0.00009155   -0.00009155
     atom   57 type  3   force =     0.00017049    0.00020563   -0.00053731
     atom   58 type  3   force =     0.00010611   -0.00023575   -0.00019589
     atom   59 type  3   force =    -0.00003749    0.00010327    0.00018418
     atom   60 type  3   force =     0.00016973    0.00034489   -0.00015449
     atom   61 type  3   force =     0.00012160   -0.00015993    0.00008513
     atom   62 type  3   force =     0.00005894    0.00012452    0.00027751
     atom   63 type  3   force =    -0.00013566   -0.00030378    0.00010375
     atom   64 type  3   force =    -0.00035088    0.00006844   -0.00006795
     atom   65 type  3   force =    -0.00002265   -0.00043215   -0.00009463
     atom   66 type  3   force =    -0.00018990   -0.00023631   -0.00047064
     atom   67 type  3   force =    -0.00021069    0.00023163   -0.00018633
     atom   68 type  3   force =    -0.00031692   -0.00021800    0.00035955
     atom   69 type  3   force =    -0.00029219   -0.00054800    0.00006094
     atom   70 type  3   force =    -0.00019797    0.00007303   -0.00035085
     atom   71 type  3   force =    -0.00037042    0.00003723   -0.00024836
     atom   72 type  3   force =    -0.00034855   -0.00003893   -0.00014089
     atom   73 type  3   force =    -0.00011874    0.00032909    0.00039189
     atom   74 type  3   force =     0.00003636    0.00019946    0.00027255
     atom   75 type  3   force =     0.00040100   -0.00014822   -0.00004068
     atom   76 type  3   force =    -0.00005054    0.00006590   -0.00007204
     atom   77 type  3   force =    -0.00018320    0.00006936    0.00029002
     atom   78 type  3   force =     0.00019743    0.00009163    0.00030575
     atom   79 type  3   force =     0.00002965   -0.00008953   -0.00005562
     atom   80 type  3   force =     0.00019159    0.00023108   -0.00015379
     atom   81 type  3   force =     0.00024758    0.00010880   -0.00011575
     atom   82 type  3   force =     0.00019970   -0.00003954    0.00019028
     atom   83 type  3   force =     0.00028651   -0.00009157    0.00002723
     atom   84 type  3   force =    -0.00017702    0.00001338   -0.00036593
     atom   85 type  3   force =     0.00012741   -0.00039790   -0.00028847
     atom   86 type  3   force =    -0.00037519   -0.00000534    0.00014477
     atom   87 type  3   force =     0.00024666    0.00028247    0.00008655
     atom   88 type  3   force =     0.00021880    0.00023796   -0.00021246
     atom   89 type  3   force =     0.00036086    0.00012608    0.00006139
     atom   90 type  3   force =    -0.00011063   -0.00016161   -0.00029035
     atom   91 type  1   force =     0.00014902   -0.00043785    0.00045989
     atom   92 type  1   force =     0.00031962    0.00007215   -0.00053297
     atom   93 type  1   force =     0.00013843    0.00045840   -0.00008206
     atom   94 type  1   force =    -0.00024309   -0.00037225    0.00016088
     atom   95 type  1   force =    -0.00027854    0.00051482    0.00023045
     atom   96 type  1   force =    -0.00008385   -0.00024335   -0.00040755
     atom   97 type  1   force =     0.00044017   -0.00013288   -0.00001000
     atom   98 type  1   force =    -0.00044646    0.00014536   -0.00009721
     atom   99 type  1   force =     0.00008939    0.00014205    0.00042932
     atom  100 type  1   force =    -0.00006214   -0.00054991   -0.00027877
     atom  101 type  1   force =    -0.00045275   -0.00022816    0.00031848
     atom  102 type  1   force =    -0.00041531    0.00021401   -0.00037091
     atom  103 type  1   force =     0.00032722   -0.00051417    0.00001897
     atom  104 type  1   force =     0.00002257    0.00035528   -0.00048947
     atom  105 type  1   force =     0.00045249    0.00067178    0.00004538
     atom  106 type  1   force =    -0.00029136    0.00013387    0.00046303
     atom  107 type  1   force =     0.00080156    0.00008091    0.00007206
     atom  108 type  1   force =    -0.00021841    0.00016937   -0.00011947
     atom  109 type  1   force =    -0.00010591   -0.00021554   -0.00017460
     atom  110 type  1   force =     0.00044064    0.00027480    0.00062215
     atom  111 type  1   force =     0.00014950   -0.00008581   -0.00015921
     atom  112 type  1   force =    -0.00023285    0.00029211    0.00013844
     atom  113 type  1   force =    -0.00003130   -0.00002898   -0.00017475
     atom  114 type  1   force =    -0.00031418    0.00013165   -0.00028758
     atom  115 type  1   force =    -0.00000628   -0.00008871    0.00021459
     atom  116 type  1   force =    -0.00027483   -0.00016295    0.00011077
     atom  117 type  1   force =    -0.00020852   -0.00019036    0.00012049
     atom  118 type  1   force =     0.00000932   -0.00020351   -0.00021989
     atom  119 type  1   force =    -0.00004928   -0.00016649    0.00003669
     atom  120 type  1   force =    -0.00014311    0.00023863    0.00016815

     Total force =     0.005928     Total SCF correction =     0.000053


     Computing stress (Cartesian axis) and pressure


     negative rho (up, down):  2.945E-04 0.000E+00
          total   stress  (Ry/bohr**3)                   (kbar)     P=        0.02
  -0.00000020  -0.00000043  -0.00000026           -0.03       -0.06       -0.04
  -0.00000043   0.00000025  -0.00000011           -0.06        0.04       -0.02
  -0.00000026  -0.00000011   0.00000036           -0.04       -0.02        0.05

     Energy error            =      5.3E-05 Ry
     Gradient error          =      1.1E-03 Ry/Bohr
     Cell gradient error     =      6.3E-02 kbar

     number of scf cycles    =  50
     number of bfgs steps    =  49

     enthalpy           old  =   -4185.7194840389 Ry
     enthalpy           new  =   -4185.7195371483 Ry

     CASE: enthalpy          _new < enthalpy          _old

     new trust radius        =       0.0099028972 bohr

     The maximum number of steps has been reached.

     End of BFGS Geometry Optimization
     new unit-cell volume =  15370.21077 a.u.^3 (  2277.63025 Ang^3 )
     density =      1.25260 g/cm^3

CELL_PARAMETERS (alat= 27.52059178)
   1.001427581  -0.000248880  -0.000176153
   0.474783870   0.881724025  -0.000176252
   0.474785645   0.283503834   0.834905317

ATOMIC_POSITIONS (crystal)
Zr               0.8737609821        0.1195742732        0.1232019889
Zr               0.1232029624        0.8737608157        0.1195749190
Zr               0.1195737757        0.1232019234        0.8737611601
Zr               0.8821735146        0.8800625904        0.1265995683
Zr               0.1265998883        0.8821724887        0.8800619427
Zr               0.8800612029        0.1266003415        0.8821724152
O                0.9220100553        0.2594868408        0.0859777796
O                0.0859798919        0.9220080395        0.2594865382
O                0.2594865863        0.0859810414        0.9220066488
O                0.9153123038        0.0840577600        0.7387288924
O                0.0840576216        0.7387289891        0.9153136525
O                0.7387299858        0.9153098098        0.0840623412
O                0.9192457234        0.7592533555        0.0499496634
O                0.7592523155        0.0499451925        0.9192490895
O                0.2494325588        0.9447803714        0.0818283159
O                0.0499492391        0.9192465779        0.7592526969
O                0.8361999196        0.0465325929        0.0486802643
O                0.0486789268        0.8362009530        0.0465327983
O                0.0818309537        0.2494326068        0.9447777917
O                0.9447788806        0.0818290738        0.2494330724
O                0.2653534125        0.7330633678        0.0813573501
O                0.0813584080        0.2653531144        0.7330636476
O                0.7291823096        0.2629657522        0.0805207699
O                0.9220370257        0.7361029741        0.2652174678
O                0.2652190409        0.9220369928        0.7361022769
O                0.7361019975        0.2652189969        0.9220379737
O                0.0465323956        0.0486789268        0.8362011796
O                0.7429963175        0.9190000322        0.2728281248
O                0.0805189767        0.7291816554        0.2629670504
O                0.9563202299        0.9541475029        0.1633019011
O                0.9541475504        0.1633027276        0.9563197050
O                0.1633017894        0.9563213749        0.9541476119
O                0.9190035358        0.2728300724        0.7429945504
O                0.2629661744        0.0805191710        0.7291830573
O                0.2728290510        0.7429954770        0.9190012524
O                0.7330626779        0.0813558090        0.2653543714
N                0.8161610645        0.4351173430        0.1517098222
N                0.1517135756        0.8161544611        0.4351257013
N                0.4351220677        0.1517132583        0.8161548259
N                0.8172088236        0.5966661938        0.4297798934
N                0.5966726918        0.4297733665        0.8172144146
N                0.4297802649        0.8172124417        0.5966655101
C                0.0020332669        0.7065507488        0.9864486534
C                0.9864497576        0.0020314069        0.7065513982
C                0.0123065946        0.0006259756        0.2981837107
C                0.7065515086        0.9864553135        0.0020244903
C               -0.0026584262        0.4030418710        0.0085662508
C                0.4030415388        0.0085704154       -0.0026631510
C                0.2981835597        0.0123062958        0.0006268134
C                0.0006248502        0.2981835547        0.0123077133
C                0.9066674131        0.4662380709        0.0763314060
C                0.0763285932        0.9066713615        0.4662359485
C                0.0912209757        0.5384351038        0.9272135185
C                0.9937683661        0.0017009644        0.6008616448
C                0.0016947266        0.6008621414        0.9937728492
C                0.6008622298        0.9937668335        0.0017022184
C                0.0085692806       -0.0026621425        0.4030424948
C                0.9355695440        0.0876249059        0.4415738129
C                0.3086293944        0.6975323828        1.0000292510
C                0.6975326028        1.0000325630        0.3086288430
C                1.0000231111        0.3086283628        0.6975339288
C                0.5943024163        0.4062671542       -0.0029614873
C                0.0008527287        0.6918258273        0.3059488808
C                0.6918253144        0.3059492470        0.0008486321
C                0.9272166504        0.0912173628        0.5384348296
C                0.5650012648        0.0662024792        0.9117261381
C                0.4415745316        0.9355692513        0.0876256989
C                0.0876229538        0.4415734546        0.9355709148
C                0.0662021878        0.9117264637        0.5650019680
C                0.5384333866        0.9272174473        0.0912168418
C                0.9117329423        0.5650016126        0.0661971150
C                0.4662376348        0.0763278491        0.9066723840
C                0.4483609339        0.0852916598        0.5418117941
C                0.9130177647        0.4568379590        0.5564112223
C                0.5564125567        0.9130235153        0.4568356508
C                0.9080009394        0.5507266166        0.4618774671
C                0.4618760187        0.9079969201        0.5507277822
C                0.5963088120        1.0006301411        0.4073528864
C                0.5507246817        0.4618794124        0.9079977498
C                0.4568376764        0.5564107712        0.9130234026
C                0.0852936466        0.5418083492        0.4483646932
C                0.5418085920        0.4483641990        0.0852924229
C               -0.0029649962        0.5943026521        0.4062681007
C                0.4501961181        0.5415145258        0.0885220600
C                0.5415173838        0.0885223833        0.4501930113
C                0.0885186896        0.4501956669        0.5415151047
C                1.0006361457        0.4073512483        0.5963095464
C                0.4062686147       -0.0029611375        0.5943007478
C                0.4073518093        0.5963098825        1.0006316710
C                0.3059487766        0.0008478367        0.6918262008
H                0.1613670119        0.5673013844        0.8706511086
H                0.8706505864        0.1613684521        0.5673013168
H                0.8430624301        0.6148978899        0.1164731791
H                0.1559080365        0.3914508347        0.8854533849
H                0.5673006498        0.8706502340        0.1613692040
H                0.8854538222        0.1559074158        0.3914509014
H                0.6148976695        0.1164718024        0.8430639299
H                0.3914500081        0.8854548089        0.1559069767
H                0.1164722986        0.8430636947        0.6148973479
H                0.5726338867        0.1574131191        0.4107564138
H                0.1574151416        0.4107552787        0.5726342803
H                0.4107564669        0.5726341661        0.1574145687
H                0.5758950341        0.4038350221        0.1526671571
H                0.1526656251        0.5758948579        0.4038360455
H                0.4225005027        0.5999178771        0.8458159387
H                0.4038359198        0.1526664203        0.5758944939
H                0.5999177568        0.8458159119        0.4225004038
H                0.8087262451        0.3699978926        0.1503263725
H                0.7473990793        0.4933829866        0.1794637465
H                0.8458165053        0.4225013389        0.5999168905
H                0.8191551430        0.6571658839        0.3560369884
H                0.3560373833        0.8191550930        0.6571663008
H                0.7664780916        0.5521456520        0.4626963148
H                0.1794620722        0.7474027446        0.4933797961
H                0.6571631833        0.3560411279        0.8191549874
H                0.4933810305        0.1794627200        0.7474016186
H                0.1503256007        0.8087257150        0.3699955033
H                0.3699971713        0.1503260270        0.8087258035
H                0.5521420678        0.4626993978        0.7664753015
H                0.4626978480        0.7664767215        0.5521445026



     Writing config-only to output data dir ./pwscf.save/ :
     XML data file
     NEW-OLD atomic charge density approx. for the potential

     Check: negative core charge=   -0.000001

     negative rho (up, down):  2.919E-04 0.000E+00

     Writing all to output data dir ./pwscf.save/ :
     XML data file, charge density, pseudopotentials, collected wavefunctions

     init_run     :      3.63s CPU      4.23s WALL (       1 calls)
     electrons    :   4063.53s CPU   4153.34s WALL (      50 calls)
     update_pot   :      5.71s CPU      6.26s WALL (      50 calls)
     forces       :     78.73s CPU     80.69s WALL (      50 calls)
     stress       :    134.87s CPU    135.68s WALL (      50 calls)

     Called by init_run:
     wfcinit      :      2.22s CPU      2.31s WALL (       1 calls)
     potinit      :      0.39s CPU      0.43s WALL (       1 calls)
     hinit0       :      0.29s CPU      0.47s WALL (       1 calls)

     Called by electrons:
     c_bands      :   3652.85s CPU   3724.60s WALL (     620 calls)
     sum_band     :    287.31s CPU    295.24s WALL (     620 calls)
     v_of_rho     :     16.19s CPU     18.03s WALL (     645 calls)
     newd         :     69.31s CPU     71.65s WALL (     645 calls)
     PAW_pot      :     37.78s CPU     40.79s WALL (     695 calls)
     mix_rho      :      5.90s CPU      5.96s WALL (     620 calls)

     Called by c_bands:
     init_us_2    :      6.57s CPU      7.77s WALL (    1291 calls)
     regterg      :   3645.83s CPU   3715.86s WALL (     621 calls)

     Called by *egterg:
     rdiaghg      :    463.61s CPU    468.86s WALL (    5435 calls)
     h_psi        :   1688.00s CPU   1723.61s WALL (    5512 calls)
     s_psi        :    610.78s CPU    611.27s WALL (    5512 calls)
     g_psi        :      0.67s CPU      0.68s WALL (    4890 calls)

     Called by h_psi:
     h_psi:calbec :    661.87s CPU    683.13s WALL (    5512 calls)
     vloc_psi     :    403.74s CPU    417.58s WALL (    5512 calls)
     vloc_psi:tg_ :      1.30s CPU      1.33s WALL (    5512 calls)
     add_vuspsi   :    620.22s CPU    620.74s WALL (    5512 calls)

     General routines
     calbec       :    922.34s CPU    950.81s WALL (    6432 calls)
     fft          :     18.72s CPU     19.71s WALL (    8071 calls)
     ffts         :      2.13s CPU      2.16s WALL (    1265 calls)
     fftw         :    438.73s CPU    453.91s WALL (  659450 calls)
     interpolate  :      2.73s CPU      2.75s WALL (     645 calls)

     Parallel routines
     fft_scatt_xy :     18.61s CPU     19.08s WALL (  668786 calls)
     fft_scatt_yz :    380.69s CPU    395.06s WALL (  668786 calls)
     fft_scatt_tg :      1.65s CPU      1.71s WALL (  659450 calls)

     PWSCF        :      1h12m CPU      1h13m WALL


   This run was terminated on:  12:31: 5   3Jun2025            

=------------------------------------------------------------------------------=
   JOB DONE.
=------------------------------------------------------------------------------=
