
                                 *****************
                                 * O   R   C   A *
                                 *****************

                                            #,                                       
                                            ###                                      
                                            ####                                     
                                            #####                                    
                                            ######                                   
                                           ########,                                 
                                     ,,################,,,,,                         
                               ,,#################################,,                 
                          ,,##########################################,,             
                       ,#########################################, ''#####,          
                    ,#############################################,,   '####,        
                  ,##################################################,,,,####,       
                ,###########''''           ''''###############################       
              ,#####''   ,,,,##########,,,,          '''####'''          '####       
            ,##' ,,,,###########################,,,                        '##       
           ' ,,###''''                  '''############,,,                           
         ,,##''                                '''############,,,,        ,,,,,,###''
      ,#''                                            '''#######################'''  
     '                                                          ''''####''''         
             ,#######,   #######,   ,#######,      ##                                
            ,#'     '#,  ##    ##  ,#'     '#,    #''#        ,####,    ,#,          
            ##       ##  ##   ,#'  ##            #'  '#       #'       ,# #          
            ##       ##  #######   ##           ,######,      #####,      #          
            '#,     ,#'  ##    ##  '#,     ,#' ,#      #,     #,   #      #          
             '#######'   ##     ##  '#######'  #'      '#     '####' #    #          



                #########################################################
                #                        -***-                          #
                #          Department of theory and spectroscopy        #
                #                                                       #
                #                      Frank Neese                      #
                #                                                       #
                #     Directorship, Architecture, Infrastructure        #
                #                    SHARK, DRIVERS                     #
                #        Core code/Algorithms in most modules           #
                #                                                       #
                #        Max Planck Institute fuer Kohlenforschung      #
                #                Kaiser Wilhelm Platz 1                 #
                #                 D-45470 Muelheim/Ruhr                 #
                #                      Germany                          #
                #                                                       #
                #                  All rights reserved                  #
                #                        -***-                          #
                #########################################################


                         Program Version 6.1.0  -  RELEASE   -
                                (GIT: $679e74b$)
                          ($2025-06-10 18:02:51 +0200$)


 With contributions from (in alphabetic order):
[Max-Planck-Institut fuer Kohlenforschung]                               
  Daniel Aravena         : Magnetic Suceptibility                        
  Michael Atanasov       : Ab Initio Ligand Field Theory (pilot matlab implementation)
  Alexander A. Auer      : GIAO ZORA, VPT2 properties, NMR spectrum      
  Ute Becker             : All parallelization in ORCA, NUMFREQ, NUMCALC 
  Giovanni Bistoni       : ED, misc. LED, open-shell LED, HFLD           
  Dmytro Bykov           : pre 5.0 version of the SCF Hessian            
  Marcos Casanova-Páez   : Triplet and SCS-CIS(D). UHF-(DLPNO)-IP/EA/STEOM-CCSD. UHF-CVS-IP/STEOM-CCSD   
  Vijay G. Chilkuri      : MRCI spin determinant printing, contributions to CSF-ICE 
  Pauline Colinet        : FMM embedding                                 
  Dipayan Datta          : RHF DLPNO-CCSD density                        
  Achintya Kumar Dutta   : EOM-CC, STEOM-CC                              
  Nicolas Foglia         : Exact transition moments, OPA infrastructure, MCD improvements    
  Dmitry Ganyushin       : Spin-Orbit,Spin-Spin,Magnetic field MRCI      
  Miquel Garcia-Rates    : C-PCM and meta-GGA Hessian, CCSD/C-PCM, Gaussian charge scheme 
  Tiago L. C. Gouveia    : GS-ROHF, GS-ROCIS                             
  Yang Guo               : DLPNO-NEVPT2, F12-NEVPT2, CIM, IAO-localization        
  Andreas Hansen         : Spin unrestricted coupled pair/coupled cluster methods 
  Ingolf Harden          : AUTO-CI MPn and infrastructure                
  Benjamin Helmich-Paris : MC-RPA, TRAH-(SCF,CASSCF), AVAS, COSX integrals, SCF dyn. polar., MC-PDFT, srDFT 
  Lee Huntington         : MR-EOM, pCC                                   
  Robert Izsak           : Overlap fitted RIJCOSX, COSX-SCS-MP3, EOM     
  Riya Kayal             : Wick's Theorem for AUTO-CI, AUTO-CI UHF-CCSDT 
  Emily Kempfer          : AUTO-CI RHF CISDT and CCSDT, approximate NEVPT4
  Christian Kollmar      : KDIIS, OOCD, Brueckner-CCSD(T), CCSD density, CASPT2, CASPT2-K, improved NEVPT2 
  Axel Koslowski         : Symmetry handling                             
  Simone Kossmann        : meta-GGA functionals, TD-DFT gradient, OOMP2, (MP2 Hessian; deprecated post 5.0) 
  Lucas Lang             : DCDCAS, Hyperfine gauge corrections, ICE-SOC+SSC
  Marvin Lechner         : AUTO-CI (C++ implementation), FIC-MRCC        
  Spencer Leger          : CASSCF response                               
  Dagmar Lenk            : GEPOL surface, SMD, ORCA-2-JSON               
  Dimitrios Liakos       : Extrapolation schemes; Compound Job, Property file
  Dimitrios Manganas     : Further ROCIS development; embedding schemes. LFT, Crystal Embedding 
  Dimitrios Pantazis     : SARC Basis sets                               
  Anastasios Papadopoulos: AUTO-CI, single reference methods and gradients 
  Taras Petrenko         : pre 6.0 DFT Hessian and TD-DFT gradient,  ECA, NRVS 
  Petra Pikulova         : Analytic Raman intensities                    
  Peter Pinski           : DLPNO-MP2, DLPNO-MP2 Gradient                 
  Shashank Vittal Rao    : ES-AILFT, MagRelax                            
  Christoph Reimann      : Effective Core Potentials                     
  Marius Retegan         : Local ZFS, SOC                                
  Christoph Riplinger    : Optimizer, TS searches, QM/MM, DLPNO-CCSD(T), (RO)-DLPNO pert. Triples 
  Michael Roemelt        : Original ROCIS implementation, recursive CI coupling coefficients
  Masaaki Saitow         : Open-shell DLPNO-CCSD energy and density      
  Barbara Sandhoefer     : DKH picture change effects                    
  Yorick L. A. Schmerwitz: GMF and freeze-and-release deltaSCF, NEB S-IDPP initial path                    
  Kantharuban Sivalingam : CASSCF convergence/infrastructure, NEVPT2, NEVPT3, NEVPT4(SD), FIC-MRCI and CEPA variants
  Bernardo de Souza      : ESD, SOC TD-DFT                               
  Georgi L. Stoychev     : AutoAux, RI-MP2 NMR, DLPNO-MP2 response, X2C  
  Van Anh Tran           : RI-MP2 g-tensors                              
  Willem Van den Heuvel  : Paramagnetic NMR                              
  Zikuan Wang            : NOTCH, Electric field optimization            
  Frank Wennmohs         : Technical directorship and infrastructure     
  Hang Xu                : AUTO-CI-Response properties                   
                                                                         
[FACCTs GmbH]                                                            
  Markus Bursch, Nicolas Foglia, Miquel Garcia-Rates, Ingolf Harden, Hagen Neugebauer, Anastasios Papadopoulos, 
  Christoph Riplinger, Bernardo de Souza, Georgi L. Stoychev                                                    
                                                                 
  APM, various basis sets, CI-OPT, improved COSX, DLPNO-Multilevel,           
  DOCKER, DRACO, updates on ESD, Fragmentator, GOAT, IRC, LR-CPCM, L-BFGS, MBIS, meta-GGA TD-DFT gradient, ML-optimized integration grids, 
  MM, NACMEs, nearIR, NEB, NEB-TS, NL-DFT gradient (VV10), 2- and 3-layer-ONIOM, interface openCOSMO-RS, QMMM,   
  Crystal-QMMM, RESP, rigid body optimization, SF, symmetry and pop. for TD-DFT, various functionals, SOLVATOR                                   
                                                                         
[Other institutions]                                                     
  V. Asgeirsson          : NEB                                           
  Christoph Bannwarth    : sTDA-DFT, sTD-DFT, PBEh-3c, B97-3c, D3        
  Giovanni Bistoni       : ETS/NOCV, ADLD/ADEX, COVALED                  
  Martin Brehm           : Molecular dynamics                            
  Ronald Cardenas        : ETS/NOCV                                      
  Martina Colucci        : COVALED                                       
  Sebastian Ehlert       : rSCAN, r2SCAN, r2SCAN-3c, D4, dhf basis sets  
  Marvin Friede          : D4 for Fr, Ra, Ac-Lr                          
  Lars Goerigk           : TD-DFT with DH, B97 family of functionals     
  Stefan Grimme          : VdW corrections, initial TS optimization, DFT functionals, gCP, sTDA/sTD-DF 
  Waldemar Hujo          : DFT-NL                                        
  H. Jonsson             : NEB                                           
  Holger Kruse           : gCP                                           
  Marcel Mueller         : wB97X-3c, vDZP basis set                      
  Hagen Neugebauer       : wr2SCAN, Native XTB                           
  Gianluca Regni         : ADLD/ADEX                                     
  Tobias Risthaus        : pre 6.0 range-separated hybrid DFT and stability analysis
  Lukas Wittmann         : regularized MP2, r2SCAN double-hybrids, wr2SCAN        
                                                                         
We gratefully acknowledge several colleagues who have allowed us to      
interface, adapt or use parts of their codes:                            
  Ed Valeev, F. Pavosevic, A. Kumar             : LibInt (2-el integral package), F12 methods 
  Garnet Chan, S. Sharma, J. Yang, R. Olivares  : DMRG                   
  Ulf Ekstrom                                   : XCFun DFT Library      
  Mihaly Kallay                                 : mrcc  (arbitrary order and MRCC methods)
  Frank Weinhold                                : gennbo (NPA and NBO analysis)           
  Simon Mueller                                 : openCOSMO-RS                            
  Christopher J. Cramer and Donald G. Truhlar   : smd solvation model                     
  S Lehtola, MJT Oliveira, MAL Marques          : LibXC Library                           
  Liviu Ungur et al                             : ANISO software                          


 Your calculation uses the libint2 library for the computation of 2-el integrals
 For citations please refer to: http://libint.valeyev.net

 Your ORCA version has been built with support for libXC version: 7.0.0
 For citations please refer to: https://libxc.gitlab.io

 This ORCA versions uses:
   CBLAS   interface :  Fast vector & matrix operations
   LAPACKE interface :  Fast linear algebra routines
   SCALAPACK package :  Parallel linear algebra routines
   Shared memory     :  Shared parallel matrices
   BLAS/LAPACK       :  OpenBLAS 0.3.29  USE64BITINT DYNAMIC_ARCH NO_AFFINITY Prescott SINGLE_THREADED
        Core in use  :  Prescott
   Copyright (c) 2011-2014, The OpenBLAS Project


  ***********************************
  * Starting time: Tue Aug 12 23:06:16 2025
  * Host name:     cuda3
  * Process ID:    142809
  * Working dir.:  /local/scratch/mehlhorn/61830
  ***********************************



***************************************
The coordinates will be read from file: start.xyz
***************************************


Your calculation utilizes the geometrical counterpoise correction gCP
Please cite in your paper:
H.Kruse, S. Grimme J.Chem.Phys., 136, (2012), 154101 
   

Your calculation utilizes the atom-pairwise dispersion correction
with the Becke-Johnson damping scheme (D3BJ)


Warning: RI is on but no J-basis has been assigned. Assigning Def2/J (nothing to worry about!)
================================================================================

cite the ECPs for Zr [Def2-ECP] as follows:
Ce-Yb(ecp-28): M. Dolg, H. Stoll, H.Preuss, J. Chem. Phys., 1989, 90, 1730-1734.
Y-Cd(ecp-28), Hf-Hg(ecp-46): D. Andrae,U. Haeussermann, M. Dolg, H. Stoll, H. Preuss, Theor. Chim. Acta, 1990, 77, 123-141.
In-Sb(ecp-28), Tl-Bi(ecp-46): B. Metz, H. Stoll, M. Dolg, J. Chem. Phys., 2000, 113, 2563-2569.
Te-Xe(ecp-28), Po-Rn(ecp-46): K. A. Peterson, D. Figgen, E. Goll, H. Stoll, M. Dolg, J. Chem. Phys., 2003, 119, 11113-11123.
Rb(ecp-28), Cs(ecp-46): T. Leininger, A. Nicklass, W. Kuechle, H. Stoll, M. Dolg, A. Bergner, Chem. Phys. Lett., 1996, 255, 274-280.
Sr(ecp-28), Ba(ecp-46): M. Kaupp, P. V. Schleyer, H. Stoll and H. Preuss, J. Chem. Phys., 1991, 94, 1360-1366.
La(ecp-46): M. Dolg, H. Stoll, A. Savin, H. Preuss, Theor. Chim. Acta, 1989, 75, 173-194.
Lu(ecp-28): X. Cao, M. Dolg, J. Chem. Phys., 2001, 115, 7348-7355.

ECP parameters for Zr [Def2-ECP] have been obtained from:
TURBOMOLE (7.0.2)

----- Orbital basis set information -----
Your calculation utilizes the basis: def2-SV(P)
   F. Weigend and R. Ahlrichs, Phys. Chem. Chem. Phys. 7, 3297 (2005).

----- AuxJ basis set information -----
Your calculation utilizes the auxiliary basis: def2/J
   H-Rn: F. Weigend, Phys. Chem. Chem. Phys. 8, 1057 (2006).
   Fr-Lr: K. Eichkorn, F. Weigend, O. Treutler, R. Ahlrichs; Theor. Chem. Acc. 97, 119 (1997).

================================================================================
                                        WARNINGS
                       Please study these warnings very carefully!
================================================================================


WARNING: Gradients are needed
  ===> : At least TightSCF should be used for SCF convergence

WARNING: Geometry Optimization
  ===> : Switching off AutoStart
         For restart on a previous wavefunction, please use MOREAD

================================================================================
                                       INPUT FILE
================================================================================
NAME = run.inp
|  1> # Geometry optimization for (AlH3)n cluster
|  2> 
|  3> %pal nprocs 24  end
|  4> 
|  5> %geom MaxIter 500 end
|  6> 
|  7> 
|  8> ! PBE def2-SV(P)
|  9> ! RKS	# closed shell for AlH3
| 10> ! D3    #  dispersion correction
| 11> ! gCP(DFT/SV(P))
| 12> ! Freq 	# Frequency analysis to check the stabiltity of the structures
| 13> 
| 14> ! NoPop # population analysis not necessary	
| 15> 
| 16> ! DEFGRID2
| 17> ! NormalSCF
| 18> ! SloppyOpt
| 19> 
| 20> ! SmallPrint
| 21> 
| 22> 
| 23> * xyzFile 0 1 start.xyz # only maingroup elements H and Al so there should be no net spin
| 24> 
| 25>                          ****END OF INPUT****
================================================================================

                       *****************************
                       * Geometry Optimization Run *
                       *****************************

Geometry optimization settings:
Update method            Update   .... BFGS
Choice of coordinates    CoordSys .... (2022) Redundant Internals
Initial Hessian          InHess   .... Almloef's Model
Max. no of cycles        MaxIter  .... 500

Convergence Tolerances:
Energy Change            TolE     ....  8.0000e-05 Eh
Max. Gradient            TolMAXG  ....  5.0000e-03 Eh/bohr
RMS Gradient             TolRMSG  ....  1.0000e-03 Eh/bohr
Max. Displacement        TolMAXD  ....  3.0000e-02 bohr
RMS Displacement         TolRMSD  ....  2.0000e-02 bohr
Strict Convergence                .... False

------------------------------------------------------------------------------
                        ORCA OPTIMIZATION COORDINATE SETUP
------------------------------------------------------------------------------

The optimization will be done in redundant internal coordinates (2022)
Making redundant internal coordinates   ...  (2022 redundants) done
Evaluating the initial hessian          ...  (Almloef) done
Evaluating the coordinates              ...  done
Calculating the B-matrix                .... done
Calculating the G-matrix                .... done
The number of degrees of freedom        ....  740

    -----------------------------------------------------------------
                    Redundant Internal Coordinates


    -----------------------------------------------------------------
         Definition                    Initial Value    Approx d2E/dq
    -----------------------------------------------------------------
      1. B(Zr  2,Zr  1)                  3.4290         0.035720   
      2. B(Zr  3,Zr  0)                  3.4326         0.035249   
      3. B(Zr  4,Zr  1)                  3.3727         0.043929   
      4. B(Zr  4,Zr  3)                  3.4183         0.037147   
      5. B(Zr  5,Zr  0)                  3.3727         0.043923   
      6. B(Zr  5,Zr  2)                  3.4059         0.038888   
      7. B(O   6,Zr  3)                  2.0890         0.434239   
      8. B(O   6,Zr  5)                  2.1472         0.350693   
      9. B(O   6,Zr  0)                  2.0838         0.442739   
     10. B(O   7,Zr  4)                  2.1578         0.337306   
     11. B(O   7,Zr  1)                  2.0806         0.447925   
     12. B(O   7,Zr  2)                  2.0986         0.419278   
     13. B(O   8,Zr  5)                  2.1798         0.311101   
     14. B(O   8,Zr  1)                  2.1710         0.321318   
     15. B(O   8,Zr  2)                  2.1500         0.347099   
     16. B(O   9,Zr  0)                  2.1675         0.325502   
     17. B(O   9,Zr  4)                  2.1750         0.316684   
     18. B(O   9,Zr  3)                  2.1515         0.345177   
     19. B(O  10,Zr  4)                  2.1052         0.409200   
     20. B(O  10,Zr  3)                  2.0748         0.457482   
     21. B(O  10,Zr  1)                  2.1242         0.381559   
     22. B(O  11,Zr  5)                  2.1078         0.405368   
     23. B(O  11,Zr  0)                  2.1245         0.381194   
     24. B(O  11,Zr  2)                  2.0683         0.468572   
     25. B(O  12,Zr  0)                  1.9961         0.610958   
     26. B(O  13,Zr  0)                  1.9861         0.633700   
     27. B(O  14,Zr  0)                  2.0719         0.462540   
     28. B(O  15,Zr  0)                  1.9873         0.631125   
     29. B(O  16,Zr  1)                  1.9812         0.645368   
     30. B(O  17,Zr  1)                  2.0755         0.456363   
     31. B(O  18,Zr  1)                  1.9853         0.635668   
     32. B(O  19,Zr  1)                  1.9946         0.614387   
     33. B(O  20,Zr  2)                  1.9715         0.668694   
     34. B(O  21,Zr  2)                  2.0683         0.468661   
     35. B(O  22,Zr  2)                  1.9803         0.647355   
     36. B(O  23,Zr  2)                  2.0588         0.485252   
     37. B(O  24,Zr  3)                  2.0652         0.473900   
     38. B(O  25,Zr  3)                  1.9820         0.643411   
     39. B(O  26,Zr  3)                  2.0672         0.470597   
     40. B(O  27,Zr  3)                  1.9700         0.672373   
     41. B(O  28,Zr  4)                  1.9774         0.654319   
     42. B(O  29,Zr  4)                  2.0196         0.560514   
     43. B(O  30,Zr  4)                  1.9889         0.627255   
     44. B(O  31,Zr  4)                  2.0709         0.464192   
     45. B(O  32,Zr  5)                  2.0781         0.452060   
     46. B(O  33,Zr  5)                  1.9917         0.620878   
     47. B(O  34,Zr  5)                  2.0091         0.582530   
     48. B(O  35,Zr  5)                  1.9734         0.664118   
     49. B(C  36,O  33)                  1.3024         0.772076   
     50. B(C  36,O  12)                  1.3018         0.773594   
     51. B(C  37,O  25)                  1.3010         0.775876   
     52. B(C  37,O  13)                  1.3009         0.776374   
     53. B(C  38,O  21)                  1.2972         0.786887   
     54. B(C  38,O  14)                  1.2967         0.788270   
     55. B(C  39,O  29)                  1.2952         0.792843   
     56. B(C  39,O  15)                  1.2950         0.793401   
     57. B(C  40,O  34)                  1.2949         0.793488   
     58. B(C  40,O  16)                  1.2945         0.794849   
     59. B(C  41,O  26)                  1.2977         0.785384   
     60. B(C  41,O  17)                  1.2969         0.787866   
     61. B(C  42,O  22)                  1.3013         0.775207   
     62. B(C  42,O  18)                  1.3013         0.775152   
     63. B(C  43,O  19)                  1.3015         0.774627   
     64. B(C  43,O  30)                  1.3020         0.773050   
     65. B(C  44,O  35)                  1.2988         0.782205   
     66. B(C  44,O  20)                  1.2990         0.781838   
     67. B(C  45,O  31)                  1.2981         0.784464   
     68. B(C  45,O  23)                  1.2998         0.779387   
     69. B(C  46,O  32)                  1.2983         0.783736   
     70. B(C  46,O  24)                  1.3003         0.778054   
     71. B(C  47,O  28)                  1.2986         0.783005   
     72. B(C  47,O  27)                  1.2986         0.782963   
     73. B(H  48,C  41)                  1.0851         0.366693   
     74. B(H  49,C  42)                  1.0916         0.358016   
     75. B(H  50,C  38)                  1.0849         0.366932   
     76. B(H  51,C  37)                  1.0913         0.358448   
     77. B(H  52,C  43)                  1.0923         0.357046   
     78. B(H  53,C  47)                  1.0900         0.360085   
     79. B(H  54,C  39)                  1.0862         0.365101   
     80. B(H  55,C  45)                  1.0865         0.364711   
     81. B(H  56,C  40)                  1.0858         0.365746   
     82. B(H  57,C  46)                  1.0866         0.364627   
     83. B(H  58,C  36)                  1.0925         0.356830   
     84. B(H  59,C  44)                  1.0903         0.359756   
     85. B(Al 60,O  35)                  3.3738         0.010000   
     86. B(Al 60,O  34)                  3.3009         0.010000   
     87. B(Al 61,H  56)                  2.9089         0.010000   
     88. B(Al 61,Al 60)                  3.3195         0.025616   
     89. B(H  62,H  56)                  2.8503         0.010000   
     90. B(H  62,Al 61)                  1.6695         0.300191   
     91. B(H  63,Al 61)                  1.5965         0.392522   
     92. B(H  64,H  56)                  2.7708         0.010000   
     93. B(H  64,Al 61)                  1.6697         0.300038   
     94. B(H  64,Al 60)                  1.6698         0.299917   
     95. B(H  64,C  40)                  3.3656         0.010000   
     96. B(H  65,Al 60)                  1.5951         0.394614   
     97. B(H  66,C  44)                  3.0880         0.010000   
     98. B(H  66,H  59)                  3.0373         0.010000   
     99. B(H  66,O  35)                  2.9088         0.010000   
    100. B(H  66,Al 60)                  1.6699         0.299732   
    101. B(H  66,O  34)                  3.3328         0.010000   
    102. B(H  67,H  56)                  2.7094         0.010000   
    103. B(H  67,Al 61)                  1.5961         0.393143   
    104. B(Al 68,O  16)                  3.2951         0.010000   
    105. B(Al 68,H  62)                  1.6689         0.300885   
    106. B(Al 68,Al 61)                  3.3201         0.025558   
    107. B(Al 68,O  18)                  3.3417         0.010000   
    108. B(H  69,O  16)                  3.2878         0.010000   
    109. B(H  69,H  49)                  3.2862         0.010000   
    110. B(H  69,C  42)                  3.2501         0.010000   
    111. B(H  69,O  18)                  2.6948         0.010000   
    112. B(H  69,Al 68)                  1.6700         0.299710   
    113. B(H  70,Al 68)                  1.5956         0.393823   
    114. B(H  71,O  35)                  2.8158         0.010000   
    115. B(H  71,O  34)                  2.6061         0.010000   
    116. B(H  71,Al 60)                  1.5965         0.392593   
    117. B(Al 72,H  69)                  1.6691         0.300645   
    118. B(Al 72,Al 68)                  3.2819         0.029407   
    119. B(Al 72,H  66)                  1.6687         0.301100   
    120. B(Al 72,Al 60)                  3.2790         0.029724   
    121. B(H  73,Al 72)                  1.5955         0.394044   
    122. B(H  74,O  18)                  3.2863         0.010000   
    123. B(H  74,O  22)                  3.0378         0.010000   
    124. B(H  74,C  44)                  2.8764         0.010000   
    125. B(H  74,H  59)                  2.8548         0.010000   
    126. B(H  74,H  49)                  2.8003         0.010000   
    127. B(H  74,O  20)                  2.7858         0.010000   
    128. B(H  74,C  42)                  2.7851         0.010000   
    129. B(H  74,Al 72)                  1.5953         0.394325   
    130. B(H  75,O  18)                  2.9639         0.010000   
    131. B(H  75,O  16)                  2.6647         0.010000   
    132. B(H  75,Al 68)                  1.5965         0.392609   
    133. A(Zr  3,Zr  0,O  15)          111.4559         0.356220   
    134. A(Zr  3,Zr  0,Zr  5)           70.4404         0.252657   
    135. A(O  12,Zr  0,O  15)          135.8283         0.544236   
    136. A(O   9,Zr  0,O  15)           74.9764         0.483769   
    137. A(O   6,Zr  0,O  14)          127.6845         0.483487   
    138. A(O   9,Zr  0,O  12)          140.6037         0.480878   
    139. A(O   6,Zr  0,O  12)           81.4313         0.509134   
    140. A(O   9,Zr  0,O  11)           89.8867         0.441194   
    141. A(Zr  5,Zr  0,O  12)           72.9238         0.367806   
    142. A(O  13,Zr  0,O  14)          130.2988         0.516840   
    143. A(Zr  3,Zr  0,O  13)           73.0052         0.356466   
    144. A(O   9,Zr  0,O  14)          138.3795         0.456955   
    145. A(O   6,Zr  0,O   9)           68.0123         0.453329   
    146. A(O  11,Zr  0,O  15)          106.2402         0.498136   
    147. A(O  11,Zr  0,O  13)          159.2608         0.498513   
    148. A(Zr  5,Zr  0,O  13)          127.5458         0.370121   
    149. A(Zr  3,Zr  0,O  12)          104.9028         0.354263   
    150. A(O  14,Zr  0,O  15)           76.4275         0.516446   
    151. A(O  12,Zr  0,O  14)           80.1165         0.513315   
    152. A(Zr  5,Zr  0,O  15)          142.7853         0.369862   
    153. A(O   6,Zr  0,O  15)          141.8707         0.512234   
    154. A(Zr  5,Zr  0,O   9)           94.9407         0.330773   
    155. A(Zr  5,Zr  0,O  11)           36.9931         0.339572   
    156. A(Zr  3,Zr  0,O   9)           37.2055         0.319029   
    157. A(O  12,Zr  0,O  13)           81.7851         0.544656   
    158. A(O  11,Zr  0,O  12)           99.9440         0.495140   
    159. A(Zr  3,Zr  0,O  11)           86.6813         0.327401   
    160. A(O   9,Zr  0,O  13)           76.5629         0.484133   
    161. A(O  11,Zr  0,O  14)           69.9465         0.470347   
    162. A(O  13,Zr  0,O  15)           85.5889         0.548017   
    163. A(Zr  5,Zr  0,O  14)           89.9194         0.350786   
    164. A(O   6,Zr  0,O  13)           94.3178         0.512624   
    165. A(Zr  3,Zr  0,O   6)           34.7029         0.335615   
    166. A(Zr  3,Zr  0,O  14)          156.6275         0.338070   
    167. A(Zr  5,Zr  0,O   6)           37.7970         0.348206   
    168. A(O   6,Zr  0,O  11)           65.7748         0.466589   
    169. A(Zr  2,Zr  1,O  18)           72.6056         0.357459   
    170. A(O   8,Zr  1,O  16)           74.9436         0.484608   
    171. A(O   7,Zr  1,O  18)           94.0557         0.514040   
    172. A(Zr  4,Zr  1,O  16)          141.5124         0.371293   
    173. A(O   8,Zr  1,O  17)          138.3328         0.454765   
    174. A(O   8,Zr  1,O  10)           90.0801         0.440240   
    175. A(Zr  2,Zr  1,O  10)           87.2126         0.328170   
    176. A(O  10,Zr  1,O  17)           69.8232         0.469270   
    177. A(Zr  2,Zr  1,O   8)           37.2677         0.319047   
    178. A(O  16,Zr  1,O  17)           75.7225         0.517305   
    179. A(Zr  4,Zr  1,O  17)           89.6798         0.349998   
    180. A(Zr  2,Zr  1,O   7)           35.0380         0.337010   
    181. A(O  18,Zr  1,O  19)           81.1626         0.545553   
    182. A(O  16,Zr  1,O  18)           87.0815         0.550666   
    183. A(Zr  2,Zr  1,O  16)          111.5727         0.358381   
    184. A(O   7,Zr  1,O  10)           66.0240         0.467667   
    185. A(Zr  2,Zr  1,Zr  4)           71.0299         0.253154   
    186. A(O  10,Zr  1,O  16)          104.9803         0.500297   
    187. A(Zr  4,Zr  1,O  19)           73.3113         0.368167   
    188. A(O  16,Zr  1,O  19)          135.9796         0.547121   
    189. A(O  10,Zr  1,O  18)          159.3205         0.498890   
    190. A(O  17,Zr  1,O  19)           80.1423         0.512562   
    191. A(O   7,Zr  1,O  17)          127.7139         0.483326   
    192. A(O  10,Zr  1,O  19)          100.3257         0.495743   
    193. A(O   7,Zr  1,O   8)           68.2791         0.453223   
    194. A(O   8,Zr  1,O  19)          140.7364         0.480227   
    195. A(O   8,Zr  1,O  18)           76.6945         0.483254   
    196. A(Zr  2,Zr  1,O  19)          105.0114         0.355398   
    197. A(Zr  2,Zr  1,O  17)          157.0354         0.338060   
    198. A(O  17,Zr  1,O  18)          130.2827         0.515839   
    199. A(Zr  4,Zr  1,O  18)          127.5172         0.370327   
    200. A(O   7,Zr  1,O  16)          141.8161         0.515499   
    201. A(Zr  4,Zr  1,O   7)           38.0761         0.348898   
    202. A(Zr  4,Zr  1,O  10)           36.9201         0.339634   
    203. A(O   7,Zr  1,O  19)           81.5614         0.510777   
    204. A(Zr  4,Zr  1,O   8)           95.2668         0.330073   
    205. A(Zr  1,Zr  2,O   7)           34.6943         0.333328   
    206. A(O   8,Zr  2,O  23)          139.5100         0.466417   
    207. A(O   7,Zr  2,O   8)           68.3602         0.454138   
    208. A(Zr  5,Zr  2,O  22)          124.2467         0.363803   
    209. A(Zr  1,Zr  2,O  23)          102.7123         0.341544   
    210. A(Zr  5,Zr  2,O   8)           38.4414         0.327646   
    211. A(Zr  5,Zr  2,O   7)           89.5858         0.338072   
    212. A(O  22,Zr  2,O  23)           82.5401         0.523599   
    213. A(O  21,Zr  2,O  23)           77.3765         0.492959   
    214. A(O  11,Zr  2,O  23)          111.8124         0.492941   
    215. A(Zr  1,Zr  2,O   8)           37.6949         0.323100   
    216. A(O  20,Zr  2,O  21)           80.9207         0.523367   
    217. A(O  20,Zr  2,O  22)           84.4669         0.556314   
    218. A(O  11,Zr  2,O  21)           70.9746         0.489773   
    219. A(O  20,Zr  2,O  23)          136.0658         0.526801   
    220. A(Zr  1,Zr  2,Zr  5)           70.8764         0.248687   
    221. A(O   8,Zr  2,O  11)           67.9822         0.463441   
    222. A(O   8,Zr  2,O  21)          132.9952         0.463457   
    223. A(Zr  5,Zr  2,O  23)          145.3812         0.346448   
    224. A(O  21,Zr  2,O  22)          132.0934         0.520190   
    225. A(Zr  1,Zr  2,O  21)          155.0398         0.339563   
    226. A(O  11,Zr  2,O  22)          156.3293         0.520172   
    227. A(O   7,Zr  2,O  21)          129.2355         0.479816   
    228. A(O   7,Zr  2,O  11)           84.7908         0.479799   
    229. A(Zr  1,Zr  2,O  22)           71.7996         0.358569   
    230. A(Zr  5,Zr  2,O  11)           35.7430         0.344418   
    231. A(Zr  5,Zr  2,O  21)           94.6503         0.344429   
    232. A(Zr  1,Zr  2,O  11)           86.3229         0.339553   
    233. A(O   8,Zr  2,O  22)           88.7994         0.491859   
    234. A(Zr  1,Zr  2,O  20)          112.6097         0.360555   
    235. A(O   7,Zr  2,O  20)          147.2900         0.512557   
    236. A(Zr  5,Zr  2,O  20)           73.6173         0.365828   
    237. A(O   7,Zr  2,O  22)           82.2378         0.509459   
    238. A(O   8,Zr  2,O  20)           81.6431         0.494827   
    239. A(O  11,Zr  2,O  20)           96.1377         0.523348   
    240. A(O   7,Zr  2,O  23)           71.2944         0.482906   
    241. A(O   9,Zr  3,O  10)           67.6602         0.460949   
    242. A(O  25,Zr  3,O  27)           83.6411         0.556247   
    243. A(Zr  4,Zr  3,O  10)           35.4317         0.340417   
    244. A(Zr  0,Zr  3,O   6)           34.6027         0.334536   
    245. A(O   6,Zr  3,O  24)           71.1844         0.483922   
    246. A(O   6,Zr  3,O  27)          147.8113         0.516462   
    247. A(Zr  4,Zr  3,O  24)          146.9040         0.342431   
    248. A(Zr  4,Zr  3,O  27)           73.8310         0.363313   
    249. A(O   6,Zr  3,O  26)          128.2295         0.483298   
    250. A(O  24,Zr  3,O  27)          135.1980         0.525002   
    251. A(O  26,Zr  3,O  27)           81.4742         0.524313   
    252. A(O   9,Zr  3,O  27)           82.2390         0.494821   
    253. A(O  25,Zr  3,O  26)          132.9220         0.519996   
    254. A(O   9,Zr  3,O  26)          133.5092         0.463336   
    255. A(Zr  0,Zr  3,Zr  4)           70.3600         0.246566   
    256. A(Zr  4,Zr  3,O  26)           95.5028         0.342031   
    257. A(Zr  4,Zr  3,O   9)           38.0476         0.324888   
    258. A(Zr  4,Zr  3,O   6)           89.3628         0.337467   
    259. A(O   9,Zr  3,O  24)          139.0879         0.463929   
    260. A(Zr  0,Zr  3,O  25)           71.6094         0.357388   
    261. A(O  10,Zr  3,O  24)          114.1935         0.488611   
    262. A(Zr  0,Zr  3,O   9)           37.5292         0.322105   
    263. A(O   6,Zr  3,O  10)           85.4630         0.480783   
    264. A(O  10,Zr  3,O  27)           95.1945         0.521537   
    265. A(Zr  0,Zr  3,O  27)          113.2257         0.360076   
    266. A(O   6,Zr  3,O   9)           68.2221         0.456585   
    267. A(Zr  0,Zr  3,O  24)          102.1797         0.339441   
    268. A(Zr  0,Zr  3,O  26)          154.2682         0.339045   
    269. A(O   9,Zr  3,O  25)           87.6594         0.490797   
    270. A(O   6,Zr  3,O  25)           82.6917         0.512223   
    271. A(Zr  0,Zr  3,O  10)           86.3269         0.337450   
    272. A(O  10,Zr  3,O  26)           70.8681         0.487979   
    273. A(O  24,Zr  3,O  25)           82.3731         0.520679   
    274. A(O  10,Zr  3,O  25)          155.1683         0.517248   
    275. A(Zr  4,Zr  3,O  25)          122.4710         0.360593   
    276. A(O  24,Zr  3,O  26)           77.6577         0.491175   
    277. A(O   9,Zr  4,O  10)           66.7018         0.444673   
    278. A(O   7,Zr  4,O  10)           65.0066         0.449788   
    279. A(Zr  3,Zr  4,O  10)           34.8459         0.334150   
    280. A(O  30,Zr  4,O  31)           81.6317         0.516195   
    281. A(O  29,Zr  4,O  31)           74.1418         0.505455   
    282. A(O   7,Zr  4,O  31)           68.6391         0.460233   
    283. A(O  28,Zr  4,O  31)          126.7351         0.520300   
    284. A(O  10,Zr  4,O  31)          130.8796         0.476828   
    285. A(O   9,Zr  4,O  31)          134.9352         0.454970   
    286. A(Zr  3,Zr  4,O  31)          159.1940         0.341247   
    287. A(Zr  1,Zr  4,O  31)           94.0378         0.351004   
    288. A(O  29,Zr  4,O  30)          135.2328         0.534822   
    289. A(O  28,Zr  4,O  30)           81.9334         0.550713   
    290. A(O  10,Zr  4,O  30)           85.6046         0.504176   
    291. A(O   9,Zr  4,O  30)          143.0508         0.480776   
    292. A(O   7,Zr  4,O  30)           93.3074         0.486411   
    293. A(Zr  3,Zr  4,O   7)           91.5612         0.323660   
    294. A(Zr  3,Zr  4,O   9)           37.5657         0.320333   
    295. A(Zr  1,Zr  4,O  28)          126.9033         0.372174   
    296. A(O   9,Zr  4,O  29)           72.8023         0.470927   
    297. A(Zr  1,Zr  4,O   9)           96.7612         0.329281   
    298. A(O  28,Zr  4,O  29)           83.2642         0.539105   
    299. A(Zr  1,Zr  4,Zr  3)           71.6873         0.254615   
    300. A(Zr  3,Zr  4,O  30)          106.7492         0.359034   
    301. A(O   7,Zr  4,O  28)          162.4405         0.490229   
    302. A(Zr  1,Zr  4,O   7)           36.4870         0.332737   
    303. A(O  10,Zr  4,O  29)          138.2874         0.493738   
    304. A(O   9,Zr  4,O  28)           78.3031         0.484540   
    305. A(O   7,Zr  4,O   9)           96.2412         0.429454   
    306. A(Zr  1,Zr  4,O  30)           71.0526         0.369480   
    307. A(O  10,Zr  4,O  28)           97.6762         0.508164   
    308. A(Zr  3,Zr  4,O  28)           73.8626         0.361628   
    309. A(O   7,Zr  4,O  29)          111.3135         0.476419   
    310. A(Zr  1,Zr  4,O  29)          146.2784         0.362428   
    311. A(Zr  3,Zr  4,O  29)          109.1850         0.352245   
    312. A(Zr  1,Zr  4,O  10)           37.3104         0.343633   
    313. A(O  11,Zr  5,O  35)           99.2081         0.508682   
    314. A(O  34,Zr  5,O  35)           85.0524         0.544577   
    315. A(O  33,Zr  5,O  35)           81.8318         0.551199   
    316. A(O  32,Zr  5,O  35)          125.2889         0.519167   
    317. A(O   8,Zr  5,O  35)           78.1297         0.484279   
    318. A(O   6,Zr  5,O  35)          164.0259         0.495143   
    319. A(Zr  2,Zr  5,O  35)           74.4295         0.365398   
    320. A(O  33,Zr  5,O  34)          137.3529         0.537687   
    321. A(O  32,Zr  5,O  34)           73.8188         0.506592   
    322. A(O  11,Zr  5,O  34)          137.5157         0.496414   
    323. A(Zr  0,Zr  5,O  35)          128.5840         0.373120   
    324. A(O  32,Zr  5,O  33)           81.2410         0.512661   
    325. A(O   6,Zr  5,O  34)          107.8842         0.483270   
    326. A(Zr  2,Zr  5,O  34)          110.0890         0.357318   
    327. A(Zr  0,Zr  5,O  34)          143.0211         0.364815   
    328. A(O  11,Zr  5,O  33)           84.7713         0.502335   
    329. A(O   8,Zr  5,O  33)          141.5753         0.478301   
    330. A(O   6,Zr  5,O  33)           94.0105         0.489001   
    331. A(Zr  0,Zr  5,O  33)           70.9791         0.368824   
    332. A(O  11,Zr  5,O  32)          130.2527         0.473690   
    333. A(O   8,Zr  5,O  32)          136.8248         0.451321   
    334. A(O   6,Zr  5,O  32)           68.7221         0.461279   
    335. A(Zr  2,Zr  5,O  32)          160.2437         0.342352   
    336. A(Zr  0,Zr  5,O  32)           93.2203         0.349431   
    337. A(Zr  2,Zr  5,O   6)           91.9601         0.328203   
    338. A(Zr  0,Zr  5,Zr  2)           71.9203         0.256337   
    339. A(Zr  0,Zr  5,O   6)           36.4953         0.334887   
    340. A(O   8,Zr  5,O  34)           73.0210         0.472724   
    341. A(O   8,Zr  5,O  11)           66.7454         0.442490   
    342. A(O   6,Zr  5,O  11)           64.9638         0.452206   
    343. A(Zr  2,Zr  5,O  11)           34.9750         0.336177   
    344. A(Zr  0,Zr  5,O  11)           37.3366         0.343084   
    345. A(O   6,Zr  5,O   8)           96.3679         0.431086   
    346. A(Zr  2,Zr  5,O  33)          105.0775         0.361218   
    347. A(Zr  2,Zr  5,O   8)           37.8222         0.321805   
    348. A(Zr  0,Zr  5,O   8)           96.9224         0.328309   
    349. A(Zr  3,O   6,Zr  5)          135.8002         0.457906   
    350. A(Zr  0,O   6,Zr  5)          105.7078         0.459528   
    351. A(Zr  0,O   6,Zr  3)          110.6944         0.477889   
    352. A(Zr  2,O   7,Zr  4)          136.3567         0.451780   
    353. A(Zr  1,O   7,Zr  4)          105.4369         0.457248   
    354. A(Zr  1,O   7,Zr  2)          110.2677         0.475834   
    355. A(Zr  1,O   8,Zr  2)          105.0375         0.432795   
    356. A(Zr  2,O   8,Zr  5)          103.7363         0.430290   
    357. A(Zr  1,O   8,Zr  5)          131.2523         0.424380   
    358. A(Zr  3,O   9,Zr  4)          104.3867         0.431236   
    359. A(Zr  0,O   9,Zr  4)          130.7255         0.426720   
    360. A(Zr  0,O   9,Zr  3)          105.2653         0.433370   
    361. A(Zr  3,O  10,Zr  4)          109.7225         0.475552   
    362. A(Zr  1,O  10,Zr  4)          105.7694         0.459996   
    363. A(Zr  1,O  10,Zr  3)          142.5460         0.469481   
    364. A(Zr  2,O  11,Zr  5)          109.2820         0.476826   
    365. A(Zr  0,O  11,Zr  5)          105.6703         0.459127   
    366. A(Zr  0,O  11,Zr  2)          143.3825         0.471466   
    367. A(Zr  0,O  12,C  36)          125.0249         0.500757   
    368. A(Zr  0,O  13,C  37)          127.6665         0.504514   
    369. A(Zr  0,O  14,C  38)          135.0631         0.477269   
    370. A(Zr  0,O  15,C  39)          138.9273         0.506175   
    371. A(Zr  1,O  16,C  40)          138.8466         0.508460   
    372. A(C  40,O  16,Al 68)          100.3846         0.215874   
    373. A(Zr  1,O  16,Al 68)          107.7463         0.229119   
    374. A(Zr  1,O  17,C  41)          133.5998         0.476044   
    375. A(Zr  1,O  18,C  42)          127.2712         0.504658   
    376. A(C  42,O  18,Al 68)          126.0121         0.210363   
    377. A(Zr  1,O  18,Al 68)          105.9858         0.223335   
    378. A(Zr  1,O  19,C  43)          125.1585         0.501403   
    379. A(Zr  2,O  20,C  44)          132.4341         0.510268   
    380. A(Zr  2,O  21,C  38)          139.3635         0.478271   
    381. A(Zr  2,O  22,C  42)          129.7991         0.506382   
    382. A(Zr  2,O  23,C  45)          137.5825         0.480499   
    383. A(Zr  3,O  24,C  46)          137.2715         0.478256   
    384. A(Zr  3,O  25,C  37)          130.1363         0.505886   
    385. A(Zr  3,O  26,C  41)          139.6640         0.478466   
    386. A(Zr  3,O  27,C  47)          132.1094         0.510929   
    387. A(Zr  4,O  28,C  47)          131.6742         0.508343   
    388. A(Zr  4,O  29,C  39)          139.0474         0.495056   
    389. A(Zr  4,O  30,C  43)          127.6917         0.503151   
    390. A(Zr  4,O  31,C  45)          129.6951         0.477157   
    391. A(Zr  5,O  32,C  46)          128.6443         0.474756   
    392. A(Zr  5,O  33,C  36)          126.8761         0.502077   
    393. A(Zr  5,O  34,C  40)          140.0763         0.498688   
    394. A(C  40,O  34,Al 60)           95.3745         0.215220   
    395. A(Zr  5,O  34,Al 60)          111.7564         0.225255   
    396. A(C  44,O  35,Al 60)          110.2033         0.207410   
    397. A(Zr  5,O  35,Al 60)          110.0794         0.221100   
    398. A(Zr  5,O  35,C  44)          130.8081         0.509659   
    399. A(O  12,C  36,O  33)          126.5904         0.464011   
    400. A(O  33,C  36,H  58)          116.7231         0.363493   
    401. A(O  12,C  36,H  58)          116.6855         0.363615   
    402. A(O  13,C  37,O  25)          127.4231         0.464733   
    403. A(O  25,C  37,H  51)          116.2938         0.364080   
    404. A(O  13,C  37,H  51)          116.2830         0.364120   
    405. A(O  14,C  38,O  21)          130.0692         0.467233   
    406. A(O  21,C  38,H  50)          114.9399         0.366424   
    407. A(O  14,C  38,H  50)          114.9849         0.366534   
    408. A(O  15,C  39,O  29)          128.8953         0.468436   
    409. A(O  29,C  39,H  54)          115.5277         0.366583   
    410. A(O  15,C  39,H  54)          115.5705         0.366628   
    411. A(O  16,C  40,O  34)          128.9589         0.468662   
    412. A(O  34,C  40,H  56)          115.4944         0.366745   
    413. A(O  16,C  40,H  56)          115.5445         0.366853   
    414. A(O  17,C  41,O  26)          130.0427         0.467025   
    415. A(O  26,C  41,H  48)          114.9619         0.366263   
    416. A(O  17,C  41,H  48)          114.9914         0.366461   
    417. A(O  18,C  42,O  22)          127.3413         0.464526   
    418. A(O  22,C  42,H  49)          116.2746         0.363951   
    419. A(O  18,C  42,H  49)          116.3828         0.363947   
    420. A(O  30,C  43,H  52)          116.6790         0.363609   
    421. A(O  19,C  43,H  52)          116.6433         0.363736   
    422. A(O  19,C  43,O  30)          126.6764         0.464231   
    423. A(O  35,C  44,H  59)          116.1965         0.364814   
    424. A(O  20,C  44,H  59)          116.2355         0.364784   
    425. A(O  20,C  44,O  35)          127.5651         0.466022   
    426. A(O  31,C  45,H  55)          115.1056         0.365850   
    427. A(O  23,C  45,H  55)          115.1395         0.365443   
    428. A(O  23,C  45,O  31)          129.7535         0.466001   
    429. A(O  32,C  46,H  57)          115.0430         0.365777   
    430. A(O  24,C  46,H  57)          115.1306         0.365322   
    431. A(O  24,C  46,O  32)          129.8253         0.465775   
    432. A(O  28,C  47,H  53)          116.1962         0.364935   
    433. A(O  27,C  47,H  53)          116.2382         0.364931   
    434. A(O  27,C  47,O  28)          127.5655         0.466232   
    435. A(O  34,Al 60,O  35)           47.5551         0.128509   
    436. A(O  35,Al 60,Al 72)           70.1108         0.159967   
    437. A(O  35,Al 60,H  71)           56.1350         0.193341   
    438. A(O  35,Al 60,H  66)           59.5529         0.187158   
    439. A(O  35,Al 60,H  65)          118.9593         0.193462   
    440. A(O  35,Al 60,H  64)          129.1774         0.187171   
    441. A(O  35,Al 60,Al 61)          126.3733         0.157618   
    442. A(O  34,Al 60,Al 72)           81.7060         0.164404   
    443. A(O  34,Al 60,H  71)           50.8607         0.199863   
    444. A(O  34,Al 60,H  66)           76.4838         0.193294   
    445. A(O  34,Al 60,H  65)          160.8391         0.199992   
    446. A(O  34,Al 60,H  64)           85.0925         0.193308   
    447. A(O  34,Al 60,Al 61)           84.5705         0.161908   
    448. A(H  71,Al 60,Al 72)          123.7064         0.288136   
    449. A(H  65,Al 60,Al 72)          107.7598         0.288368   
    450. A(H  64,Al 60,Al 72)           88.4082         0.276362   
    451. A(Al 61,Al 60,Al 72)           82.1510         0.219959   
    452. A(H  66,Al 60,H  71)          114.1856         0.364433   
    453. A(H  65,Al 60,H  71)          111.5587         0.382123   
    454. A(H  64,Al 60,H  71)          111.9262         0.364471   
    455. A(Al 61,Al 60,H  71)          115.7877         0.281544   
    456. A(H  65,Al 60,H  66)          109.7784         0.364753   
    457. A(H  64,Al 60,H  66)           97.3506         0.348148   
    458. A(Al 61,Al 60,H  66)           91.1651         0.270134   
    459. A(H  64,Al 60,H  65)          111.2746         0.364792   
    460. A(Al 61,Al 60,H  65)          112.8025         0.281768   
    461. A(Al 61,Al 60,H  64)            6.2667         0.270160   
    462. A(H  66,Al 60,Al 72)           10.8427         0.276336   
    463. A(H  67,Al 61,Al 68)          112.8485         0.281507   
    464. A(H  64,Al 61,Al 68)          100.0565         0.270084   
    465. A(H  63,Al 61,Al 68)          111.5039         0.281438   
    466. A(H  62,Al 61,Al 68)            6.0050         0.270105   
    467. A(Al 60,Al 61,Al 68)           94.2187         0.215559   
    468. A(H  64,Al 61,H  67)          109.0679         0.364584   
    469. A(H  63,Al 61,H  67)          111.8385         0.381863   
    470. A(H  62,Al 61,H  67)          108.2613         0.364615   
    471. A(Al 60,Al 61,H  67)          113.8203         0.281605   
    472. A(H  63,Al 61,H  64)          110.9245         0.364485   
    473. A(H  62,Al 61,H  64)          105.5621         0.348261   
    474. A(Al 60,Al 61,H  64)            6.2671         0.270176   
    475. A(H  62,Al 61,H  63)          110.9536         0.364517   
    476. A(Al 60,Al 61,H  63)          111.4817         0.281536   
    477. A(Al 60,Al 61,H  62)           99.8212         0.270197   
    478. A(Al 61,H  62,Al 68)          167.9878         0.348427   
    479. A(Al 60,H  64,Al 61)          167.4662         0.348208   
    480. A(Al 60,H  66,Al 72)          158.3065         0.348379   
    481. A(O  18,Al 68,H  75)           62.4729         0.196163   
    482. A(O  18,Al 68,Al 72)           63.4028         0.161709   
    483. A(O  18,Al 68,H  70)          120.5830         0.196238   
    484. A(O  18,Al 68,H  69)           53.1472         0.189810   
    485. A(O  18,Al 68,H  62)          125.9470         0.189900   
    486. A(O  18,Al 68,Al 61)          122.5804         0.159438   
    487. A(O  16,Al 68,H  75)           53.1749         0.200395   
    488. A(O  16,Al 68,Al 72)           79.7487         0.164581   
    489. A(O  16,Al 68,H  70)          162.9054         0.200473   
    490. A(O  16,Al 68,H  69)           75.0596         0.193791   
    491. A(O  16,Al 68,H  62)           83.4606         0.193884   
    492. A(O  16,Al 68,Al 61)           82.7468         0.162219   
    493. A(Al 72,Al 68,H  75)          123.7120         0.287655   
    494. A(H  70,Al 68,H  75)          111.3718         0.381992   
    495. A(H  69,Al 68,H  75)          114.4957         0.364431   
    496. A(H  62,Al 68,H  75)          111.8388         0.364675   
    497. A(Al 61,Al 68,H  75)          115.5134         0.281447   
    498. A(H  70,Al 68,Al 72)          108.2177         0.287793   
    499. A(H  69,Al 68,Al 72)           10.6139         0.275878   
    500. A(H  62,Al 68,Al 72)           88.0971         0.276044   
    501. A(O  16,Al 68,O  18)           48.6171         0.129772   
    502. A(Al 61,Al 68,Al 72)           82.0978         0.219575   
    503. A(H  69,Al 68,H  70)          110.0257         0.364623   
    504. A(H  62,Al 68,H  70)          111.3992         0.364867   
    505. A(Al 61,Al 68,H  70)          112.9285         0.281582   
    506. A(H  62,Al 68,H  69)           96.9404         0.348333   
    507. A(Al 61,Al 68,H  69)           91.0033         0.270039   
    508. A(Al 61,Al 68,H  62)            6.0072         0.270199   
    509. A(Al 68,H  69,Al 72)          158.7668         0.348286   
    510. A(H  73,Al 72,H  74)          108.8333         0.382319   
    511. A(H  69,Al 72,H  74)          114.0562         0.364897   
    512. A(Al 68,Al 72,H  74)          124.4871         0.287851   
    513. A(H  66,Al 72,H  74)          114.1861         0.364992   
    514. A(Al 60,Al 72,H  74)          124.8240         0.288335   
    515. A(H  69,Al 72,H  73)          105.9970         0.364853   
    516. A(Al 68,Al 72,H  73)           99.0314         0.287819   
    517. A(H  66,Al 72,H  73)          105.8265         0.364947   
    518. A(Al 60,Al 72,H  73)           98.6417         0.288302   
    519. A(Al 68,Al 72,H  69)           10.6193         0.276010   
    520. A(H  66,Al 72,H  69)          107.3262         0.348557   
    521. A(Al 60,Al 72,H  69)          102.2322         0.276465   
    522. A(H  66,Al 72,Al 68)          102.2499         0.276074   
    523. A(Al 60,Al 72,Al 68)           95.7082         0.224114   
    524. A(Al 60,Al 72,H  66)           10.8508         0.276529   
    525. D(Zr  5,Zr  2,Zr  1,O   7)    119.1713         0.010000   
    526. D(Zr  5,Zr  2,Zr  1,Zr  4)    102.8395         0.010000   
    527. D(O   7,Zr  2,Zr  1,Zr  4)    -16.3318         0.010000   
    528. D(Zr  4,Zr  3,Zr  0,O   6)   -119.7667         0.010000   
    529. D(Zr  4,Zr  3,Zr  0,Zr  5)   -103.4852         0.010000   
    530. D(O   6,Zr  3,Zr  0,Zr  5)     16.2814         0.010000   
    531. D(Zr  3,Zr  4,Zr  1,Zr  2)   -104.5432         0.010000   
    532. D(Zr  3,Zr  4,Zr  1,O   7)   -119.7190         0.010000   
    533. D(O   7,Zr  4,Zr  1,Zr  2)     15.1757         0.010000   
    534. D(O   7,Zr  4,Zr  3,Zr  0)     73.7568         0.010000   
    535. D(Zr  1,Zr  4,Zr  3,O   6)     75.3255         0.010000   
    536. D(Zr  1,Zr  4,Zr  3,Zr  0)    104.8624         0.010000   
    537. D(Zr  2,Zr  5,Zr  0,O   6)    120.1161         0.010000   
    538. D(O   6,Zr  5,Zr  0,Zr  3)    -15.0960         0.010000   
    539. D(Zr  2,Zr  5,Zr  0,Zr  3)    105.0202         0.010000   
    540. D(Zr  0,Zr  5,Zr  2,Zr  1)   -104.3895         0.010000   
    541. D(O   6,Zr  5,Zr  2,Zr  1)    -73.4073         0.010000   
    542. D(Zr  0,Zr  5,Zr  2,O   7)    -74.5866         0.010000   
    543. D(Zr  0,O   6,Zr  5,O   8)    -93.0414         0.010000   
    544. D(Zr  3,O   6,Zr  5,Zr  0)    144.6617         0.010000   
    545. D(Zr  0,O   6,Zr  5,Zr  2)    -55.3643         0.010000   
    546. D(Zr  5,O   6,Zr  3,Zr  0)   -143.4727         0.010000   
    547. D(Zr  5,O   6,Zr  0,Zr  3)    154.4656         0.010000   
    548. D(Zr  3,O   6,Zr  0,O   9)    -22.2321         0.010000   
    549. D(Zr  0,O   6,Zr  3,O   9)     22.3713         0.010000   
    550. D(Zr  0,O   6,Zr  3,Zr  4)     54.8457         0.010000   
    551. D(Zr  3,O   6,Zr  0,Zr  5)   -154.4656         0.010000   
    552. D(Zr  4,O   7,Zr  1,Zr  2)   -154.4560         0.010000   
    553. D(Zr  1,O   7,Zr  2,Zr  5)    -55.5887         0.010000   
    554. D(Zr  2,O   7,Zr  1,O   8)     22.4877         0.010000   
    555. D(Zr  2,O   7,Zr  1,Zr  4)    154.4560         0.010000   
    556. D(Zr  2,O   7,Zr  4,Zr  1)   -144.1194         0.010000   
    557. D(Zr  1,O   7,Zr  4,O   9)     92.9407         0.010000   
    558. D(Zr  1,O   7,Zr  4,Zr  3)     55.5673         0.010000   
    559. D(Zr  4,O   7,Zr  2,Zr  1)    142.9693         0.010000   
    560. D(Zr  1,O   7,Zr  2,O   8)    -22.7062         0.010000   
    561. D(Zr  1,O   8,Zr  5,Zr  2)   -124.7259         0.010000   
    562. D(Zr  2,O   8,Zr  5,Zr  0)     48.2255         0.010000   
    563. D(Zr  1,O   8,Zr  5,Zr  0)    -76.5004         0.010000   
    564. D(Zr  5,O   8,Zr  2,Zr  1)   -140.2220         0.010000   
    565. D(Zr  1,O   8,Zr  2,O   7)     21.0589         0.010000   
    566. D(Zr  1,O   8,Zr  2,Zr  5)    140.2220         0.010000   
    567. D(Zr  5,O   8,Zr  1,Zr  2)    124.2400         0.010000   
    568. D(Zr  2,O   8,Zr  1,O   7)    -21.2624         0.010000   
    569. D(Zr  2,O   8,Zr  1,Zr  4)    -48.6801         0.010000   
    570. D(Zr  0,O   9,Zr  4,Zr  3)    125.4153         0.010000   
    571. D(Zr  3,O   9,Zr  4,Zr  1)    -47.6922         0.010000   
    572. D(Zr  0,O   9,Zr  3,O   6)    -20.7821         0.010000   
    573. D(Zr  0,O   9,Zr  4,Zr  1)     77.7231         0.010000   
    574. D(Zr  4,O   9,Zr  3,Zr  0)    140.1924         0.010000   
    575. D(Zr  4,O   9,Zr  0,Zr  3)   -125.0862         0.010000   
    576. D(Zr  3,O   9,Zr  0,Zr  5)     47.9641         0.010000   
    577. D(Zr  0,O   9,Zr  3,Zr  4)   -140.1924         0.010000   
    578. D(Zr  3,O   9,Zr  0,O   6)     20.8693         0.010000   
    579. D(Zr  1,O  10,Zr  4,O   7)    -31.5952         0.010000   
    580. D(Zr  1,O  10,Zr  4,Zr  3)   -167.8310         0.010000   
    581. D(Zr  4,O  10,Zr  3,Zr  0)    -60.6110         0.010000   
    582. D(Zr  1,O  10,Zr  3,Zr  4)    160.5134         0.010000   
    583. D(Zr  1,O  10,Zr  3,Zr  0)     99.9024         0.010000   
    584. D(Zr  4,O  10,Zr  1,Zr  2)     61.5103         0.010000   
    585. D(Zr  3,O  10,Zr  1,Zr  4)   -160.9557         0.010000   
    586. D(Zr  3,O  10,Zr  4,Zr  1)    167.8310         0.010000   
    587. D(Zr  3,O  10,Zr  1,Zr  2)    -99.4455         0.010000   
    588. D(Zr  2,O  11,Zr  5,Zr  0)   -168.9026         0.010000   
    589. D(Zr  0,O  11,Zr  5,Zr  2)    168.9026         0.010000   
    590. D(Zr  5,O  11,Zr  2,Zr  1)     61.7909         0.010000   
    591. D(Zr  0,O  11,Zr  2,Zr  5)   -161.8986         0.010000   
    592. D(Zr  0,O  11,Zr  2,Zr  1)   -100.1077         0.010000   
    593. D(Zr  5,O  11,Zr  0,Zr  3)    -61.2918         0.010000   
    594. D(Zr  0,O  11,Zr  5,O   6)     31.7193         0.010000   
    595. D(Zr  2,O  11,Zr  0,Zr  5)    162.2664         0.010000   
    596. D(Zr  2,O  11,Zr  0,Zr  3)    100.9746         0.010000   
    597. D(C  36,O  12,Zr  0,Zr  5)     32.0386         0.010000   
    598. D(C  36,O  12,Zr  0,Zr  3)     95.6683         0.010000   
    599. D(C  37,O  13,Zr  0,Zr  5)    -20.9535         0.010000   
    600. D(C  37,O  13,Zr  0,Zr  3)     26.4806         0.010000   
    601. D(C  38,O  14,Zr  0,Zr  5)     66.3871         0.010000   
    602. D(C  38,O  14,Zr  0,Zr  3)     34.2926         0.010000   
    603. D(C  39,O  15,Zr  0,Zr  5)     62.0279         0.010000   
    604. D(C  39,O  15,Zr  0,Zr  3)    -23.5413         0.010000   
    605. D(Al 68,O  16,Zr  1,Zr  2)    -98.5315         0.010000   
    606. D(C  40,O  16,Zr  1,Zr  4)    -54.0125         0.010000   
    607. D(C  40,O  16,Zr  1,Zr  2)     32.2946         0.010000   
    608. D(C  41,O  17,Zr  1,Zr  4)    -69.7845         0.010000   
    609. D(C  41,O  17,Zr  1,Zr  2)    -37.6047         0.010000   
    610. D(Al 68,O  18,Zr  1,Zr  2)    141.5050         0.010000   
    611. D(C  42,O  18,Zr  1,Zr  4)     18.8362         0.010000   
    612. D(C  42,O  18,Zr  1,Zr  2)    -29.0955         0.010000   
    613. D(C  43,O  19,Zr  1,Zr  4)    -30.8297         0.010000   
    614. D(C  43,O  19,Zr  1,Zr  2)    -95.2507         0.010000   
    615. D(C  44,O  20,Zr  2,Zr  5)      6.3435         0.010000   
    616. D(C  44,O  20,Zr  2,Zr  1)    -54.1625         0.010000   
    617. D(C  38,O  21,Zr  2,Zr  5)    -35.5203         0.010000   
    618. D(C  38,O  21,Zr  2,Zr  1)     17.3119         0.010000   
    619. D(C  42,O  22,Zr  2,Zr  5)     24.6972         0.010000   
    620. D(C  42,O  22,Zr  2,Zr  1)    -25.4342         0.010000   
    621. D(C  45,O  23,Zr  2,Zr  5)    -70.5263         0.010000   
    622. D(C  45,O  23,Zr  2,Zr  1)      4.1440         0.010000   
    623. D(C  46,O  24,Zr  3,Zr  4)     68.0876         0.010000   
    624. D(C  46,O  24,Zr  3,Zr  0)     -4.5408         0.010000   
    625. D(C  37,O  25,Zr  3,Zr  4)    -24.8501         0.010000   
    626. D(C  37,O  25,Zr  3,Zr  0)     25.9959         0.010000   
    627. D(C  41,O  26,Zr  3,Zr  4)     29.8158         0.010000   
    628. D(C  41,O  26,Zr  3,Zr  0)    -24.8843         0.010000   
    629. D(C  47,O  27,Zr  3,Zr  4)     -8.0347         0.010000   
    630. D(C  47,O  27,Zr  3,Zr  0)     51.6182         0.010000   
    631. D(C  47,O  28,Zr  4,Zr  3)     -8.5037         0.010000   
    632. D(C  47,O  28,Zr  4,Zr  1)     42.7176         0.010000   
    633. D(C  39,O  29,Zr  4,Zr  3)     36.9624         0.010000   
    634. D(C  39,O  29,Zr  4,Zr  1)    -48.5665         0.010000   
    635. D(C  43,O  30,Zr  4,Zr  3)    -97.5257         0.010000   
    636. D(C  43,O  30,Zr  4,Zr  1)    -34.2846         0.010000   
    637. D(C  45,O  31,Zr  4,Zr  3)    -28.8188         0.010000   
    638. D(C  45,O  31,Zr  4,Zr  1)    -74.3116         0.010000   
    639. D(C  46,O  32,Zr  5,Zr  2)     35.4200         0.010000   
    640. D(C  46,O  32,Zr  5,Zr  0)     75.6990         0.010000   
    641. D(C  36,O  33,Zr  5,Zr  2)    100.0916         0.010000   
    642. D(C  36,O  33,Zr  5,Zr  0)     35.7394         0.010000   
    643. D(Al 60,O  34,Zr  5,Zr  0)    178.7016         0.010000   
    644. D(C  40,O  34,Zr  5,Zr  2)    -36.9993         0.010000   
    645. D(C  40,O  34,Zr  5,Zr  0)     49.3522         0.010000   
    646. D(Al 60,O  35,Zr  5,Zr  0)    176.7058         0.010000   
    647. D(C  44,O  35,Zr  5,Zr  2)     10.5921         0.010000   
    648. D(C  44,O  35,Zr  5,Zr  0)    -40.0287         0.010000   
    649. D(O  12,C  36,O  33,Zr  5)    -27.9707         0.045565   
    650. D(H  58,C  36,O  12,Zr  0)    158.7819         0.045765   
    651. D(O  33,C  36,O  12,Zr  0)    -20.8428         0.045765   
    652. D(H  58,C  36,O  33,Zr  5)    152.4047         0.045565   
    653. D(H  51,C  37,O  25,Zr  3)    161.6746         0.046066   
    654. D(O  13,C  37,O  25,Zr  3)    -18.2873         0.046066   
    655. D(H  51,C  37,O  13,Zr  0)    159.6494         0.046132   
    656. D(O  25,C  37,O  13,Zr  0)    -20.3886         0.046132   
    657. D(H  50,C  38,O  21,Zr  2)    173.9497         0.047537   
    658. D(O  14,C  38,O  21,Zr  2)     -5.1012         0.047537   
    659. D(H  50,C  38,O  14,Zr  0)    164.6264         0.047724   
    660. D(O  21,C  38,O  14,Zr  0)    -16.3231         0.047724   
    661. D(H  54,C  39,O  29,Zr  4)   -178.7126         0.048344   
    662. D(O  15,C  39,O  29,Zr  4)      2.2666         0.048344   
    663. D(H  54,C  39,O  15,Zr  0)    169.7245         0.048420   
    664. D(O  29,C  39,O  15,Zr  0)    -11.2551         0.048420   
    665. D(H  56,C  40,O  34,Zr  5)   -171.9722         0.067111   
    666. D(O  16,C  40,O  34,Al 60)   -126.3666         0.067111   
    667. D(O  16,C  40,O  34,Zr  5)      7.4646         0.067111   
    668. D(H  56,C  40,O  16,Zr  1)    175.1680         0.067371   
    669. D(O  34,C  40,O  16,Al 68)    128.6188         0.067371   
    670. D(O  34,C  40,O  16,Zr  1)     -4.2686         0.067371   
    671. D(H  48,C  41,O  26,Zr  3)   -169.5804         0.047334   
    672. D(O  17,C  41,O  26,Zr  3)      9.6494         0.047334   
    673. D(H  48,C  41,O  17,Zr  1)   -162.8345         0.047669   
    674. D(O  26,C  41,O  17,Zr  1)     17.9359         0.047669   
    675. D(H  49,C  42,O  22,Zr  2)   -164.0756         0.059642   
    676. D(O  18,C  42,O  22,Zr  2)     15.4978         0.059642   
    677. D(H  49,C  42,O  18,Zr  1)   -155.8017         0.071203   
    678. D(O  22,C  42,O  18,Al 68)   -144.1829         0.071203   
    679. D(O  22,C  42,O  18,Zr  1)     24.6253         0.071203   
    680. D(H  52,C  43,O  30,Zr  4)   -153.7893         0.045693   
    681. D(O  19,C  43,O  30,Zr  4)     26.6317         0.045693   
    682. D(H  52,C  43,O  19,Zr  1)   -159.2374         0.045901   
    683. D(O  30,C  43,O  19,Zr  1)     20.3418         0.045901   
    684. D(H  59,C  44,O  35,Zr  5)    169.6673         0.068909   
    685. D(O  20,C  44,O  35,Al 60)    132.2501         0.068909   
    686. D(O  20,C  44,O  35,Zr  5)    -10.9814         0.068909   
    687. D(H  59,C  44,O  20,Zr  2)    177.8611         0.060794   
    688. D(O  35,C  44,O  20,Zr  2)     -1.4900         0.060794   
    689. D(H  55,C  45,O  31,Zr  4)   -162.8353         0.047211   
    690. D(O  23,C  45,O  31,Zr  4)     16.7105         0.047211   
    691. D(H  55,C  45,O  23,Zr  2)   -149.9079         0.046532   
    692. D(O  31,C  45,O  23,Zr  2)     30.5465         0.046532   
    693. D(H  57,C  46,O  32,Zr  5)    162.9735         0.047113   
    694. D(O  24,C  46,O  32,Zr  5)    -16.6127         0.047113   
    695. D(H  57,C  46,O  24,Zr  3)    149.3500         0.046355   
    696. D(O  32,C  46,O  24,Zr  3)    -31.0640         0.046355   
    697. D(H  53,C  47,O  28,Zr  4)   -173.3893         0.047015   
    698. D(O  27,C  47,O  28,Zr  4)      6.6791         0.047015   
    699. D(H  53,C  47,O  27,Zr  3)   -174.3608         0.047009   
    700. D(O  28,C  47,O  27,Zr  3)      5.5708         0.047009   
    701. D(H  64,Al 60,O  35,Zr  5)     43.0068         0.010000   
    702. D(Al 61,Al 60,O  35,C  44)   -101.0576         0.010000   
    703. D(Al 61,Al 60,O  35,Zr  5)     50.1008         0.010000   
    704. D(H  64,Al 60,O  34,Zr  5)   -176.0592         0.010000   
    705. D(Al 61,Al 60,O  34,C  40)    -19.6873         0.010000   
    706. D(Al 61,Al 60,O  34,Zr  5)   -169.7888         0.010000   
    707. D(H  63,Al 61,Al 60,H  64)    -86.1177         0.010000   
    708. D(H  62,Al 61,Al 60,H  65)   -126.2486         0.010000   
    709. D(H  62,Al 61,Al 60,H  64)    156.6145         0.010000   
    710. D(Al 68,H  62,Al 61,H  63)    -96.4143         0.010000   
    711. D(Al 68,H  62,Al 61,Al 60)     21.2479         0.010000   
    712. D(Al 60,H  64,Al 61,H  63)     96.3065         0.010000   
    713. D(Al 60,H  64,Al 61,H  62)    -23.9527         0.010000   
    714. D(Al 61,H  64,Al 60,H  66)      9.2794         0.010000   
    715. D(Al 61,H  64,Al 60,H  65)   -105.3262         0.010000   
    716. D(Al 72,H  66,Al 60,H  64)    -34.6729         0.010000   
    717. D(Al 72,H  66,Al 60,Al 61)    -33.6642         0.010000   
    718. D(H  70,Al 68,H  62,Al 61)    105.9167         0.010000   
    719. D(H  69,Al 68,Al 61,Al 60)     12.2396         0.010000   
    720. D(H  62,Al 68,Al 61,H  63)     85.9108         0.010000   
    721. D(H  62,Al 68,Al 61,Al 60)   -159.0187         0.010000   
    722. D(H  62,Al 68,O  18,Zr  1)    -56.1977         0.010000   
    723. D(Al 61,Al 68,O  18,C  42)    108.5336         0.010000   
    724. D(Al 61,Al 68,O  18,Zr  1)    -62.2207         0.010000   
    725. D(H  62,Al 68,O  16,Zr  1)    174.8804         0.010000   
    726. D(H  69,Al 68,H  62,Al 61)     -8.8053         0.010000   
    727. D(Al 61,Al 68,O  16,C  40)     19.2870         0.010000   
    728. D(Al 61,Al 68,O  16,Zr  1)    168.8722         0.010000   
    729. D(Al 72,H  69,Al 68,H  62)     33.7785         0.010000   
    730. D(Al 72,H  69,Al 68,Al 61)     32.8604         0.010000   
    731. D(H  66,Al 72,H  69,Al 68)    -62.7552         0.010000   
    732. D(H  66,Al 72,Al 68,Al 61)    -27.0736         0.010000   
    733. D(Al 60,Al 72,Al 68,H  62)    -17.9949         0.010000   
    734. D(Al 60,Al 72,Al 68,Al 61)    -18.3037         0.010000   
    735. D(H  69,Al 72,H  66,Al 60)     63.3477         0.010000   
    736. D(Al 68,Al 72,H  66,Al 60)     53.6962         0.010000   
    737. D(Al 68,Al 72,Al 60,Al 61)     18.3048         0.010000   
    738. D(Al 60,Al 72,H  69,Al 68)    -52.8419         0.010000   
    739. D(H  66,Al 72,Al 60,H  64)    145.6370         0.010000   
    740. D(H  66,Al 72,Al 60,Al 61)    145.9822         0.010000   
    -----------------------------------------------------------------

Number of atoms                         .... 76
Number of degrees of freedom            .... 740


         *************************************************************
         *                GEOMETRY OPTIMIZATION CYCLE   1            *
         *************************************************************
---------------------------------
CARTESIAN COORDINATES (ANGSTROEM)
---------------------------------
  Zr    -0.366953    2.099343    1.466764
  Zr     0.469558   -2.243363   -1.345132
  Zr     1.942023   -1.142131    1.549186
  Zr    -1.868120    0.973225   -1.407448
  Zr     1.528274    0.927598   -1.791329
  Zr    -1.442719   -1.064929    1.919878
  O     -1.617495    0.651270    0.641360
  O      1.709342   -0.797459   -0.507781
  O      0.144023   -2.045882    0.792238
  O     -0.067154    1.890454   -0.669712
  O     -0.208835   -0.251412   -1.635516
  O      0.303397    0.103607    1.751696
  O     -1.833391    2.166821    2.819319
  O     -1.384228    3.626397    0.706473
  O      0.748520    1.966292    3.207622
  O      1.253283    3.177979    1.066052
  O     -1.169063   -3.293574   -0.974917
  O     -0.630899   -2.110521   -3.099867
  O      1.494004   -3.764331   -0.584475
  O      1.948180   -2.315913   -2.681820
  O      1.525699   -2.291222    3.096164
  O      2.308114    0.211743    3.069304
  O      2.956297   -2.713536    0.898263
  O      3.594443   -0.126461    0.858827
  O     -3.539763    0.006003   -0.675781
  O     -2.846429    2.578120   -0.778496
  O     -2.253230   -0.421471   -2.883804
  O     -1.478485    2.095946   -2.978649
  O      0.843747    2.233672   -3.108838
  O      2.316235    2.573013   -0.925115
  O      1.904614   -0.117129   -3.441408
  O      3.513136    0.473068   -1.414133
  O     -3.433408   -0.557417    1.606751
  O     -1.757428   -0.026854    3.590290
  O     -2.276549   -2.627854    0.972069
  O     -0.798920   -2.410606    3.211747
  C     -2.101101    1.226256    3.678669
  C     -2.437974    3.579260   -0.054887
  C      1.779773    1.277553    3.586666
  C      2.122751    3.317845    0.116628
  C     -2.126527   -3.331542   -0.104584
  C     -1.695339   -1.452552   -3.440346
  C      2.567725   -3.703351    0.148186
  C      2.238689   -1.372462   -3.529980
  C      0.403799   -2.699845    3.607708
  C      4.103961    0.209708   -0.288741
  C     -4.036720   -0.294553    0.487594
  C     -0.363677    2.529297   -3.484319
  H     -2.190318   -1.813247   -4.336032
  H      3.212574   -4.584040    0.137988
  H      2.269005    1.641231    4.484088
  H     -3.048718    4.482867   -0.091167
  H      2.816597   -1.665307   -4.409425
  H     -0.451290    3.222765   -4.320711
  H      2.791125    4.168502    0.214547
  H      5.187466    0.288636   -0.307372
  H     -2.917585   -4.046423   -0.309662
  H     -5.121660   -0.338399    0.528580
  H     -2.666357    1.519201    4.566469
  H      0.480426   -3.371562    4.463040
  Al    -2.657005   -5.217378    2.983400
  Al    -3.392083   -6.870653    0.200346
  H     -1.945862   -6.708198   -0.617817
  H     -3.709580   -8.406488    0.499219
  H     -3.201953   -6.013698    1.620655
  H     -2.925882   -6.074942    4.301196
  H     -1.029185   -5.247578    2.611892
  H     -4.539930   -6.185941   -0.672099
  Al    -0.368944   -6.486919   -1.117422
  H      0.234162   -5.956883    0.346859
  H      0.313788   -7.871620   -1.520560
  H     -3.273543   -3.749589    3.102706
  Al     0.411398   -5.827889    2.001524
  H      0.545062   -7.321198    2.547157
  H      1.695420   -4.996979    2.455185
  H     -0.265052   -5.420678   -2.301086

----------------------------
CARTESIAN COORDINATES (A.U.)
----------------------------
  NO LB      ZA    FRAG     MASS         X           Y           Z
   0 Zr   12.0000*   0    91.220   -0.693440    3.967183    2.771782
   1 Zr   12.0000*   0    91.220    0.887336   -4.239342   -2.541931
   2 Zr   12.0000*   0    91.220    3.669892   -2.158314    2.927536
   3 Zr   12.0000*   0    91.220   -3.530236    1.839129   -2.659691
   4 Zr   12.0000*   0    91.220    2.888020    1.752906   -3.385121
   5 Zr   12.0000*   0    91.220   -2.726343   -2.012424    3.628044
   6 O     8.0000    0    15.999   -3.056623    1.230722    1.211995
   7 O     8.0000    0    15.999    3.230188   -1.506979   -0.959566
   8 O     8.0000    0    15.999    0.272164   -3.866157    1.497112
   9 O     8.0000    0    15.999   -0.126903    3.572440   -1.265572
  10 O     8.0000    0    15.999   -0.394640   -0.475100   -3.090678
  11 O     8.0000    0    15.999    0.573337    0.195788    3.310225
  12 O     8.0000    0    15.999   -3.464607    4.094698    5.327741
  13 O     8.0000    0    15.999   -2.615812    6.852897    1.335040
  14 O     8.0000    0    15.999    1.414498    3.715754    6.061527
  15 O     8.0000    0    15.999    2.368361    6.005510    2.014546
  16 O     8.0000    0    15.999   -2.209209   -6.223953   -1.842326
  17 O     8.0000    0    15.999   -1.192226   -3.988307   -5.857900
  18 O     8.0000    0    15.999    2.823259   -7.113555   -1.104498
  19 O     8.0000    0    15.999    3.681527   -4.376441   -5.067906
  20 O     8.0000    0    15.999    2.883152   -4.329782    5.850901
  21 O     8.0000    0    15.999    4.361703    0.400136    5.800143
  22 O     8.0000    0    15.999    5.586592   -5.127840    1.697471
  23 O     8.0000    0    15.999    6.792513   -0.238976    1.622948
  24 O     8.0000    0    15.999   -6.689183    0.011344   -1.277041
  25 O     8.0000    0    15.999   -5.378972    4.871942   -1.471145
  26 O     8.0000    0    15.999   -4.257987   -0.796464   -5.449600
  27 O     8.0000    0    15.999   -2.793932    3.960764   -5.628831
  28 O     8.0000    0    15.999    1.594452    4.221028   -5.874852
  29 O     8.0000    0    15.999    4.377049    4.862290   -1.748213
  30 O     8.0000    0    15.999    3.599199   -0.221342   -6.503318
  31 O     8.0000    0    15.999    6.638864    0.893969   -2.672323
  32 O     8.0000    0    15.999   -6.488201   -1.053365    3.036318
  33 O     8.0000    0    15.999   -3.321058   -0.050746    6.784665
  34 O     8.0000    0    15.999   -4.302053   -4.965925    1.836944
  35 O     8.0000    0    15.999   -1.509740   -4.555386    6.069323
  36 C     6.0000    0    12.011   -3.970506    2.317288    6.951678
  37 C     6.0000    0    12.011   -4.607103    6.763821   -0.103722
  38 C     6.0000    0    12.011    3.363284    2.414225    6.777817
  39 C     6.0000    0    12.011    4.011418    6.269818    0.220396
  40 C     6.0000    0    12.011   -4.018553   -6.295702   -0.197636
  41 C     6.0000    0    12.011   -3.203726   -2.744926   -6.501312
  42 C     6.0000    0    12.011    4.852297   -6.998319    0.280032
  43 C     6.0000    0    12.011    4.230509   -2.593578   -6.670695
  44 C     6.0000    0    12.011    0.763070   -5.101968    6.817580
  45 C     6.0000    0    12.011    7.755362    0.396291   -0.545641
  46 C     6.0000    0    12.011   -7.628295   -0.556625    0.921419
  47 C     6.0000    0    12.011   -0.687250    4.779679   -6.584409
  48 H     1.0000    0     1.008   -4.139102   -3.426541   -8.193913
  49 H     1.0000    0     1.008    6.070886   -8.662579    0.260759
  50 H     1.0000    0     1.008    4.287797    3.101476    8.473698
  51 H     1.0000    0     1.008   -5.761243    8.471391   -0.172280
  52 H     1.0000    0     1.008    5.322597   -3.146974   -8.332605
  53 H     1.0000    0     1.008   -0.852815    6.090142   -8.164961
  54 H     1.0000    0     1.008    5.274462    7.877326    0.405436
  55 H     1.0000    0     1.008    9.802890    0.545443   -0.580850
  56 H     1.0000    0     1.008   -5.513436   -7.646632   -0.585177
  57 H     1.0000    0     1.008   -9.678535   -0.639481    0.998872
  58 H     1.0000    0     1.008   -5.038685    2.870873    8.629376
  59 H     1.0000    0     1.008    0.907874   -6.371329    8.433923
  60 Al   13.0000    0    26.982   -5.021012   -9.859415    5.637809
  61 Al   13.0000    0    26.982   -6.410109  -12.983653    0.378599
  62 H     1.0000    0     1.008   -3.677147  -12.676657   -1.167506
  63 H     1.0000    0     1.008   -7.010090  -15.885960    0.943388
  64 H     1.0000    0     1.008   -6.050814  -11.364242    3.062594
  65 H     1.0000    0     1.008   -5.529115  -11.479977    8.128082
  66 H     1.0000    0     1.008   -1.944878   -9.916485    4.935761
  67 H     1.0000    0     1.008   -8.579224  -11.689734   -1.270083
  68 Al   13.0000    0    26.982   -0.697204  -12.258500   -2.111621
  69 H     1.0000    0     1.008    0.442502  -11.256877    0.655469
  70 H     1.0000    0     1.008    0.592973  -14.875207   -2.873441
  71 H     1.0000    0     1.008   -6.186100   -7.085696    5.863264
  72 Al   13.0000    0    26.982    0.777429  -11.013115    3.782332
  73 H     1.0000    0     1.008    1.030018  -13.835060    4.813428
  74 H     1.0000    0     1.008    3.203880   -9.442923    4.639627
  75 H     1.0000    0     1.008   -0.500876  -10.243597   -4.348422
* core charge reduced due to ECP

--------------------------------
INTERNAL COORDINATES (ANGSTROEM)
--------------------------------
 Zr     0   0   0     0.000000000000     0.00000000     0.00000000
 Zr     1   0   0     5.240763648393     0.00000000     0.00000000
 Zr     2   1   0     3.428985718236    49.42361208     0.00000000
 Zr     1   2   3     3.432599335600    49.35982934   180.93839947
 Zr     2   1   3     3.372679308833    48.85315730   259.63321292
 Zr     1   2   3     3.372713857765    49.12330202   280.10966976
 O      1   2   3     2.083761598719    46.16466549   228.26236043
 O      2   1   3     2.080591658013    45.83824651   312.14327432
 O      3   2   1     2.150009613523    37.69487675    76.17688594
 O      4   1   2     2.151521028584    37.52917840   284.13521754
 O      4   1   2     2.074844807132    86.32694179   341.33718213
 O      3   2   1     2.068325009876    86.32294671    18.26462689
 O      1   2   3     1.996096728550   120.58636742   264.41372008
 O      1   2   3     1.986148502401   120.89508276   165.19184928
 O      1   2   3     2.071851690601   108.16028459   353.49939813
 O      1   2   3     1.987256493789   102.20677596    73.02875814
 O      2   1   3     1.981181720035   101.94527621   108.27764110
 O      2   1   3     2.075511347778   108.41828872   187.01910601
 O      2   1   3     1.985304136395   120.77200298    14.52761677
 O      2   1   3     1.994573229302   120.53326636   276.26985087
 O      3   2   1     1.971516656636   112.60966638   113.38768345
 O      3   2   1     2.068273346840   155.03984370   354.07057412
 O      3   2   1     1.980344865813    71.79962195   189.09488828
 O      3   2   1     2.058803151667   102.71226624   266.72188982
 O      4   1   2     2.065247109757   102.17966211    95.30758417
 O      4   1   2     1.982008533940    71.60944414   172.90111942
 O      4   1   2     2.067150812063   154.26821805     8.50836159
 O      4   1   2     1.970023127914   113.22570220   247.25565133
 O      5   2   1     1.977432141340   126.90332772   255.57320600
 O      5   2   1     2.019554388404   146.27841678    44.98139299
 O      5   2   1     1.988931101591    71.05263663   191.88923867
 O      5   2   1     2.070881054823    94.03781179   112.17102326
 O      6   1   2     2.078090551125    93.22034943   245.65603280
 O      6   1   2     1.991712400238    70.97913482   166.06795852
 O      6   1   2     2.009067164662   143.02107105   312.74543900
 O      6   1   2     1.973385774712   128.58395514   103.92680334
 C     13   1   2     1.301849934033   125.02490366    44.39481522
 C     14   1   2     1.300873419427   127.66651084    38.91559697
 C     15   1   2     1.296734337320   135.06313955    19.95416579
 C     16   1   2     1.294968256682   138.92734406    27.33710557
 C     17   2   1     1.294471668996   138.84661515   341.44019829
[...]
Total Mass          ...  1303.54 AMU
Quasi RRHO          ...     True
Cut-Off Frequency   ...     1.00 cm^-1

Throughout the following assumptions are being made:
  (1) The electronic state is orbitally nondegenerate
  (2) There are no thermally accessible electronically excited states
  (3) Hindered rotations indicated by low frequency modes are not
      treated as such but are treated as vibrations and this may
      cause some error
  (4) All equations used are the standard statistical mechanics
      equations for an ideal gas
  (5) All vibrations are strictly harmonic

freq.      14.03  E(vib)   ...       0.57 
freq.      21.34  E(vib)   ...       0.56 
freq.      22.87  E(vib)   ...       0.56 
freq.      28.28  E(vib)   ...       0.55 
freq.      33.01  E(vib)   ...       0.55 
freq.      36.56  E(vib)   ...       0.54 
freq.      39.71  E(vib)   ...       0.54 
freq.      47.63  E(vib)   ...       0.53 
freq.      56.50  E(vib)   ...       0.52 
freq.      61.09  E(vib)   ...       0.51 
freq.      80.00  E(vib)   ...       0.49 
freq.      81.62  E(vib)   ...       0.48 
freq.      90.63  E(vib)   ...       0.47 
freq.      94.67  E(vib)   ...       0.47 
freq.      96.05  E(vib)   ...       0.47 
freq.      98.83  E(vib)   ...       0.46 
freq.     100.62  E(vib)   ...       0.46 
freq.     106.08  E(vib)   ...       0.45 
freq.     107.63  E(vib)   ...       0.45 
freq.     110.27  E(vib)   ...       0.45 
freq.     111.48  E(vib)   ...       0.45 
freq.     114.61  E(vib)   ...       0.44 
freq.     118.18  E(vib)   ...       0.44 
freq.     118.81  E(vib)   ...       0.44 
freq.     131.32  E(vib)   ...       0.42 
freq.     135.60  E(vib)   ...       0.42 
freq.     144.15  E(vib)   ...       0.41 
freq.     149.72  E(vib)   ...       0.40 
freq.     150.32  E(vib)   ...       0.40 
freq.     151.52  E(vib)   ...       0.40 
freq.     151.55  E(vib)   ...       0.40 
freq.     152.53  E(vib)   ...       0.40 
freq.     156.04  E(vib)   ...       0.40 
freq.     160.22  E(vib)   ...       0.39 
freq.     160.93  E(vib)   ...       0.39 
freq.     163.00  E(vib)   ...       0.39 
freq.     164.03  E(vib)   ...       0.39 
freq.     167.82  E(vib)   ...       0.38 
freq.     168.45  E(vib)   ...       0.38 
freq.     170.59  E(vib)   ...       0.38 
freq.     171.91  E(vib)   ...       0.38 
freq.     174.64  E(vib)   ...       0.38 
freq.     187.32  E(vib)   ...       0.36 
freq.     188.78  E(vib)   ...       0.36 
freq.     188.97  E(vib)   ...       0.36 
freq.     193.97  E(vib)   ...       0.36 
freq.     195.44  E(vib)   ...       0.36 
freq.     198.19  E(vib)   ...       0.35 
freq.     203.45  E(vib)   ...       0.35 
freq.     209.95  E(vib)   ...       0.34 
freq.     214.12  E(vib)   ...       0.34 
freq.     215.03  E(vib)   ...       0.34 
freq.     230.85  E(vib)   ...       0.32 
freq.     233.66  E(vib)   ...       0.32 
freq.     236.52  E(vib)   ...       0.32 
freq.     239.77  E(vib)   ...       0.31 
freq.     243.17  E(vib)   ...       0.31 
freq.     252.84  E(vib)   ...       0.30 
freq.     260.15  E(vib)   ...       0.30 
freq.     261.96  E(vib)   ...       0.29 
freq.     262.71  E(vib)   ...       0.29 
freq.     263.34  E(vib)   ...       0.29 
freq.     264.93  E(vib)   ...       0.29 
freq.     266.29  E(vib)   ...       0.29 
freq.     267.98  E(vib)   ...       0.29 
freq.     271.43  E(vib)   ...       0.29 
freq.     274.86  E(vib)   ...       0.28 
freq.     276.45  E(vib)   ...       0.28 
freq.     276.90  E(vib)   ...       0.28 
freq.     278.57  E(vib)   ...       0.28 
freq.     280.16  E(vib)   ...       0.28 
freq.     280.69  E(vib)   ...       0.28 
freq.     285.70  E(vib)   ...       0.28 
freq.     290.72  E(vib)   ...       0.27 
freq.     292.64  E(vib)   ...       0.27 
freq.     295.99  E(vib)   ...       0.27 
freq.     296.50  E(vib)   ...       0.27 
freq.     302.27  E(vib)   ...       0.26 
freq.     304.76  E(vib)   ...       0.26 
freq.     306.87  E(vib)   ...       0.26 
freq.     308.71  E(vib)   ...       0.26 
freq.     313.10  E(vib)   ...       0.25 
freq.     314.65  E(vib)   ...       0.25 
freq.     316.91  E(vib)   ...       0.25 
freq.     317.89  E(vib)   ...       0.25 
freq.     320.38  E(vib)   ...       0.25 
freq.     322.16  E(vib)   ...       0.25 
freq.     325.17  E(vib)   ...       0.24 
freq.     339.71  E(vib)   ...       0.23 
freq.     341.90  E(vib)   ...       0.23 
freq.     349.56  E(vib)   ...       0.23 
freq.     352.20  E(vib)   ...       0.23 
freq.     359.34  E(vib)   ...       0.22 
freq.     359.54  E(vib)   ...       0.22 
freq.     370.46  E(vib)   ...       0.21 
freq.     382.79  E(vib)   ...       0.20 
freq.     383.87  E(vib)   ...       0.20 
freq.     385.91  E(vib)   ...       0.20 
freq.     394.45  E(vib)   ...       0.20 
freq.     399.45  E(vib)   ...       0.19 
freq.     399.86  E(vib)   ...       0.19 
freq.     402.53  E(vib)   ...       0.19 
freq.     409.98  E(vib)   ...       0.19 
freq.     416.04  E(vib)   ...       0.18 
freq.     419.05  E(vib)   ...       0.18 
freq.     420.11  E(vib)   ...       0.18 
freq.     421.64  E(vib)   ...       0.18 
freq.     422.63  E(vib)   ...       0.18 
freq.     434.60  E(vib)   ...       0.17 
freq.     470.66  E(vib)   ...       0.15 
freq.     473.14  E(vib)   ...       0.15 
freq.     478.93  E(vib)   ...       0.15 
freq.     488.56  E(vib)   ...       0.15 
freq.     509.79  E(vib)   ...       0.14 
freq.     526.68  E(vib)   ...       0.13 
freq.     539.81  E(vib)   ...       0.12 
freq.     570.09  E(vib)   ...       0.11 
freq.     619.59  E(vib)   ...       0.09 
freq.     660.47  E(vib)   ...       0.08 
freq.     664.32  E(vib)   ...       0.08 
freq.     670.69  E(vib)   ...       0.08 
freq.     675.07  E(vib)   ...       0.08 
freq.     678.12  E(vib)   ...       0.08 
freq.     682.53  E(vib)   ...       0.08 
freq.     685.91  E(vib)   ...       0.07 
freq.     689.89  E(vib)   ...       0.07 
freq.     699.07  E(vib)   ...       0.07 
freq.     711.60  E(vib)   ...       0.07 
freq.     718.04  E(vib)   ...       0.07 
freq.     732.17  E(vib)   ...       0.06 
freq.     733.89  E(vib)   ...       0.06 
freq.     734.48  E(vib)   ...       0.06 
freq.     734.66  E(vib)   ...       0.06 
freq.     735.16  E(vib)   ...       0.06 
freq.     737.36  E(vib)   ...       0.06 
freq.     737.94  E(vib)   ...       0.06 
freq.     738.81  E(vib)   ...       0.06 
freq.     739.19  E(vib)   ...       0.06 
freq.     739.37  E(vib)   ...       0.06 
freq.     739.85  E(vib)   ...       0.06 
freq.     741.28  E(vib)   ...       0.06 
freq.     742.32  E(vib)   ...       0.06 
freq.     744.46  E(vib)   ...       0.06 
freq.     786.16  E(vib)   ...       0.05 
freq.    1000.44  E(vib)   ...       0.02 
freq.    1000.58  E(vib)   ...       0.02 
freq.    1001.07  E(vib)   ...       0.02 
freq.    1002.66  E(vib)   ...       0.02 
freq.    1003.02  E(vib)   ...       0.02 
freq.    1003.54  E(vib)   ...       0.02 
freq.    1004.11  E(vib)   ...       0.02 
freq.    1004.24  E(vib)   ...       0.02 
freq.    1004.67  E(vib)   ...       0.02 
freq.    1004.93  E(vib)   ...       0.02 
freq.    1005.24  E(vib)   ...       0.02 
freq.    1013.69  E(vib)   ...       0.02 
freq.    1065.05  E(vib)   ...       0.02 
freq.    1101.14  E(vib)   ...       0.02 
freq.    1350.21  E(vib)   ...       0.01 
freq.    1350.86  E(vib)   ...       0.01 
freq.    1351.14  E(vib)   ...       0.01 
freq.    1352.08  E(vib)   ...       0.01 
freq.    1352.65  E(vib)   ...       0.01 
freq.    1352.92  E(vib)   ...       0.01 
freq.    1353.37  E(vib)   ...       0.01 
freq.    1354.25  E(vib)   ...       0.01 
freq.    1354.45  E(vib)   ...       0.01 
freq.    1356.26  E(vib)   ...       0.01 
freq.    1357.42  E(vib)   ...       0.01 
freq.    1358.15  E(vib)   ...       0.01 
freq.    1359.65  E(vib)   ...       0.01 
freq.    1360.56  E(vib)   ...       0.01 
freq.    1361.31  E(vib)   ...       0.01 
freq.    1362.78  E(vib)   ...       0.01 
freq.    1363.78  E(vib)   ...       0.01 
freq.    1364.52  E(vib)   ...       0.01 
freq.    1365.11  E(vib)   ...       0.01 
freq.    1365.64  E(vib)   ...       0.01 
freq.    1367.76  E(vib)   ...       0.01 
freq.    1369.29  E(vib)   ...       0.01 
freq.    1372.61  E(vib)   ...       0.01 
freq.    1380.10  E(vib)   ...       0.01 
freq.    1537.29  E(vib)   ...       0.00 
freq.    1547.42  E(vib)   ...       0.00 
freq.    1556.95  E(vib)   ...       0.00 
freq.    1563.47  E(vib)   ...       0.00 
freq.    1564.64  E(vib)   ...       0.00 
freq.    1574.76  E(vib)   ...       0.00 
freq.    1576.01  E(vib)   ...       0.00 
freq.    1622.11  E(vib)   ...       0.00 
freq.    1628.51  E(vib)   ...       0.00 
freq.    1630.99  E(vib)   ...       0.00 
freq.    1634.60  E(vib)   ...       0.00 
freq.    1636.12  E(vib)   ...       0.00 
freq.    1640.63  E(vib)   ...       0.00 
freq.    1715.56  E(vib)   ...       0.00 
freq.    1858.40  E(vib)   ...       0.00 
freq.    1862.76  E(vib)   ...       0.00 
freq.    1873.42  E(vib)   ...       0.00 
freq.    1881.75  E(vib)   ...       0.00 
freq.    1899.50  E(vib)   ...       0.00 
freq.    1903.63  E(vib)   ...       0.00 
freq.    1907.39  E(vib)   ...       0.00 
freq.    1913.13  E(vib)   ...       0.00 
freq.    1915.46  E(vib)   ...       0.00 
freq.    1964.68  E(vib)   ...       0.00 
freq.    2835.55  E(vib)   ...       0.00 
freq.    2858.58  E(vib)   ...       0.00 
freq.    2880.86  E(vib)   ...       0.00 
freq.    2881.79  E(vib)   ...       0.00 
freq.    2882.99  E(vib)   ...       0.00 
freq.    2884.87  E(vib)   ...       0.00 
freq.    2901.93  E(vib)   ...       0.00 
freq.    2903.14  E(vib)   ...       0.00 
freq.    2909.93  E(vib)   ...       0.00 
freq.    2910.08  E(vib)   ...       0.00 
freq.    2910.75  E(vib)   ...       0.00 
freq.    2912.18  E(vib)   ...       0.00 

------------
INNER ENERGY
------------

The inner energy is: U= E(el) + E(ZPE) + E(vib) + E(rot) + E(trans)
    E(el)   - is the total energy from the electronic structure calculation
              = E(kin-el) + E(nuc-el) + E(el-el) + E(nuc-nuc)
    E(ZPE)  - the the zero temperature vibrational energy from the frequency calculation
    E(vib)  - the the finite temperature correction to E(ZPE) due to population
              of excited vibrational states
    E(rot)  - is the rotational thermal energy
    E(trans)- is the translational thermal energy

Summary of contributions to the inner energy U:
Electronic energy                ...  -3976.49966150 Eh
Zero point energy                ...      0.38996869 Eh     244.71 kcal/mol
Thermal vibrational correction   ...      0.06406256 Eh      40.20 kcal/mol
Thermal rotational correction    ...      0.00141627 Eh       0.89 kcal/mol
Thermal translational correction ...      0.00141627 Eh       0.89 kcal/mol
-----------------------------------------------------------------------
Total thermal energy                  -3976.04279771 Eh


Summary of corrections to the electronic energy:
(perhaps to be used in another calculation)
Total thermal correction                  0.06689510 Eh      41.98 kcal/mol
Non-thermal (ZPE) correction              0.38996869 Eh     244.71 kcal/mol
-----------------------------------------------------------------------
Total correction                          0.45686379 Eh     286.69 kcal/mol


--------
ENTHALPY
--------

The enthalpy is H = U + kB*T
                kB is Boltzmann's constant
Total thermal energy              ...  -3976.04279771 Eh 
Thermal Enthalpy correction       ...      0.00094421 Eh       0.59 kcal/mol
-----------------------------------------------------------------------
Total Enthalpy                    ...  -3976.04185350 Eh


Note: Only C1 symmetry has been detected, increase convergence thresholds 
      if your molecule has a higher symmetry. Symmetry factor of 1.0 is   
      used for the rotational entropy correction. 
 

Note: Rotational entropy computed according to Herzberg 
Infrared and Raman Spectra, Chapter V,1, Van Nostrand Reinhold, 1945 
Point Group:  C1, Symmetry Number:   1  
Rotational constants in cm-1:     0.001722     0.001116     0.001080 

Vibrational entropy computed according to the QRRHO of S. Grimme
Chem.Eur.J. 2012 18 9955 using a reference frequency of 100.0 cm-1


-------
ENTROPY
-------

The entropy contributions are T*S = T*(S(el)+S(vib)+S(rot)+S(trans))
     S(el)   - electronic entropy
     S(vib)  - vibrational entropy
     S(rot)  - rotational entropy
     S(trans)- translational entropy
The entropies will be listed as multiplied by the temperature to get
units of energy

Electronic entropy                ...      0.00000000 Eh      0.00 kcal/mol
Vibrational entropy               ...      0.11545509 Eh     72.45 kcal/mol
Rotational entropy                ...      0.01894934 Eh     11.89 kcal/mol
Translational entropy             ...      0.02250776 Eh     14.12 kcal/mol
-----------------------------------------------------------------------
Final entropy term                ...      0.15691219 Eh     98.46 kcal/mol

In case the symmetry of your molecule has not been determined correctly
or in case you have a reason to use a different symmetry number we print 
out the resulting rotational entropy values for sn=1,12:

 non-linear molecules -----------------------------------
|  sn= 1 | S(rot)=       0.01894934 Eh     11.89 kcal/mol|
|  sn= 2 | S(rot)=       0.01829488 Eh     11.48 kcal/mol|
|  sn= 3 | S(rot)=       0.01791205 Eh     11.24 kcal/mol|
|  sn= 4 | S(rot)=       0.01764042 Eh     11.07 kcal/mol|
|  sn= 5 | S(rot)=       0.01742974 Eh     10.94 kcal/mol|
|  sn= 6 | S(rot)=       0.01725759 Eh     10.83 kcal/mol|
|  sn= 7 | S(rot)=       0.01711205 Eh     10.74 kcal/mol|
|  sn= 8 | S(rot)=       0.01698597 Eh     10.66 kcal/mol|
|  sn= 9 | S(rot)=       0.01687476 Eh     10.59 kcal/mol|
|  sn=10 | S(rot)=       0.01677528 Eh     10.53 kcal/mol|
|  sn=11 | S(rot)=       0.01668529 Eh     10.47 kcal/mol|
|  sn=12 | S(rot)=       0.01660314 Eh     10.42 kcal/mol|
 linear molecules ---------------------------------------
|  Dinfh | S(rot)=       0.01177545 Eh      7.39 kcal/mol|
|  Cinfv | S(rot)=       0.01242991 Eh      7.80 kcal/mol|
 --------------------------------------------------------


-------------------
GIBBS FREE ENERGY
-------------------

The Gibbs free energy is G = H - T*S

Total enthalpy                    ...  -3976.04185350 Eh 
Total entropy correction          ...     -0.15691219 Eh    -98.46 kcal/mol
-----------------------------------------------------------------------
Final Gibbs free energy         ...  -3976.19876569 Eh

For completeness - the Gibbs free energy minus the electronic energy
G-E(el)                           ...      0.30089581 Eh    188.81 kcal/mol


Maximum memory used throughout the entire PROP-calculation: 150.4 MB

--------------------------------
SUGGESTED CITATIONS FOR THIS RUN
--------------------------------

Below you find a list of papers that are relevant to this ORCA run
We neither can nor want to force you to cite these papers, but we appreciate if you do
You receive ORCA, which is the product of decades of hard work by many enthusiastic individuals, for free
The only thing we kindly ask in return is that you cite our papers,
We deeply appreciate it, if you show your appreciation for ORCA by not just citing the generic ORCA reference.

Please note that relegating all ORCA citations to the supporting information does *not* help us.
SI sections are not indexed - citations you put there will not count into any citation statistics
But we need these citations in order to attract the funding resources that allow us to do what we are doing

Therefore, if you are a happy ORCA user, please consider citing a few of the papers listed below in the main body of your paper

In addition to the list printed below, the program has created the file run.bibtex that contains the list in bibtex format
You can import this file easily into all common literature databanks and citation aid programs


List of essential papers. We consider these as the minimum necessary citations

  1. Neese, F.
     Software update: the ORCA program system, version 6.0
     WIRES Comput. Molec. Sci. 2025 15(1), e70019
     doi.org/10.1002/wcms.7019

List of papers to cite with high priority. The work reported in these papers was absolutely
necessary for this run to complete.
Our perspective: the developers of density functionals and basis sets usually get cited in chemistry papers
Good! But without the algorithms to do something with them, the functionals or basis sets would not do anything.
Hence, in our opinion, the algorithm design and method developments papers are equally worthy of getting cited

  1. Neese, F.
     An improvement of the resolution of the identity approximation for the formation of the Coulomb matrix
     J. Comp. Chem. 2003 24(14), 1740-1747
     doi.org/10.1002/jcc.10318
  2. Grimme, S.; Antony, J.; Ehrlich, S.; Krieg, H.
     A consistent and accurate ab initio parametrization of density functional dispersion correction (DFT-D) for the 94 elements H-Pu
     J. Chem. Phys. 2010 132 , 154104
     doi.org/10.1063/1.3382344
  3. Grimme, S.; Ehrlich, S.; Goerigk, L.
     Effect of the damping function in dispersion corrected density functional theory
     J. Comput. Chem. 2011 32(7), 1456-1465
     doi.org/10.1002/jcc.21759
  4. Bykov, D.; Petrenko, T.; Izsak, R.; Kossmann, S.; Becker, U.; Valeev, E.; Neese, F.
     Efficient implementation of the analytic second derivatives of Hartree-Fock and hybrid DFT energies: a detailed analysis of different approximations
     Molec. Phys. 2015 113 , 1961-1977
     doi.org/10.1080/00268976.2015.1025114
  5. Helmich-Paris, B.
     A trust-region augmented Hessian implementation for restricted and unrestricted Hartree–Fock and Kohn–Sham methods
     J. Chem. Phys. 2021 154 , 164104
     doi.org/10.1063/5.0040798
  6. Neese, F.
     The SHARK Integral Generation and Digestion System
     J. Comp. Chem. 2022 44(3), 381
     doi.org/10.1002/jcc.26942

List of suggested additional citations. These are papers that are important in the 'surrounding' of 
of this run, or papers that preceded the highly important papers. If you like your results we are grateful for a citation.

  1. Neese, F.
     The ORCA program system
     WIRES Comput. Molec. Sci. 2012 2(1), 73-78
     doi.org/10.1002/wcms.81
  2. Neese, F.
     Software update: the ORCA program system, version 4.0
     WIRES Comput. Molec. Sci. 2018 8(1), 1-6
     doi.org/10.1002/wcms.1327
  3. Neese, F.; Wennmohs, F.; Becker, U.; Riplinger, C.
     The ORCA quantum chemistry program package
     J. Chem. Phys. 2020 152(22), 224108
     doi.org/10.1063/5.0004608
  4. Neese, F.
     Software update: The ORCA program system—Version 5.0
     WIRES Comput. Molec. Sci. 2022 12(1), e1606
     doi.org/10.1002/wcms.1606

List of optional additional citations

  1. Neese, F.
     Approximate second-order SCF convergence for spin unrestricted wavefunctions
     Chem. Phys. Lett. 2000 325(1-3), 93-98
     doi.org/10.1016/s0009-2614(00)00662-x

Timings for individual modules:

Sum of individual times          ...     8582.526 sec (= 143.042 min)
Startup calculation              ...      361.095 sec (=   6.018 min)   4.2 %
SCF iterations                   ...     2617.471 sec (=  43.625 min)  30.5 %
Property integrals               ...     1689.415 sec (=  28.157 min)  19.7 %
SCF Response                     ...     1463.532 sec (=  24.392 min)  17.1 %
Property calculations            ...     1497.675 sec (=  24.961 min)  17.5 %
SCF Gradient evaluation          ...      921.393 sec (=  15.357 min)  10.7 %
Geometry relaxation              ...       31.946 sec (=   0.532 min)   0.4 %
                             ****ORCA TERMINATED NORMALLY****
TOTAL RUN TIME: 0 days 2 hours 23 minutes 35 seconds 992 msec
