
                                 *****************
                                 * O   R   C   A *
                                 *****************

                                            #,                                       
                                            ###                                      
                                            ####                                     
                                            #####                                    
                                            ######                                   
                                           ########,                                 
                                     ,,################,,,,,                         
                               ,,#################################,,                 
                          ,,##########################################,,             
                       ,#########################################, ''#####,          
                    ,#############################################,,   '####,        
                  ,##################################################,,,,####,       
                ,###########''''           ''''###############################       
              ,#####''   ,,,,##########,,,,          '''####'''          '####       
            ,##' ,,,,###########################,,,                        '##       
           ' ,,###''''                  '''############,,,                           
         ,,##''                                '''############,,,,        ,,,,,,###''
      ,#''                                            '''#######################'''  
     '                                                          ''''####''''         
             ,#######,   #######,   ,#######,      ##                                
            ,#'     '#,  ##    ##  ,#'     '#,    #''#        ,####,    ,#,          
            ##       ##  ##   ,#'  ##            #'  '#       #'       ,# #          
            ##       ##  #######   ##           ,######,      #####,      #          
            '#,     ,#'  ##    ##  '#,     ,#' ,#      #,     #,   #      #          
             '#######'   ##     ##  '#######'  #'      '#     '####' #    #          



                #########################################################
                #                        -***-                          #
                #          Department of theory and spectroscopy        #
                #                                                       #
                #                      Frank Neese                      #
                #                                                       #
                #     Directorship, Architecture, Infrastructure        #
                #                    SHARK, DRIVERS                     #
                #        Core code/Algorithms in most modules           #
                #                                                       #
                #        Max Planck Institute fuer Kohlenforschung      #
                #                Kaiser Wilhelm Platz 1                 #
                #                 D-45470 Muelheim/Ruhr                 #
                #                      Germany                          #
                #                                                       #
                #                  All rights reserved                  #
                #                        -***-                          #
                #########################################################


                         Program Version 6.1.0  -  RELEASE   -
                                (GIT: $679e74b$)
                          ($2025-06-10 18:02:51 +0200$)


 With contributions from (in alphabetic order):
[Max-Planck-Institut fuer Kohlenforschung]                               
  Daniel Aravena         : Magnetic Suceptibility                        
  Michael Atanasov       : Ab Initio Ligand Field Theory (pilot matlab implementation)
  Alexander A. Auer      : GIAO ZORA, VPT2 properties, NMR spectrum      
  Ute Becker             : All parallelization in ORCA, NUMFREQ, NUMCALC 
  Giovanni Bistoni       : ED, misc. LED, open-shell LED, HFLD           
  Dmytro Bykov           : pre 5.0 version of the SCF Hessian            
  Marcos Casanova-Páez   : Triplet and SCS-CIS(D). UHF-(DLPNO)-IP/EA/STEOM-CCSD. UHF-CVS-IP/STEOM-CCSD   
  Vijay G. Chilkuri      : MRCI spin determinant printing, contributions to CSF-ICE 
  Pauline Colinet        : FMM embedding                                 
  Dipayan Datta          : RHF DLPNO-CCSD density                        
  Achintya Kumar Dutta   : EOM-CC, STEOM-CC                              
  Nicolas Foglia         : Exact transition moments, OPA infrastructure, MCD improvements    
  Dmitry Ganyushin       : Spin-Orbit,Spin-Spin,Magnetic field MRCI      
  Miquel Garcia-Rates    : C-PCM and meta-GGA Hessian, CCSD/C-PCM, Gaussian charge scheme 
  Tiago L. C. Gouveia    : GS-ROHF, GS-ROCIS                             
  Yang Guo               : DLPNO-NEVPT2, F12-NEVPT2, CIM, IAO-localization        
  Andreas Hansen         : Spin unrestricted coupled pair/coupled cluster methods 
  Ingolf Harden          : AUTO-CI MPn and infrastructure                
  Benjamin Helmich-Paris : MC-RPA, TRAH-(SCF,CASSCF), AVAS, COSX integrals, SCF dyn. polar., MC-PDFT, srDFT 
  Lee Huntington         : MR-EOM, pCC                                   
  Robert Izsak           : Overlap fitted RIJCOSX, COSX-SCS-MP3, EOM     
  Riya Kayal             : Wick's Theorem for AUTO-CI, AUTO-CI UHF-CCSDT 
  Emily Kempfer          : AUTO-CI RHF CISDT and CCSDT, approximate NEVPT4
  Christian Kollmar      : KDIIS, OOCD, Brueckner-CCSD(T), CCSD density, CASPT2, CASPT2-K, improved NEVPT2 
  Axel Koslowski         : Symmetry handling                             
  Simone Kossmann        : meta-GGA functionals, TD-DFT gradient, OOMP2, (MP2 Hessian; deprecated post 5.0) 
  Lucas Lang             : DCDCAS, Hyperfine gauge corrections, ICE-SOC+SSC
  Marvin Lechner         : AUTO-CI (C++ implementation), FIC-MRCC        
  Spencer Leger          : CASSCF response                               
  Dagmar Lenk            : GEPOL surface, SMD, ORCA-2-JSON               
  Dimitrios Liakos       : Extrapolation schemes; Compound Job, Property file
  Dimitrios Manganas     : Further ROCIS development; embedding schemes. LFT, Crystal Embedding 
  Dimitrios Pantazis     : SARC Basis sets                               
  Anastasios Papadopoulos: AUTO-CI, single reference methods and gradients 
  Taras Petrenko         : pre 6.0 DFT Hessian and TD-DFT gradient,  ECA, NRVS 
  Petra Pikulova         : Analytic Raman intensities                    
  Peter Pinski           : DLPNO-MP2, DLPNO-MP2 Gradient                 
  Shashank Vittal Rao    : ES-AILFT, MagRelax                            
  Christoph Reimann      : Effective Core Potentials                     
  Marius Retegan         : Local ZFS, SOC                                
  Christoph Riplinger    : Optimizer, TS searches, QM/MM, DLPNO-CCSD(T), (RO)-DLPNO pert. Triples 
  Michael Roemelt        : Original ROCIS implementation, recursive CI coupling coefficients
  Masaaki Saitow         : Open-shell DLPNO-CCSD energy and density      
  Barbara Sandhoefer     : DKH picture change effects                    
  Yorick L. A. Schmerwitz: GMF and freeze-and-release deltaSCF, NEB S-IDPP initial path                    
  Kantharuban Sivalingam : CASSCF convergence/infrastructure, NEVPT2, NEVPT3, NEVPT4(SD), FIC-MRCI and CEPA variants
  Bernardo de Souza      : ESD, SOC TD-DFT                               
  Georgi L. Stoychev     : AutoAux, RI-MP2 NMR, DLPNO-MP2 response, X2C  
  Van Anh Tran           : RI-MP2 g-tensors                              
  Willem Van den Heuvel  : Paramagnetic NMR                              
  Zikuan Wang            : NOTCH, Electric field optimization            
  Frank Wennmohs         : Technical directorship and infrastructure     
  Hang Xu                : AUTO-CI-Response properties                   
                                                                         
[FACCTs GmbH]                                                            
  Markus Bursch, Nicolas Foglia, Miquel Garcia-Rates, Ingolf Harden, Hagen Neugebauer, Anastasios Papadopoulos, 
  Christoph Riplinger, Bernardo de Souza, Georgi L. Stoychev                                                    
                                                                 
  APM, various basis sets, CI-OPT, improved COSX, DLPNO-Multilevel,           
  DOCKER, DRACO, updates on ESD, Fragmentator, GOAT, IRC, LR-CPCM, L-BFGS, MBIS, meta-GGA TD-DFT gradient, ML-optimized integration grids, 
  MM, NACMEs, nearIR, NEB, NEB-TS, NL-DFT gradient (VV10), 2- and 3-layer-ONIOM, interface openCOSMO-RS, QMMM,   
  Crystal-QMMM, RESP, rigid body optimization, SF, symmetry and pop. for TD-DFT, various functionals, SOLVATOR                                   
                                                                         
[Other institutions]                                                     
  V. Asgeirsson          : NEB                                           
  Christoph Bannwarth    : sTDA-DFT, sTD-DFT, PBEh-3c, B97-3c, D3        
  Giovanni Bistoni       : ETS/NOCV, ADLD/ADEX, COVALED                  
  Martin Brehm           : Molecular dynamics                            
  Ronald Cardenas        : ETS/NOCV                                      
  Martina Colucci        : COVALED                                       
  Sebastian Ehlert       : rSCAN, r2SCAN, r2SCAN-3c, D4, dhf basis sets  
  Marvin Friede          : D4 for Fr, Ra, Ac-Lr                          
  Lars Goerigk           : TD-DFT with DH, B97 family of functionals     
  Stefan Grimme          : VdW corrections, initial TS optimization, DFT functionals, gCP, sTDA/sTD-DF 
  Waldemar Hujo          : DFT-NL                                        
  H. Jonsson             : NEB                                           
  Holger Kruse           : gCP                                           
  Marcel Mueller         : wB97X-3c, vDZP basis set                      
  Hagen Neugebauer       : wr2SCAN, Native XTB                           
  Gianluca Regni         : ADLD/ADEX                                     
  Tobias Risthaus        : pre 6.0 range-separated hybrid DFT and stability analysis
  Lukas Wittmann         : regularized MP2, r2SCAN double-hybrids, wr2SCAN        
                                                                         
We gratefully acknowledge several colleagues who have allowed us to      
interface, adapt or use parts of their codes:                            
  Ed Valeev, F. Pavosevic, A. Kumar             : LibInt (2-el integral package), F12 methods 
  Garnet Chan, S. Sharma, J. Yang, R. Olivares  : DMRG                   
  Ulf Ekstrom                                   : XCFun DFT Library      
  Mihaly Kallay                                 : mrcc  (arbitrary order and MRCC methods)
  Frank Weinhold                                : gennbo (NPA and NBO analysis)           
  Simon Mueller                                 : openCOSMO-RS                            
  Christopher J. Cramer and Donald G. Truhlar   : smd solvation model                     
  S Lehtola, MJT Oliveira, MAL Marques          : LibXC Library                           
  Liviu Ungur et al                             : ANISO software                          


 Your calculation uses the libint2 library for the computation of 2-el integrals
 For citations please refer to: http://libint.valeyev.net

 Your ORCA version has been built with support for libXC version: 7.0.0
 For citations please refer to: https://libxc.gitlab.io

 This ORCA versions uses:
   CBLAS   interface :  Fast vector & matrix operations
   LAPACKE interface :  Fast linear algebra routines
   SCALAPACK package :  Parallel linear algebra routines
   Shared memory     :  Shared parallel matrices
   BLAS/LAPACK       :  OpenBLAS 0.3.29  USE64BITINT DYNAMIC_ARCH NO_AFFINITY Zen SINGLE_THREADED
        Core in use  :  Zen
   Copyright (c) 2011-2014, The OpenBLAS Project


  ***********************************
  * Starting time: Wed Sep  3 10:25:20 2025
  * Host name:     gadolinium01
  * Process ID:    1104807
  * Working dir.:  /local/scratch/mehlhorn/62382
  ***********************************



***************************************
The coordinates will be read from file: start.xyz
***************************************


Your calculation utilizes the atom-pairwise dispersion correction
with the Becke-Johnson damping scheme (D3BJ)


Warning: RI is on but no J-basis has been assigned. Assigning Def2/J (nothing to worry about!)
================================================================================

cite the ECPs for Zr [Def2-ECP] as follows:
Ce-Yb(ecp-28): M. Dolg, H. Stoll, H.Preuss, J. Chem. Phys., 1989, 90, 1730-1734.
Y-Cd(ecp-28), Hf-Hg(ecp-46): D. Andrae,U. Haeussermann, M. Dolg, H. Stoll, H. Preuss, Theor. Chim. Acta, 1990, 77, 123-141.
In-Sb(ecp-28), Tl-Bi(ecp-46): B. Metz, H. Stoll, M. Dolg, J. Chem. Phys., 2000, 113, 2563-2569.
Te-Xe(ecp-28), Po-Rn(ecp-46): K. A. Peterson, D. Figgen, E. Goll, H. Stoll, M. Dolg, J. Chem. Phys., 2003, 119, 11113-11123.
Rb(ecp-28), Cs(ecp-46): T. Leininger, A. Nicklass, W. Kuechle, H. Stoll, M. Dolg, A. Bergner, Chem. Phys. Lett., 1996, 255, 274-280.
Sr(ecp-28), Ba(ecp-46): M. Kaupp, P. V. Schleyer, H. Stoll and H. Preuss, J. Chem. Phys., 1991, 94, 1360-1366.
La(ecp-46): M. Dolg, H. Stoll, A. Savin, H. Preuss, Theor. Chim. Acta, 1989, 75, 173-194.
Lu(ecp-28): X. Cao, M. Dolg, J. Chem. Phys., 2001, 115, 7348-7355.

ECP parameters for Zr [Def2-ECP] have been obtained from:
TURBOMOLE (7.0.2)

----- Orbital basis set information -----
Your calculation utilizes the basis: def2-TZVP
   F. Weigend and R. Ahlrichs, Phys. Chem. Chem. Phys. 7, 3297 (2005).

----- AuxJ basis set information -----
Your calculation utilizes the auxiliary basis: def2/J
   H-Rn: F. Weigend, Phys. Chem. Chem. Phys. 8, 1057 (2006).
   Fr-Lr: K. Eichkorn, F. Weigend, O. Treutler, R. Ahlrichs; Theor. Chem. Acc. 97, 119 (1997).

================================================================================
                                        WARNINGS
                       Please study these warnings very carefully!
================================================================================


WARNING: Geometry Optimization
  ===> : Switching off AutoStart
         For restart on a previous wavefunction, please use MOREAD

================================================================================
                                       INPUT FILE
================================================================================
NAME = run.inp
|  1> # Geometry optimization for UiO-66-dehydrox SBU
|  2> 
|  3> %pal nprocs 64 end
|  4> 
|  5> %cpcm
|  6> 	epsilon 1.95778548766667
|  7> end
|  8> 
|  9> ! PBE 	# functional used for the MOF calculations later (non-expensive)
| 10> ! RKS	# closed shell for SBU
| 11> ! D3  # better geometries at low cost
| 12> ! def2-TZVP # Ahlrichs basis set triple zeta with core potentials and auxilarry basis set for coulomb integrals
| 13> ! Freq 	# Frequency analysis to check the stabiltity of the structures
| 14> 
| 15> ! NoPop # population analysis not necessary	
| 16> 
| 17> ! RI 		# speed up calculation 
| 18> ! DEFGRID3 # dense Grid
| 19> ! TightSCF # tight SCF criteria as basis for Geom.-Opt.
| 20> ! TightOpt # tight convergence criteria for geometry optimizations
| 21> 
| 22> ! SmallPrint
| 23> 
| 24> 
| 25> * xyzFile 0 1 start.xyz # no spin
| 26> 
| 27>                          ****END OF INPUT****
================================================================================

                       *****************************
                       * Geometry Optimization Run *
                       *****************************

Geometry optimization settings:
Update method            Update   .... BFGS
Choice of coordinates    CoordSys .... (2022) Redundant Internals
Initial Hessian          InHess   .... Almloef's Model
Max. no of cycles        MaxIter  .... 180

Convergence Tolerances:
Energy Change            TolE     ....  1.0000e-06 Eh
Max. Gradient            TolMAXG  ....  1.0000e-04 Eh/bohr
RMS Gradient             TolRMSG  ....  3.0000e-05 Eh/bohr
Max. Displacement        TolMAXD  ....  1.0000e-03 bohr
RMS Displacement         TolRMSD  ....  6.0000e-04 bohr
Strict Convergence                .... False

------------------------------------------------------------------------------
                        ORCA OPTIMIZATION COORDINATE SETUP
------------------------------------------------------------------------------

The optimization will be done in redundant internal coordinates (2022)
Making redundant internal coordinates   ...  (2022 redundants) done
Evaluating the initial hessian          ...  (Almloef) done
Evaluating the coordinates              ...  done
Calculating the B-matrix                .... done
Calculating the G-matrix                .... done
The number of degrees of freedom        ....  894

    -----------------------------------------------------------------
                    Redundant Internal Coordinates


    -----------------------------------------------------------------
         Definition                    Initial Value    Approx d2E/dq
    -----------------------------------------------------------------
      1. B(Zr  2,Zr  1)                  3.4327         0.035242   
      2. B(Zr  3,Zr  0)                  3.4327         0.035242   
      3. B(Zr  4,Zr  3)                  3.4316         0.035376   
      4. B(Zr  4,Zr  1)                  3.4313         0.035414   
      5. B(Zr  5,Zr  0)                  3.4313         0.035414   
      6. B(Zr  5,Zr  2)                  3.4316         0.035376   
      7. B(O   6,Zr  0)                  2.2052         0.283397   
      8. B(O   6,Zr  3)                  2.0628         0.478155   
      9. B(O   6,Zr  5)                  2.0463         0.508152   
     10. B(O   7,Zr  4)                  2.0463         0.508153   
     11. B(O   7,Zr  1)                  2.2052         0.283397   
     12. B(O   7,Zr  2)                  2.0628         0.478155   
     13. B(O   8,Zr  5)                  2.0622         0.479153   
     14. B(O   8,Zr  2)                  2.2059         0.282647   
     15. B(O   8,Zr  1)                  2.0468         0.507091   
     16. B(O   9,Zr  4)                  2.0622         0.479153   
     17. B(O   9,Zr  3)                  2.2059         0.282647   
     18. B(O   9,Zr  0)                  2.0468         0.507091   
     19. B(O  10,Zr  3)                  2.0465         0.507754   
     20. B(O  10,Zr  4)                  2.2055         0.283112   
     21. B(O  10,Zr  1)                  2.0627         0.478400   
     22. B(O  11,Zr  5)                  2.2055         0.283112   
     23. B(O  11,Zr  2)                  2.0465         0.507754   
     24. B(O  11,Zr  0)                  2.0627         0.478400   
     25. B(O  12,Zr  0)                  2.2028         0.285932   
     26. B(O  13,Zr  0)                  2.2138         0.274586   
     27. B(O  14,Zr  0)                  2.2164         0.271984   
     28. B(O  15,Zr  0)                  2.2539         0.236985   
     29. B(O  16,Zr  1)                  2.2539         0.236985   
     30. B(O  17,Zr  1)                  2.2164         0.271984   
     31. B(O  18,Zr  1)                  2.2138         0.274586   
     32. B(O  19,Zr  1)                  2.2028         0.285932   
     33. B(O  20,Zr  2)                  2.2139         0.274443   
     34. B(O  21,Zr  2)                  2.2538         0.237068   
     35. B(O  22,Zr  2)                  2.2024         0.286295   
     36. B(O  23,Zr  2)                  2.2160         0.272401   
     37. B(O  24,Zr  3)                  2.2160         0.272401   
     38. B(O  25,Zr  3)                  2.2024         0.286295   
     39. B(O  26,Zr  3)                  2.2538         0.237068   
     40. B(O  27,Zr  3)                  2.2139         0.274443   
     41. B(O  28,Zr  4)                  2.2033         0.285383   
     42. B(O  29,Zr  4)                  2.2161         0.272256   
     43. B(O  30,Zr  4)                  2.2138         0.274587   
     44. B(O  31,Zr  4)                  2.2540         0.236897   
     45. B(O  32,Zr  5)                  2.2540         0.236897   
     46. B(O  33,Zr  5)                  2.2138         0.274587   
     47. B(O  34,Zr  5)                  2.2161         0.272256   
     48. B(O  35,Zr  5)                  2.2033         0.285383   
     49. B(C  36,O  33)                  1.2622         0.894961   
     50. B(C  36,O  12)                  1.2657         0.883436   
     51. B(C  37,O  25)                  1.2657         0.883447   
     52. B(C  37,O  13)                  1.2622         0.895040   
     53. B(C  38,O  21)                  1.2587         0.906568   
     54. B(C  38,O  14)                  1.2717         0.864218   
     55. B(C  39,O  29)                  1.2717         0.864062   
     56. B(C  39,O  15)                  1.2586         0.906841   
     57. B(C  40,O  34)                  1.2717         0.864062   
     58. B(C  40,O  16)                  1.2586         0.906841   
     59. B(C  41,O  26)                  1.2587         0.906568   
     60. B(C  41,O  17)                  1.2717         0.864218   
     61. B(C  42,O  22)                  1.2657         0.883447   
     62. B(C  42,O  18)                  1.2622         0.895040   
     63. B(C  43,O  19)                  1.2657         0.883436   
     64. B(C  43,O  30)                  1.2622         0.894961   
     65. B(C  44,O  35)                  1.2657         0.883455   
     66. B(C  44,O  20)                  1.2623         0.894699   
     67. B(C  45,O  31)                  1.2586         0.906785   
     68. B(C  45,O  23)                  1.2717         0.864047   
     69. B(C  46,O  32)                  1.2586         0.906785   
     70. B(C  46,O  24)                  1.2717         0.864047   
     71. B(C  47,O  28)                  1.2657         0.883455   
     72. B(C  47,O  27)                  1.2623         0.894699   
     73. B(H  48,C  41)                  1.1087         0.336189   
     74. B(H  49,C  42)                  1.1076         0.337493   
     75. B(H  50,C  38)                  1.1087         0.336189   
     76. B(H  51,C  37)                  1.1076         0.337493   
     77. B(H  52,C  43)                  1.1076         0.337498   
     78. B(H  53,C  47)                  1.1077         0.337485   
     79. B(H  54,C  39)                  1.1087         0.336185   
     80. B(H  55,C  45)                  1.1087         0.336183   
     81. B(H  56,C  40)                  1.1087         0.336185   
     82. B(H  57,C  46)                  1.1087         0.336183   
     83. B(H  58,C  36)                  1.1076         0.337498   
     84. B(H  59,C  44)                  1.1077         0.337485   
     85. A(O  13,Zr  0,O  14)          128.2688         0.402964   
     86. A(O  12,Zr  0,O  13)           75.8791         0.406538   
     87. A(O  12,Zr  0,O  15)          121.0148         0.396128   
     88. A(Zr  5,Zr  0,O  11)           37.9350         0.340243   
     89. A(Zr  3,Zr  0,Zr  5)           65.0079         0.244865   
     90. A(Zr  3,Zr  0,O  14)          153.8014         0.309855   
     91. A(Zr  5,Zr  0,O  15)          163.6988         0.303311   
     92. A(O  13,Zr  0,O  15)           78.7908         0.393326   
     93. A(O   6,Zr  0,O  13)           82.1286         0.405898   
     94. A(O   9,Zr  0,O  11)           99.9079         0.498908   
     95. A(Zr  3,Zr  0,O  11)           91.9100         0.339966   
     96. A(O   6,Zr  0,O  15)          141.4299         0.395510   
     97. A(O   9,Zr  0,O  14)          121.4941         0.449726   
     98. A(O  14,Zr  0,O  15)           70.3574         0.392671   
     99. A(Zr  5,Zr  0,O  13)          110.7260         0.310575   
    100. A(O  11,Zr  0,O  12)           84.3457         0.449054   
    101. A(Zr  5,Zr  0,O  14)          110.1522         0.310098   
    102. A(Zr  5,Zr  0,O  12)           74.9061         0.312615   
    103. A(O  11,Zr  0,O  15)          133.7909         0.434074   
    104. A(Zr  5,Zr  0,O   9)           91.8926         0.343577   
    105. A(O   6,Zr  0,O  11)           70.6209         0.448330   
    106. A(O   6,Zr  0,O  14)          144.6727         0.405216   
    107. A(Zr  3,Zr  0,O  13)           74.3421         0.310331   
    108. A(Zr  3,Zr  0,O  15)          106.9191         0.303075   
    109. A(O   9,Zr  0,O  15)           74.9871         0.438653   
    110. A(O  12,Zr  0,O  14)           85.6228         0.405854   
    111. A(Zr  3,Zr  0,O   6)           35.0701         0.311919   
    112. A(O   9,Zr  0,O  12)          152.7893         0.453832   
    113. A(O  11,Zr  0,O  13)          147.4156         0.445770   
    114. A(Zr  5,Zr  0,O   6)           34.6479         0.312165   
    115. A(Zr  3,Zr  0,O   9)           37.7788         0.343296   
    116. A(O  11,Zr  0,O  14)           74.4939         0.445002   
    117. A(O   6,Zr  0,O   9)           70.8703         0.453098   
    118. A(O   6,Zr  0,O  12)           85.6120         0.408816   
    119. A(O   9,Zr  0,O  13)           87.2116         0.450504   
    120. A(Zr  3,Zr  0,O  12)          115.7637         0.312369   
    121. A(Zr  4,Zr  1,O  19)           74.9061         0.312615   
    122. A(O   8,Zr  1,O  16)           74.9871         0.438653   
    123. A(O   7,Zr  1,O  18)           82.1286         0.405898   
    124. A(O  17,Zr  1,O  19)           85.6228         0.405854   
    125. A(O  16,Zr  1,O  17)           70.3574         0.392671   
    126. A(Zr  4,Zr  1,O  16)          163.6988         0.303311   
    127. A(Zr  4,Zr  1,O  10)           37.9350         0.340243   
    128. A(O   7,Zr  1,O  10)           70.6209         0.448330   
    129. A(O   8,Zr  1,O  10)           99.9079         0.498908   
    130. A(Zr  2,Zr  1,O   8)           37.7788         0.343296   
    131. A(Zr  4,Zr  1,O  18)          110.7260         0.310575   
    132. A(O  10,Zr  1,O  16)          133.7908         0.434074   
    133. A(O   7,Zr  1,O  17)          144.6727         0.405216   
    134. A(Zr  2,Zr  1,O  16)          106.9191         0.303075   
    135. A(O  10,Zr  1,O  17)           74.4939         0.445002   
    136. A(Zr  4,Zr  1,O  17)          110.1522         0.310098   
    137. A(O   8,Zr  1,O  18)           87.2116         0.450504   
    138. A(Zr  2,Zr  1,O  10)           91.9100         0.339966   
    139. A(O  17,Zr  1,O  18)          128.2688         0.402964   
    140. A(Zr  2,Zr  1,O  19)          115.7637         0.312369   
    141. A(O  10,Zr  1,O  18)          147.4156         0.445770   
    142. A(O  16,Zr  1,O  18)           78.7908         0.393326   
    143. A(O   7,Zr  1,O  19)           85.6120         0.408816   
    144. A(Zr  4,Zr  1,O   7)           34.6479         0.312165   
    145. A(O   8,Zr  1,O  17)          121.4941         0.449726   
    146. A(Zr  2,Zr  1,O  18)           74.3421         0.310331   
    147. A(Zr  4,Zr  1,O   8)           91.8926         0.343577   
    148. A(Zr  2,Zr  1,Zr  4)           65.0079         0.244865   
    149. A(O  18,Zr  1,O  19)           75.8791         0.406538   
    150. A(Zr  2,Zr  1,O   7)           35.0701         0.311919   
    151. A(O   7,Zr  1,O  16)          141.4299         0.395510   
    152. A(Zr  2,Zr  1,O  17)          153.8014         0.309855   
    153. A(O  10,Zr  1,O  19)           84.3457         0.449054   
    154. A(O   7,Zr  1,O   8)           70.8703         0.453098   
    155. A(O   8,Zr  1,O  19)          152.7893         0.453832   
    156. A(O  16,Zr  1,O  19)          121.0148         0.396128   
    157. A(O   8,Zr  2,O  20)           82.1008         0.405671   
    158. A(Zr  1,Zr  2,O  20)          110.7182         0.310305   
    159. A(Zr  5,Zr  2,O  11)           37.7875         0.343590   
    160. A(Zr  5,Zr  2,O   8)           35.0825         0.311976   
    161. A(O   7,Zr  2,O  23)           74.4956         0.445084   
    162. A(O  21,Zr  2,O  23)           70.3859         0.392801   
    163. A(O  22,Zr  2,O  23)           85.5935         0.406055   
    164. A(Zr  1,Zr  2,O   8)           34.6408         0.311785   
    165. A(O  11,Zr  2,O  23)          121.4810         0.449958   
    166. A(O   8,Zr  2,O  22)           85.5781         0.408716   
    167. A(O  11,Zr  2,O  22)          152.8247         0.454045   
    168. A(Zr  1,Zr  2,Zr  5)           64.9746         0.244827   
    169. A(Zr  1,Zr  2,O  21)          163.6637         0.303092   
    170. A(O   7,Zr  2,O   8)           70.5713         0.448072   
    171. A(O  20,Zr  2,O  23)          128.3296         0.403036   
    172. A(O   8,Zr  2,O  23)          144.6125         0.405136   
    173. A(Zr  5,Zr  2,O   7)           91.7940         0.340152   
    174. A(O   8,Zr  2,O  21)          141.4652         0.395350   
    175. A(Zr  5,Zr  2,O  23)          153.7486         0.310121   
    176. A(Zr  1,Zr  2,O  23)          110.0948         0.309931   
    177. A(O  21,Zr  2,O  22)          121.0472         0.396240   
    178. A(Zr  5,Zr  2,O  20)           74.3708         0.310495   
    179. A(Zr  5,Zr  2,O  22)          115.7824         0.312624   
    180. A(O   7,Zr  2,O  21)          133.7594         0.434061   
    181. A(Zr  1,Zr  2,O  22)           74.9001         0.312433   
    182. A(Zr  1,Zr  2,O  11)           91.8709         0.343372   
    183. A(O   7,Zr  2,O  11)           99.7977         0.498981   
    184. A(Zr  5,Zr  2,O  21)          106.9484         0.303276   
    185. A(O   8,Zr  2,O  11)           70.9052         0.452987   
    186. A(O  20,Zr  2,O  21)           78.8391         0.393315   
    187. A(O  11,Zr  2,O  20)           87.2415         0.450568   
    188. A(O   7,Zr  2,O  20)          147.3972         0.445687   
    189. A(Zr  1,Zr  2,O   7)           37.8967         0.339937   
    190. A(O  20,Zr  2,O  22)           75.9075         0.406591   
    191. A(O  11,Zr  2,O  21)           74.9913         0.438784   
    192. A(O   7,Zr  2,O  22)           84.3799         0.449116   
    193. A(O   6,Zr  3,O  10)           99.7977         0.498981   
    194. A(O   9,Zr  3,O  10)           70.9052         0.452987   
    195. A(Zr  4,Zr  3,O  10)           37.7875         0.343590   
    196. A(O  24,Zr  3,O  25)           85.5935         0.406055   
    197. A(O  26,Zr  3,O  27)           78.8391         0.393314   
    198. A(O   9,Zr  3,O  25)           85.5781         0.408716   
    199. A(Zr  0,Zr  3,O  27)          110.7182         0.310305   
    200. A(O  24,Zr  3,O  26)           70.3859         0.392801   
    201. A(O  25,Zr  3,O  27)           75.9075         0.406591   
    202. A(O  24,Zr  3,O  27)          128.3296         0.403036   
    203. A(O   9,Zr  3,O  27)           82.1008         0.405671   
    204. A(O   6,Zr  3,O  27)          147.3972         0.445686   
    205. A(Zr  4,Zr  3,O  27)           74.3708         0.310495   
    206. A(O  10,Zr  3,O  27)           87.2415         0.450568   
    207. A(O   9,Zr  3,O  26)          141.4652         0.395350   
    208. A(O  25,Zr  3,O  26)          121.0472         0.396240   
    209. A(O  10,Zr  3,O  26)           74.9913         0.438784   
    210. A(Zr  4,Zr  3,O   6)           91.7940         0.340152   
    211. A(O   6,Zr  3,O  26)          133.7594         0.434061   
    212. A(Zr  4,Zr  3,O  26)          106.9484         0.303276   
    213. A(Zr  0,Zr  3,O  26)          163.6637         0.303092   
    214. A(O   6,Zr  3,O   9)           70.5713         0.448072   
    215. A(O  10,Zr  3,O  25)          152.8247         0.454045   
    216. A(O   6,Zr  3,O  25)           84.3799         0.449116   
    217. A(Zr  4,Zr  3,O   9)           35.0825         0.311976   
    218. A(Zr  4,Zr  3,O  25)          115.7824         0.312624   
    219. A(Zr  0,Zr  3,O  25)           74.9001         0.312433   
    220. A(O  10,Zr  3,O  24)          121.4810         0.449958   
    221. A(O   9,Zr  3,O  24)          144.6125         0.405136   
    222. A(Zr  0,Zr  3,O   9)           34.6408         0.311785   
    223. A(O   6,Zr  3,O  24)           74.4956         0.445084   
    224. A(Zr  4,Zr  3,O  24)          153.7486         0.310121   
    225. A(Zr  0,Zr  3,O  24)          110.0948         0.309931   
    226. A(Zr  0,Zr  3,O  10)           91.8709         0.343372   
    227. A(Zr  0,Zr  3,O   6)           37.8967         0.339937   
    228. A(Zr  0,Zr  3,Zr  4)           64.9746         0.244827   
    229. A(Zr  1,Zr  4,Zr  3)           64.9785         0.244998   
    230. A(O   9,Zr  4,O  10)           70.6337         0.448375   
    231. A(O   7,Zr  4,O  10)           70.9073         0.453187   
    232. A(Zr  3,Zr  4,O  10)           34.6496         0.312059   
    233. A(O  10,Zr  4,O  28)           85.5850         0.408604   
    234. A(O   9,Zr  4,O  29)           74.5160         0.445209   
    235. A(O  28,Zr  4,O  30)           75.9300         0.406400   
    236. A(O  30,Zr  4,O  31)           78.7676         0.393301   
    237. A(O  29,Zr  4,O  31)           70.3661         0.392714   
    238. A(O   7,Zr  4,O  31)           74.9968         0.438789   
    239. A(O  28,Zr  4,O  31)          121.0283         0.395968   
    240. A(O  10,Zr  4,O  31)          141.4085         0.395414   
    241. A(O   9,Zr  4,O  31)          133.8092         0.434168   
    242. A(Zr  3,Zr  4,O  31)          163.6893         0.303241   
    243. A(Zr  1,Zr  4,O  31)          106.8918         0.303293   
    244. A(O  29,Zr  4,O  30)          128.3008         0.403035   
    245. A(O  10,Zr  4,O  30)           82.0758         0.405826   
    246. A(O   9,Zr  4,O  30)          147.4194         0.445897   
    247. A(O   7,Zr  4,O  30)           87.3033         0.450676   
    248. A(Zr  3,Zr  4,O  30)          110.7131         0.310521   
    249. A(Zr  1,Zr  4,O  30)           74.3713         0.310575   
    250. A(O  28,Zr  4,O  29)           85.6326         0.405788   
    251. A(O  10,Zr  4,O  29)          144.7035         0.405216   
    252. A(O   7,Zr  4,O  29)          121.3831         0.449978   
    253. A(Zr  3,Zr  4,O  29)          110.1779         0.310094   
    254. A(Zr  1,Zr  4,O  29)          153.7181         0.310148   
    255. A(O   9,Zr  4,O  28)           84.3494         0.449026   
    256. A(O   7,Zr  4,O  28)          152.8804         0.453846   
    257. A(Zr  3,Zr  4,O  28)           74.9095         0.312463   
    258. A(O   7,Zr  4,O   9)           99.7732         0.499248   
    259. A(Zr  1,Zr  4,O  28)          115.8210         0.312518   
    260. A(Zr  3,Zr  4,O   9)           37.9374         0.340271   
    261. A(Zr  1,Zr  4,O   9)           91.8461         0.340332   
    262. A(Zr  3,Zr  4,O   7)           91.8302         0.343635   
    263. A(Zr  1,Zr  4,O   7)           37.7846         0.343697   
    264. A(Zr  1,Zr  4,O  10)           35.0969         0.312114   
    265. A(O  11,Zr  5,O  35)           85.5850         0.408604   
    266. A(O  34,Zr  5,O  35)           85.6326         0.405788   
    267. A(O  33,Zr  5,O  35)           75.9300         0.406400   
    268. A(O  32,Zr  5,O  35)          121.0283         0.395968   
    269. A(O   8,Zr  5,O  35)           84.3494         0.449026   
    270. A(O   6,Zr  5,O  35)          152.8804         0.453846   
    271. A(Zr  2,Zr  5,O  35)           74.9095         0.312463   
    272. A(O  33,Zr  5,O  34)          128.3008         0.403035   
    273. A(O  32,Zr  5,O  34)           70.3661         0.392714   
    274. A(O  11,Zr  5,O  34)          144.7035         0.405216   
    275. A(Zr  0,Zr  5,O  35)          115.8210         0.312518   
    276. A(O  32,Zr  5,O  33)           78.7676         0.393301   
    277. A(O   6,Zr  5,O  34)          121.3831         0.449978   
    278. A(Zr  2,Zr  5,O  34)          110.1780         0.310094   
    279. A(Zr  0,Zr  5,O  34)          153.7181         0.310148   
    280. A(O  11,Zr  5,O  33)           82.0757         0.405826   
    281. A(O   8,Zr  5,O  33)          147.4194         0.445897   
    282. A(O   6,Zr  5,O  33)           87.3033         0.450676   
    283. A(Zr  0,Zr  5,O  33)           74.3713         0.310575   
    284. A(O  11,Zr  5,O  32)          141.4085         0.395414   
    285. A(O   8,Zr  5,O  32)          133.8092         0.434168   
    286. A(O   6,Zr  5,O  32)           74.9968         0.438789   
    287. A(Zr  2,Zr  5,O  32)          163.6893         0.303241   
    288. A(Zr  0,Zr  5,O  32)          106.8918         0.303293   
    289. A(Zr  2,Zr  5,O   6)           91.8302         0.343635   
    290. A(Zr  0,Zr  5,O   6)           37.7846         0.343697   
    291. A(Zr  0,Zr  5,Zr  2)           64.9785         0.244998   
    292. A(O   8,Zr  5,O  34)           74.5160         0.445209   
    293. A(O   8,Zr  5,O  11)           70.6337         0.448375   
    294. A(O   6,Zr  5,O  11)           70.9073         0.453187   
    295. A(Zr  2,Zr  5,O  11)           34.6496         0.312059   
    296. A(Zr  0,Zr  5,O  11)           35.0969         0.312114   
    297. A(O   6,Zr  5,O   8)           99.7732         0.499248   
    298. A(Zr  2,Zr  5,O  33)          110.7131         0.310521   
    299. A(Zr  2,Zr  5,O   8)           37.9374         0.340271   
    300. A(Zr  0,Zr  5,O   8)           91.8461         0.340332   
    301. A(Zr  3,O   6,Zr  5)          127.6959         0.499054   
    302. A(Zr  0,O   6,Zr  5)          107.5675         0.453270   
    303. A(Zr  0,O   6,Zr  3)          107.0332         0.448288   
    304. A(Zr  2,O   7,Zr  4)          127.6959         0.499054   
    305. A(Zr  1,O   7,Zr  4)          107.5675         0.453270   
    306. A(Zr  1,O   7,Zr  2)          107.0332         0.448288   
    307. A(Zr  1,O   8,Zr  2)          107.5804         0.452879   
    308. A(Zr  2,O   8,Zr  5)          106.9801         0.448242   
    309. A(Zr  1,O   8,Zr  5)          127.5992         0.499054   
    310. A(Zr  3,O   9,Zr  4)          106.9801         0.448242   
    311. A(Zr  0,O   9,Zr  4)          127.5992         0.499054   
    312. A(Zr  0,O   9,Zr  3)          107.5804         0.452879   
    313. A(Zr  3,O  10,Zr  4)          107.5629         0.453122   
    314. A(Zr  1,O  10,Zr  4)          106.9681         0.448248   
    315. A(Zr  1,O  10,Zr  3)          127.5626         0.499029   
    316. A(Zr  2,O  11,Zr  5)          107.5629         0.453122   
    317. A(Zr  0,O  11,Zr  5)          106.9681         0.448247   
    318. A(Zr  0,O  11,Zr  2)          127.5626         0.499029   
    319. A(Zr  0,O  12,C  36)          131.6090         0.446320   
    320. A(Zr  0,O  13,C  37)          132.0299         0.444108   
    321. A(Zr  0,O  14,C  38)          136.0214         0.440544   
    322. A(Zr  0,O  15,C  39)          128.0114         0.433486   
    323. A(Zr  1,O  16,C  40)          128.0114         0.433486   
    324. A(Zr  1,O  17,C  41)          136.0214         0.440544   
    325. A(Zr  1,O  18,C  42)          132.0299         0.444108   
    326. A(Zr  1,O  19,C  43)          131.6090         0.446320   
    327. A(Zr  2,O  20,C  44)          132.0097         0.444035   
    328. A(Zr  2,O  21,C  38)          128.0181         0.433490   
    329. A(Zr  2,O  22,C  42)          131.6187         0.446424   
    330. A(Zr  2,O  23,C  45)          136.0557         0.440650   
    331. A(Zr  3,O  24,C  46)          136.0557         0.440650   
    332. A(Zr  3,O  25,C  37)          131.6187         0.446424   
    333. A(Zr  3,O  26,C  41)          128.0181         0.433490   
    334. A(Zr  3,O  27,C  47)          132.0097         0.444035   
    335. A(Zr  4,O  28,C  47)          131.5941         0.446166   
    336. A(Zr  4,O  29,C  39)          136.0008         0.440609   
    337. A(Zr  4,O  30,C  43)          132.0034         0.444101   
    338. A(Zr  4,O  31,C  45)          128.0201         0.433452   
    339. A(Zr  5,O  32,C  46)          128.0200         0.433452   
    340. A(Zr  5,O  33,C  36)          132.0034         0.444101   
    341. A(Zr  5,O  34,C  40)          136.0007         0.440609   
    342. A(Zr  5,O  35,C  44)          131.5941         0.446166   
    343. A(O  12,C  36,O  33)          127.0014         0.488589   
    344. A(O  33,C  36,H  58)          116.5867         0.369269   
    345. A(O  12,C  36,H  58)          116.4119         0.368448   
    346. A(O  13,C  37,O  25)          127.0076         0.488598   
    347. A(O  25,C  37,H  51)          116.4070         0.368448   
    348. A(O  13,C  37,H  51)          116.5853         0.369274   
    349. A(O  14,C  38,O  21)          127.4899         0.487766   
    350. A(O  21,C  38,H  50)          116.5729         0.369840   
    351. A(O  14,C  38,H  50)          115.9295         0.366816   
    352. A(O  15,C  39,O  29)          127.4842         0.487777   
    353. A(O  29,C  39,H  54)          115.9317         0.366804   
    354. A(O  15,C  39,H  54)          116.5764         0.369859   
    355. A(O  16,C  40,O  34)          127.4842         0.487777   
    356. A(O  34,C  40,H  56)          115.9317         0.366804   
    357. A(O  16,C  40,H  56)          116.5764         0.369859   
    358. A(O  17,C  41,O  26)          127.4899         0.487766   
    359. A(O  26,C  41,H  48)          116.5729         0.369840   
    360. A(O  17,C  41,H  48)          115.9295         0.366816   
    361. A(O  18,C  42,O  22)          127.0076         0.488598   
    362. A(O  22,C  42,H  49)          116.4070         0.368448   
    363. A(O  18,C  42,H  49)          116.5853         0.369274   
    364. A(O  30,C  43,H  52)          116.5867         0.369269   
    365. A(O  19,C  43,H  52)          116.4119         0.368448   
    366. A(O  19,C  43,O  30)          127.0014         0.488589   
    367. A(O  35,C  44,H  59)          116.4125         0.368447   
    368. A(O  20,C  44,H  59)          116.5753         0.369248   
    369. A(O  20,C  44,O  35)          127.0122         0.488564   
    370. A(O  31,C  45,H  55)          116.5716         0.369854   
    371. A(O  23,C  45,H  55)          115.9256         0.366802   
    372. A(O  23,C  45,O  31)          127.4951         0.487770   
    373. A(O  32,C  46,H  57)          116.5716         0.369854   
    374. A(O  24,C  46,H  57)          115.9256         0.366802   
    375. A(O  24,C  46,O  32)          127.4951         0.487770   
    376. A(O  28,C  47,H  53)          116.4125         0.368447   
    377. A(O  27,C  47,H  53)          116.5753         0.369248   
    378. A(O  27,C  47,O  28)          127.0122         0.488564   
    379. D(O   7,Zr  2,Zr  1,O  10)    -51.2943         0.010000   
    380. D(Zr  5,Zr  2,Zr  1,O  19)    164.3448         0.010000   
    381. D(O   8,Zr  2,Zr  1,Zr  4)    131.3671         0.010000   
    382. D(O   7,Zr  2,Zr  1,O  19)     33.3484         0.010000   
    383. D(O   7,Zr  2,Zr  1,Zr  4)    -23.6958         0.010000   
    384. D(O   7,Zr  2,Zr  1,O  16)    171.4928         0.010000   
    385. D(Zr  5,Zr  2,Zr  1,O   8)    -24.0665         0.010000   
    386. D(Zr  5,Zr  2,Zr  1,Zr  4)    107.3006         0.010000   
    387. D(O   7,Zr  2,Zr  1,O  17)   -108.7391         0.010000   
    388. D(Zr  5,Zr  2,Zr  1,O  17)     22.2573         0.010000   
    389. D(O   7,Zr  2,Zr  1,O   8)   -155.0629         0.010000   
    390. D(Zr  5,Zr  2,Zr  1,O   7)    130.9964         0.010000   
    391. D(Zr  5,Zr  2,Zr  1,O  10)     79.7021         0.010000   
    392. D(O   7,Zr  2,Zr  1,O  18)     98.7270         0.010000   
    393. D(Zr  5,Zr  2,Zr  1,O  16)    -57.5107         0.010000   
    394. D(Zr  5,Zr  2,Zr  1,O  18)   -130.2765         0.010000   
    395. D(O   6,Zr  3,Zr  0,O  11)     51.2943         0.010000   
    396. D(O   6,Zr  3,Zr  0,O  13)    -98.7270         0.010000   
    397. D(O   6,Zr  3,Zr  0,Zr  5)     23.6958         0.010000   
    398. D(O   6,Zr  3,Zr  0,O  12)    -33.3484         0.010000   
    399. D(O   6,Zr  3,Zr  0,O   9)    155.0629         0.010000   
    400. D(O   9,Zr  3,Zr  0,Zr  5)   -131.3671         0.010000   
    401. D(Zr  4,Zr  3,Zr  0,O   6)   -130.9964         0.010000   
    402. D(Zr  4,Zr  3,Zr  0,O  11)    -79.7021         0.010000   
    403. D(Zr  4,Zr  3,Zr  0,Zr  5)   -107.3006         0.010000   
    404. D(Zr  4,Zr  3,Zr  0,O   9)     24.0665         0.010000   
    405. D(Zr  4,Zr  3,Zr  0,O  15)     57.5107         0.010000   
    406. D(Zr  4,Zr  3,Zr  0,O  13)    130.2765         0.010000   
    407. D(O   6,Zr  3,Zr  0,O  15)   -171.4928         0.010000   
    408. D(O   6,Zr  3,Zr  0,O  14)    108.7391         0.010000   
    409. D(Zr  4,Zr  3,Zr  0,O  12)   -164.3448         0.010000   
    410. D(Zr  4,Zr  3,Zr  0,O  14)    -22.2573         0.010000   
    411. D(O   7,Zr  4,Zr  3,O   6)     52.1872         0.010000   
    412. D(Zr  1,Zr  4,Zr  3,Zr  0)    107.2564         0.010000   
    413. D(O   7,Zr  4,Zr  3,O   9)    103.6065         0.010000   
    414. D(O   7,Zr  4,Zr  1,O  17)    176.0256         0.010000   
    415. D(Zr  3,Zr  4,Zr  1,O  18)   -167.6526         0.010000   
    416. D(Zr  1,Zr  4,Zr  3,O  27)   -130.3306         0.010000   
    417. D(Zr  1,Zr  4,Zr  3,O  10)    -24.1144         0.010000   
    418. D(O   7,Zr  4,Zr  3,O  24)     -5.0514         0.010000   
    419. D(Zr  1,Zr  4,Zr  3,O  25)    164.2467         0.010000   
    420. D(O   7,Zr  4,Zr  3,O  26)    -84.9457         0.010000   
    421. D(Zr  1,Zr  4,Zr  3,O  24)     22.3836         0.010000   
    422. D(O   9,Zr  4,Zr  1,Zr  2)    -79.6646         0.010000   
    423. D(O   7,Zr  4,Zr  3,O  10)    -51.5494         0.010000   
    424. D(Zr  3,Zr  4,Zr  1,O  16)    -44.0515         0.010000   
    425. D(O   7,Zr  4,Zr  1,O  16)     87.2186         0.010000   
    426. D(O   7,Zr  4,Zr  1,O  19)   -104.5296         0.010000   
    427. D(Zr  1,Zr  4,Zr  3,O  26)    -57.5108         0.010000   
    428. D(Zr  3,Zr  4,Zr  1,O  10)     23.8291         0.010000   
    429. D(O   7,Zr  4,Zr  1,O  10)    155.0991         0.010000   
    430. D(Zr  1,Zr  4,Zr  3,O   6)     79.6222         0.010000   
    431. D(O   7,Zr  4,Zr  3,O  25)    136.8117         0.010000   
    432. D(O   7,Zr  4,Zr  3,Zr  0)     79.8214         0.010000   
    433. D(O   7,Zr  4,Zr  1,O  18)    -36.3825         0.010000   
    434. D(Zr  3,Zr  4,Zr  1,Zr  2)   -107.3065         0.010000   
    435. D(Zr  3,Zr  4,Zr  1,O  17)     44.7556         0.010000   
    436. D(Zr  3,Zr  4,Zr  1,O  19)    124.2003         0.010000   
    437. D(O   7,Zr  4,Zr  1,O   8)     51.3515         0.010000   
    438. D(O   7,Zr  4,Zr  1,Zr  2)     23.9636         0.010000   
    439. D(Zr  3,Zr  4,Zr  1,O   8)    -79.9186         0.010000   
    440. D(Zr  1,Zr  4,Zr  3,O   9)    131.0415         0.010000   
    441. D(O   7,Zr  4,Zr  3,O  27)   -157.7656         0.010000   
    442. D(Zr  3,Zr  4,Zr  1,O   7)   -131.2701         0.010000   
    443. D(O   6,Zr  5,Zr  2,O  23)      5.0514         0.010000   
    444. D(O   6,Zr  5,Zr  2,O  22)   -136.8117         0.010000   
    445. D(O   6,Zr  5,Zr  2,O  20)    157.7656         0.010000   
    446. D(Zr  0,Zr  5,Zr  2,O  23)    -22.3836         0.010000   
    447. D(Zr  0,Zr  5,Zr  2,O  20)    130.3306         0.010000   
    448. D(Zr  0,Zr  5,Zr  2,O  22)   -164.2467         0.010000   
    449. D(O   6,Zr  5,Zr  2,Zr  1)    -79.8215         0.010000   
    450. D(O   6,Zr  5,Zr  2,O   7)    -52.1872         0.010000   
    451. D(O   6,Zr  5,Zr  2,O   8)   -103.6065         0.010000   
    452. D(Zr  0,Zr  5,Zr  2,O   7)    -79.6222         0.010000   
    453. D(O   8,Zr  5,Zr  0,Zr  3)     79.6646         0.010000   
    454. D(O   6,Zr  5,Zr  2,O  11)     51.5494         0.010000   
    455. D(O   6,Zr  5,Zr  0,O  12)    104.5296         0.010000   
    456. D(O   6,Zr  5,Zr  0,O  14)   -176.0256         0.010000   
    457. D(Zr  2,Zr  5,Zr  0,O   9)     79.9186         0.010000   
    458. D(Zr  2,Zr  5,Zr  0,O  15)     44.0515         0.010000   
    459. D(Zr  0,Zr  5,Zr  2,O   8)   -131.0415         0.010000   
    460. D(Zr  2,Zr  5,Zr  0,O  14)    -44.7556         0.010000   
    461. D(Zr  0,Zr  5,Zr  2,O  11)     24.1144         0.010000   
    462. D(Zr  0,Zr  5,Zr  2,O  21)     57.5107         0.010000   
    463. D(O   6,Zr  5,Zr  0,O   9)    -51.3515         0.010000   
    464. D(O   6,Zr  5,Zr  2,O  21)     84.9457         0.010000   
    465. D(O   6,Zr  5,Zr  0,Zr  3)    -23.9636         0.010000   
    466. D(Zr  2,Zr  5,Zr  0,O  12)   -124.2003         0.010000   
    467. D(Zr  0,Zr  5,Zr  2,Zr  1)   -107.2564         0.010000   
    468. D(Zr  2,Zr  5,Zr  0,Zr  3)    107.3065         0.010000   
    469. D(O   6,Zr  5,Zr  0,O  11)   -155.0991         0.010000   
    470. D(Zr  2,Zr  5,Zr  0,O  11)    -23.8291         0.010000   
    471. D(Zr  2,Zr  5,Zr  0,O   6)    131.2701         0.010000   
    472. D(O   6,Zr  5,Zr  0,O  13)     36.3825         0.010000   
    473. D(Zr  2,Zr  5,Zr  0,O  13)    167.6526         0.010000   
    474. D(O   6,Zr  5,Zr  0,O  15)    -87.2185         0.010000   
    475. D(Zr  3,O   6,Zr  5,O   8)     48.9890         0.010000   
    476. D(Zr  3,O   6,Zr  5,Zr  2)     86.3146         0.010000   
    477. D(Zr  3,O   6,Zr  5,Zr  0)    129.2691         0.010000   
    478. D(Zr  0,O   6,Zr  5,O  32)    146.7917         0.010000   
    479. D(Zr  0,O   6,Zr  3,O   9)     14.7223         0.010000   
    480. D(Zr  5,O   6,Zr  3,O   9)   -114.7496         0.010000   
    481. D(Zr  0,O   6,Zr  5,Zr  2)    -42.9545         0.010000   
    482. D(Zr  0,O   6,Zr  5,O   8)    -80.2801         0.010000   
    483. D(Zr  5,O   6,Zr  3,Zr  0)   -129.4719         0.010000   
    484. D(Zr  0,O   6,Zr  3,O  26)    158.8844         0.010000   
    485. D(Zr  0,O   6,Zr  5,O  35)     16.4471         0.010000   
    486. D(Zr  0,O   6,Zr  3,O  25)    -72.5585         0.010000   
    487. D(Zr  0,O   6,Zr  3,O  24)   -159.5308         0.010000   
    488. D(Zr  0,O   6,Zr  3,O  27)    -19.9990         0.010000   
    489. D(Zr  0,O   6,Zr  5,O  34)   -158.0258         0.010000   
    490. D(Zr  5,O   6,Zr  0,Zr  3)    140.1568         0.010000   
    491. D(Zr  5,O   6,Zr  3,Zr  4)    -86.2969         0.010000   
    492. D(Zr  0,O   6,Zr  5,O  11)    -14.8435         0.010000   
    493. D(Zr  3,O   6,Zr  0,O  14)   -133.6959         0.010000   
    494. D(Zr  3,O   6,Zr  0,O  15)     13.1207         0.010000   
    495. D(Zr  3,O   6,Zr  0,O  13)     73.9033         0.010000   
    496. D(Zr  3,O   6,Zr  0,O  12)    150.2288         0.010000   
    497. D(Zr  5,O   6,Zr  0,O  11)     15.9259         0.010000   
    498. D(Zr  3,O   6,Zr  0,O  11)   -124.2309         0.010000   
    499. D(Zr  5,O   6,Zr  0,O   9)    124.2908         0.010000   
    500. D(Zr  3,O   6,Zr  0,Zr  5)   -140.1568         0.010000   
    501. D(Zr  0,O   6,Zr  5,O  33)     67.7015         0.010000   
    502. D(Zr  3,O   6,Zr  0,O   9)    -15.8661         0.010000   
    503. D(Zr  0,O   6,Zr  3,O  10)     80.3333         0.010000   
    504. D(Zr  0,O   6,Zr  3,Zr  4)     43.1751         0.010000   
    505. D(Zr  2,O   7,Zr  1,Zr  4)    140.1568         0.010000   
    506. D(Zr  2,O   7,Zr  4,O   9)    -48.9890         0.010000   
    507. D(Zr  2,O   7,Zr  4,Zr  1)   -129.2691         0.010000   
    508. D(Zr  1,O   7,Zr  4,O  31)   -146.7917         0.010000   
    509. D(Zr  1,O   7,Zr  4,O  30)    -67.7015         0.010000   
    510. D(Zr  1,O   7,Zr  4,O  28)    -16.4471         0.010000   
    511. D(Zr  1,O   7,Zr  4,O  10)     14.8435         0.010000   
    512. D(Zr  1,O   7,Zr  4,O   9)     80.2801         0.010000   
    513. D(Zr  1,O   7,Zr  4,Zr  3)     42.9545         0.010000   
    514. D(Zr  4,O   7,Zr  2,O   8)    114.7496         0.010000   
    515. D(Zr  4,O   7,Zr  2,Zr  5)     86.2969         0.010000   
    516. D(Zr  4,O   7,Zr  2,Zr  1)    129.4719         0.010000   
    517. D(Zr  1,O   7,Zr  2,O  23)    159.5308         0.010000   
    518. D(Zr  1,O   7,Zr  2,O  22)     72.5585         0.010000   
    519. D(Zr  1,O   7,Zr  2,O  21)   -158.8844         0.010000   
    520. D(Zr  1,O   7,Zr  2,O  20)     19.9990         0.010000   
    521. D(Zr  1,O   7,Zr  2,O  11)    -80.3333         0.010000   
    522. D(Zr  1,O   7,Zr  2,O   8)    -14.7223         0.010000   
    523. D(Zr  4,O   7,Zr  1,O  10)    -15.9259         0.010000   
    524. D(Zr  4,O   7,Zr  1,Zr  2)   -140.1568         0.010000   
    525. D(Zr  2,O   7,Zr  1,O  19)   -150.2288         0.010000   
    526. D(Zr  2,O   7,Zr  1,O  18)    -73.9033         0.010000   
    527. D(Zr  4,O   7,Zr  1,O   8)   -124.2908         0.010000   
    528. D(Zr  1,O   7,Zr  4,O  29)    158.0258         0.010000   
    529. D(Zr  2,O   7,Zr  1,O  17)    133.6959         0.010000   
    530. D(Zr  2,O   7,Zr  1,O  16)    -13.1207         0.010000   
    531. D(Zr  2,O   7,Zr  1,O  10)    124.2309         0.010000   
    532. D(Zr  2,O   7,Zr  4,Zr  3)    -86.3146         0.010000   
    533. D(Zr  2,O   7,Zr  1,O   8)     15.8661         0.010000   
    534. D(Zr  1,O   7,Zr  2,Zr  5)    -43.1751         0.010000   
    535. D(Zr  2,O   8,Zr  5,O   6)     80.3138         0.010000   
    536. D(Zr  2,O   8,Zr  5,Zr  0)     43.1416         0.010000   
    537. D(Zr  1,O   8,Zr  5,O  35)    158.0467         0.010000   
    538. D(Zr  1,O   8,Zr  5,O  33)   -149.4342         0.010000   
    539. D(Zr  1,O   8,Zr  5,O  32)     29.5215         0.010000   
    540. D(Zr  1,O   8,Zr  5,O  11)   -114.6598         0.010000   
    541. D(Zr  1,O   8,Zr  5,O   6)    -49.0133         0.010000   
    542. D(Zr  1,O   8,Zr  5,Zr  2)   -129.3271         0.010000   
    543. D(Zr  1,O   8,Zr  5,Zr  0)    -86.1855         0.010000   
    544. D(Zr  5,O   8,Zr  2,O  11)    -15.8089         0.010000   
    545. D(Zr  5,O   8,Zr  2,Zr  1)   -139.9914         0.010000   
    546. D(Zr  1,O   8,Zr  2,O  23)      6.3476         0.010000   
    547. D(Zr  1,O   8,Zr  2,O  22)    -69.6517         0.010000   
    548. D(Zr  1,O   8,Zr  2,O  21)    153.1907         0.010000   
    549. D(Zr  1,O   8,Zr  2,O  20)   -146.0114         0.010000   
    550. D(Zr  1,O   8,Zr  2,O  11)    124.1825         0.010000   
    551. D(Zr  1,O   8,Zr  2,O   7)     15.9391         0.010000   
    552. D(Zr  5,O   8,Zr  2,O   7)   -124.0523         0.010000   
    553. D(Zr  1,O   8,Zr  2,Zr  5)    139.9914         0.010000   
    554. D(Zr  5,O   8,Zr  1,O   7)    114.2407         0.010000   
    555. D(Zr  5,O   8,Zr  1,Zr  4)     86.2083         0.010000   
    556. D(Zr  5,O   8,Zr  1,Zr  2)    129.0982         0.010000   
    557. D(Zr  2,O   8,Zr  1,O  19)     16.7441         0.010000   
    558. D(Zr  2,O   8,Zr  1,O  18)     67.7751         0.010000   
    559. D(Zr  2,O   8,Zr  1,O  17)   -158.0087         0.010000   
    560. D(Zr  1,O   8,Zr  5,O  34)     71.0272         0.010000   
    561. D(Zr  2,O   8,Zr  1,O  16)    146.9135         0.010000   
    562. D(Zr  2,O   8,Zr  1,O  10)    -80.2048         0.010000   
    563. D(Zr  2,O   8,Zr  1,O   7)    -14.8575         0.010000   
    564. D(Zr  2,O   8,Zr  1,Zr  4)    -42.8898         0.010000   
    565. D(Zr  3,O   9,Zr  4,O   7)    -80.3138         0.010000   
    566. D(Zr  0,O   9,Zr  4,O  31)    -29.5215         0.010000   
    567. D(Zr  0,O   9,Zr  4,O  30)    149.4342         0.010000   
    568. D(Zr  0,O   9,Zr  4,O  29)    -71.0272         0.010000   
    569. D(Zr  0,O   9,Zr  4,O  28)   -158.0467         0.010000   
    570. D(Zr  0,O   9,Zr  4,O  10)    114.6598         0.010000   
    571. D(Zr  0,O   9,Zr  4,O   7)     49.0133         0.010000   
    572. D(Zr  0,O   9,Zr  4,Zr  3)    129.3271         0.010000   
    573. D(Zr  4,O   9,Zr  3,O  10)     15.8089         0.010000   
    574. D(Zr  4,O   9,Zr  3,O   6)    124.0523         0.010000   
    575. D(Zr  4,O   9,Zr  3,Zr  0)    139.9914         0.010000   
    576. D(Zr  0,O   9,Zr  3,O  27)    146.0114         0.010000   
    577. D(Zr  0,O   9,Zr  3,O  26)   -153.1907         0.010000   
    578. D(Zr  0,O   9,Zr  3,O  25)     69.6516         0.010000   
    579. D(Zr  0,O   9,Zr  3,O  24)     -6.3477         0.010000   
    580. D(Zr  0,O   9,Zr  3,O  10)   -124.1825         0.010000   
    581. D(Zr  0,O   9,Zr  3,O   6)    -15.9391         0.010000   
    582. D(Zr  0,O   9,Zr  3,Zr  4)   -139.9914         0.010000   
    583. D(Zr  4,O   9,Zr  0,O   6)   -114.2407         0.010000   
    584. D(Zr  0,O   9,Zr  4,Zr  1)     86.1855         0.010000   
    585. D(Zr  4,O   9,Zr  0,Zr  5)    -86.2083         0.010000   
    586. D(Zr  4,O   9,Zr  0,Zr  3)   -129.0982         0.010000   
    587. D(Zr  3,O   9,Zr  0,O  15)   -146.9135         0.010000   
    588. D(Zr  3,O   9,Zr  0,O  14)    158.0087         0.010000   
    589. D(Zr  3,O   9,Zr  0,O  13)    -67.7751         0.010000   
    590. D(Zr  3,O   9,Zr  0,O  12)    -16.7441         0.010000   
    591. D(Zr  3,O   9,Zr  0,O  11)     80.2048         0.010000   
    592. D(Zr  3,O   9,Zr  4,Zr  1)    -43.1416         0.010000   
    593. D(Zr  3,O   9,Zr  0,O   6)     14.8575         0.010000   
    594. D(Zr  3,O   9,Zr  0,Zr  5)     42.8899         0.010000   
    595. D(Zr  3,O  10,Zr  4,O   9)     15.8905         0.010000   
    596. D(Zr  3,O  10,Zr  4,O   7)    124.0745         0.010000   
    597. D(Zr  3,O  10,Zr  4,Zr  1)    139.9169         0.010000   
    598. D(Zr  1,O  10,Zr  4,O  31)     13.3593         0.010000   
    599. D(Zr  1,O  10,Zr  4,O  30)     74.0380         0.010000   
    600. D(Zr  1,O  10,Zr  4,O  29)   -133.5396         0.010000   
    601. D(Zr  1,O  10,Zr  4,O  28)    150.4207         0.010000   
    602. D(Zr  1,O  10,Zr  4,O   7)    -15.8424         0.010000   
    603. D(Zr  1,O  10,Zr  4,Zr  3)   -139.9169         0.010000   
    604. D(Zr  4,O  10,Zr  3,O   6)    -80.1610         0.010000   
    605. D(Zr  1,O  10,Zr  3,O  27)   -163.1940         0.010000   
    606. D(Zr  1,O  10,Zr  3,O  26)    -84.0136         0.010000   
    607. D(Zr  1,O  10,Zr  3,O  25)    145.6791         0.010000   
    608. D(Zr  1,O  10,Zr  3,O  24)    -28.8823         0.010000   
    609. D(Zr  1,O  10,Zr  3,O   9)    114.2132         0.010000   
    610. D(Zr  1,O  10,Zr  3,O   6)     48.8580         0.010000   
    611. D(Zr  1,O  10,Zr  3,Zr  4)    129.0190         0.010000   
    612. D(Zr  4,O  10,Zr  3,Zr  0)    -42.8716         0.010000   
    613. D(Zr  1,O  10,Zr  3,Zr  0)     86.1474         0.010000   
    614. D(Zr  4,O  10,Zr  1,O   7)     14.6999         0.010000   
    615. D(Zr  4,O  10,Zr  1,Zr  2)     43.0796         0.010000   
    616. D(Zr  1,O  10,Zr  4,O   9)   -124.0263         0.010000   
    617. D(Zr  3,O  10,Zr  1,O  19)    158.1290         0.010000   
    618. D(Zr  3,O  10,Zr  1,O  18)   -149.4706         0.010000   
    619. D(Zr  3,O  10,Zr  1,O  17)     71.1169         0.010000   
    620. D(Zr  3,O  10,Zr  1,O  16)     29.6403         0.010000   
    621. D(Zr  3,O  10,Zr  1,O   8)    -49.0083         0.010000   
    622. D(Zr  3,O  10,Zr  1,O   7)   -114.5463         0.010000   
    623. D(Zr  3,O  10,Zr  1,Zr  4)   -129.2463         0.010000   
    624. D(Zr  3,O  10,Zr  1,Zr  2)    -86.1667         0.010000   
    625. D(Zr  2,O  11,Zr  0,O  15)    -29.6404         0.010000   
    626. D(Zr  2,O  11,Zr  0,O  14)    -71.1169         0.010000   
    627. D(Zr  2,O  11,Zr  0,O  13)    149.4706         0.010000   
    628. D(Zr  2,O  11,Zr  0,O  12)   -158.1290         0.010000   
    629. D(Zr  2,O  11,Zr  0,O   9)     49.0083         0.010000   
    630. D(Zr  2,O  11,Zr  0,O   6)    114.5463         0.010000   
    631. D(Zr  2,O  11,Zr  0,Zr  5)    129.2463         0.010000   
    632. D(Zr  5,O  11,Zr  0,Zr  3)    -43.0796         0.010000   
    633. D(Zr  2,O  11,Zr  0,Zr  3)     86.1666         0.010000   
    634. D(Zr  2,O  11,Zr  5,O   8)    -15.8905         0.010000   
    635. D(Zr  2,O  11,Zr  5,O   6)   -124.0745         0.010000   
    636. D(Zr  2,O  11,Zr  5,Zr  0)   -139.9168         0.010000   
    637. D(Zr  0,O  11,Zr  5,O  35)   -150.4208         0.010000   
    638. D(Zr  0,O  11,Zr  5,O  34)    133.5396         0.010000   
    639. D(Zr  0,O  11,Zr  5,O  32)    -13.3594         0.010000   
    640. D(Zr  0,O  11,Zr  5,O   8)    124.0263         0.010000   
    641. D(Zr  0,O  11,Zr  5,O   6)     15.8424         0.010000   
    642. D(Zr  0,O  11,Zr  5,Zr  2)    139.9168         0.010000   
    643. D(Zr  5,O  11,Zr  2,O   7)     80.1610         0.010000   
    644. D(Zr  5,O  11,Zr  2,Zr  1)     42.8716         0.010000   
    645. D(Zr  0,O  11,Zr  2,O  23)     28.8823         0.010000   
    646. D(Zr  0,O  11,Zr  2,O  22)   -145.6791         0.010000   
    647. D(Zr  0,O  11,Zr  2,O  21)     84.0136         0.010000   
    648. D(Zr  0,O  11,Zr  5,O  33)    -74.0380         0.010000   
    649. D(Zr  0,O  11,Zr  2,O  20)    163.1940         0.010000   
    650. D(Zr  0,O  11,Zr  2,O   8)   -114.2132         0.010000   
    651. D(Zr  0,O  11,Zr  2,O   7)    -48.8580         0.010000   
    652. D(Zr  0,O  11,Zr  2,Zr  5)   -129.0190         0.010000   
    653. D(Zr  0,O  11,Zr  2,Zr  1)    -86.1474         0.010000   
    654. D(Zr  5,O  11,Zr  0,O   6)    -14.6999         0.010000   
    655. D(C  36,O  12,Zr  0,O  15)   -172.7000         0.010000   
    656. D(C  36,O  12,Zr  0,O  14)   -108.7653         0.010000   
    657. D(C  36,O  12,Zr  0,O  13)    119.9520         0.010000   
    658. D(C  36,O  12,Zr  0,O  11)    -33.9455         0.010000   
    659. D(C  36,O  12,Zr  0,O   9)     66.7490         0.010000   
    660. D(C  36,O  12,Zr  0,O   6)     36.9784         0.010000   
    661. D(C  36,O  12,Zr  0,Zr  5)      3.4764         0.010000   
    662. D(C  36,O  12,Zr  0,Zr  3)     55.4474         0.010000   
    663. D(C  37,O  13,Zr  0,O  15)    109.7481         0.010000   
    664. D(C  37,O  13,Zr  0,O  14)    163.3912         0.010000   
    665. D(C  37,O  13,Zr  0,O  12)   -123.9882         0.010000   
    666. D(C  37,O  13,Zr  0,O  11)    -69.5976         0.010000   
    667. D(C  37,O  13,Zr  0,O   9)     34.5060         0.010000   
    668. D(C  37,O  13,Zr  0,O   6)    -36.5597         0.010000   
    669. D(C  37,O  13,Zr  0,Zr  5)    -56.4637         0.010000   
    670. D(C  37,O  13,Zr  0,Zr  3)     -1.5770         0.010000   
    671. D(C  38,O  14,Zr  0,O  15)   -151.1250         0.010000   
    672. D(C  38,O  14,Zr  0,O  13)    151.8627         0.010000   
    673. D(C  38,O  14,Zr  0,O  12)     83.7040         0.010000   
    674. D(C  38,O  14,Zr  0,O  11)     -1.6322         0.010000   
    675. D(C  38,O  14,Zr  0,O   9)    -93.8923         0.010000   
    676. D(C  38,O  14,Zr  0,O   6)      7.6321         0.010000   
    677. D(C  38,O  14,Zr  0,Zr  5)     11.5396         0.010000   
    678. D(C  38,O  14,Zr  0,Zr  3)    -62.5856         0.010000   
    679. D(C  39,O  15,Zr  0,O  14)     98.2254         0.010000   
    680. D(C  39,O  15,Zr  0,O  13)   -123.9460         0.010000   
    681. D(C  39,O  15,Zr  0,O  12)    170.2178         0.010000   
    682. D(C  39,O  15,Zr  0,O  11)     55.5659         0.010000   
    683. D(C  39,O  15,Zr  0,O   9)    -33.8428         0.010000   
    684. D(C  39,O  15,Zr  0,O   6)    -62.1388         0.010000   
    685. D(C  39,O  15,Zr  0,Zr  5)      3.4783         0.010000   
    686. D(C  39,O  15,Zr  0,Zr  3)    -54.3031         0.010000   
    687. D(C  40,O  16,Zr  1,O  19)   -170.2178         0.010000   
    688. D(C  40,O  16,Zr  1,O  18)    123.9460         0.010000   
    689. D(C  40,O  16,Zr  1,O  17)    -98.2254         0.010000   
    690. D(C  40,O  16,Zr  1,O  10)    -55.5659         0.010000   
    691. D(C  40,O  16,Zr  1,O   8)     33.8428         0.010000   
    692. D(C  40,O  16,Zr  1,O   7)     62.1388         0.010000   
    693. D(C  40,O  16,Zr  1,Zr  4)     -3.4783         0.010000   
    694. D(C  40,O  16,Zr  1,Zr  2)     54.3031         0.010000   
    695. D(C  41,O  17,Zr  1,O  19)    -83.7040         0.010000   
    696. D(C  41,O  17,Zr  1,O  18)   -151.8627         0.010000   
    697. D(C  41,O  17,Zr  1,O  16)    151.1250         0.010000   
    698. D(C  41,O  17,Zr  1,O  10)      1.6321         0.010000   
    699. D(C  41,O  17,Zr  1,O   8)     93.8923         0.010000   
    700. D(C  41,O  17,Zr  1,O   7)     -7.6321         0.010000   
    701. D(C  41,O  17,Zr  1,Zr  4)    -11.5396         0.010000   
    702. D(C  41,O  17,Zr  1,Zr  2)     62.5856         0.010000   
    703. D(C  42,O  18,Zr  1,O  19)    123.9882         0.010000   
    704. D(C  42,O  18,Zr  1,O  17)   -163.3912         0.010000   
    705. D(C  42,O  18,Zr  1,O  16)   -109.7481         0.010000   
    706. D(C  42,O  18,Zr  1,O  10)     69.5976         0.010000   
    707. D(C  42,O  18,Zr  1,O   8)    -34.5060         0.010000   
    708. D(C  42,O  18,Zr  1,O   7)     36.5597         0.010000   
    709. D(C  42,O  18,Zr  1,Zr  4)     56.4637         0.010000   
    710. D(C  42,O  18,Zr  1,Zr  2)      1.5770         0.010000   
    711. D(C  43,O  19,Zr  1,O  18)   -119.9520         0.010000   
    712. D(C  43,O  19,Zr  1,O  17)    108.7653         0.010000   
    713. D(C  43,O  19,Zr  1,O  16)    172.7000         0.010000   
    714. D(C  43,O  19,Zr  1,O  10)     33.9455         0.010000   
    715. D(C  43,O  19,Zr  1,O   8)    -66.7490         0.010000   
    716. D(C  43,O  19,Zr  1,O   7)    -36.9784         0.010000   
    717. D(C  43,O  19,Zr  1,Zr  4)     -3.4764         0.010000   
    718. D(C  43,O  19,Zr  1,Zr  2)    -55.4474         0.010000   
    719. D(C  44,O  20,Zr  2,O  23)    163.4370         0.010000   
    720. D(C  44,O  20,Zr  2,O  22)   -123.9879         0.010000   
    721. D(C  44,O  20,Zr  2,O  21)    109.7467         0.010000   
    722. D(C  44,O  20,Zr  2,O  11)     34.5059         0.010000   
    723. D(C  44,O  20,Zr  2,O   8)    -36.5913         0.010000   
    724. D(C  44,O  20,Zr  2,O   7)    -69.4313         0.010000   
    725. D(C  44,O  20,Zr  2,Zr  5)     -1.5830         0.010000   
    726. D(C  44,O  20,Zr  2,Zr  1)    -56.4522         0.010000   
    727. D(C  38,O  21,Zr  2,O  23)     98.2292         0.010000   
    728. D(C  38,O  21,Zr  2,O  22)    170.1865         0.010000   
    729. D(C  38,O  21,Zr  2,O  20)   -123.9210         0.010000   
    730. D(C  38,O  21,Zr  2,O  11)    -33.8000         0.010000   
    731. D(C  38,O  21,Zr  2,O   8)    -62.1227         0.010000   
    732. D(C  38,O  21,Zr  2,O   7)     55.4658         0.010000   
    733. D(C  38,O  21,Zr  2,Zr  5)    -54.2370         0.010000   
    734. D(C  38,O  21,Zr  2,Zr  1)      3.5871         0.010000   
    735. D(C  42,O  22,Zr  2,O  23)   -108.8294         0.010000   
    736. D(C  42,O  22,Zr  2,O  21)   -172.7662         0.010000   
    737. D(C  42,O  22,Zr  2,O  20)    119.8196         0.010000   
    738. D(C  42,O  22,Zr  2,O  11)     66.5206         0.010000   
    739. D(C  42,O  22,Zr  2,O   8)     36.8678         0.010000   
    740. D(C  42,O  22,Zr  2,O   7)    -34.0074         0.010000   
    741. D(C  42,O  22,Zr  2,Zr  5)     55.2708         0.010000   
    742. D(C  42,O  22,Zr  2,Zr  1)      3.3623         0.010000   
    743. D(C  45,O  23,Zr  2,O  22)     83.5880         0.010000   
    744. D(C  45,O  23,Zr  2,O  21)   -151.2004         0.010000   
    745. D(C  45,O  23,Zr  2,O  20)    151.7346         0.010000   
    746. D(C  45,O  23,Zr  2,O  11)    -93.9237         0.010000   
    747. D(C  45,O  23,Zr  2,O   8)      7.5935         0.010000   
    748. D(C  45,O  23,Zr  2,O   7)     -1.7915         0.010000   
    749. D(C  45,O  23,Zr  2,Zr  5)    -62.5140         0.010000   
    750. D(C  45,O  23,Zr  2,Zr  1)     11.4306         0.010000   
    751. D(C  46,O  24,Zr  3,O  27)   -151.7345         0.010000   
    752. D(C  46,O  24,Zr  3,O  26)    151.2005         0.010000   
    753. D(C  46,O  24,Zr  3,O  25)    -83.5880         0.010000   
    754. D(C  46,O  24,Zr  3,O  10)     93.9237         0.010000   
    755. D(C  46,O  24,Zr  3,O   9)     -7.5934         0.010000   
    756. D(C  46,O  24,Zr  3,O   6)      1.7915         0.010000   
    757. D(C  46,O  24,Zr  3,Zr  4)     62.5140         0.010000   
    758. D(C  46,O  24,Zr  3,Zr  0)    -11.4305         0.010000   
    759. D(C  37,O  25,Zr  3,O  27)   -119.8196         0.010000   
    760. D(C  37,O  25,Zr  3,O  26)    172.7662         0.010000   
    761. D(C  37,O  25,Zr  3,O  24)    108.8294         0.010000   
    762. D(C  37,O  25,Zr  3,O  10)    -66.5205         0.010000   
    763. D(C  37,O  25,Zr  3,O   9)    -36.8678         0.010000   
    764. D(C  37,O  25,Zr  3,O   6)     34.0074         0.010000   
    765. D(C  37,O  25,Zr  3,Zr  4)    -55.2708         0.010000   
    766. D(C  37,O  25,Zr  3,Zr  0)     -3.3623         0.010000   
    767. D(C  41,O  26,Zr  3,O  27)    123.9210         0.010000   
    768. D(C  41,O  26,Zr  3,O  25)   -170.1865         0.010000   
    769. D(C  41,O  26,Zr  3,O  24)    -98.2292         0.010000   
    770. D(C  41,O  26,Zr  3,O  10)     33.8000         0.010000   
    771. D(C  41,O  26,Zr  3,O   9)     62.1227         0.010000   
    772. D(C  41,O  26,Zr  3,O   6)    -55.4658         0.010000   
    773. D(C  41,O  26,Zr  3,Zr  4)     54.2370         0.010000   
    774. D(C  41,O  26,Zr  3,Zr  0)     -3.5871         0.010000   
    775. D(C  47,O  27,Zr  3,O  26)   -109.7466         0.010000   
    776. D(C  47,O  27,Zr  3,O  25)    123.9879         0.010000   
    777. D(C  47,O  27,Zr  3,O  24)   -163.4370         0.010000   
    778. D(C  47,O  27,Zr  3,O  10)    -34.5059         0.010000   
    779. D(C  47,O  27,Zr  3,O   9)     36.5913         0.010000   
    780. D(C  47,O  27,Zr  3,O   6)     69.4313         0.010000   
    781. D(C  47,O  27,Zr  3,Zr  4)      1.5830         0.010000   
    782. D(C  47,O  27,Zr  3,Zr  0)     56.4522         0.010000   
    783. D(C  47,O  28,Zr  4,O  31)   -172.8173         0.010000   
    784. D(C  47,O  28,Zr  4,O  30)    119.8330         0.010000   
    785. D(C  47,O  28,Zr  4,O  29)   -108.8701         0.010000   
    786. D(C  47,O  28,Zr  4,O  10)     36.9098         0.010000   
    787. D(C  47,O  28,Zr  4,O   9)    -34.0290         0.010000   
    788. D(C  47,O  28,Zr  4,O   7)     66.3996         0.010000   
    789. D(C  47,O  28,Zr  4,Zr  3)      3.3949         0.010000   
    790. D(C  47,O  28,Zr  4,Zr  1)     55.2885         0.010000   
    791. D(C  39,O  29,Zr  4,O  31)   -151.2806         0.010000   
    792. D(C  39,O  29,Zr  4,O  30)    151.7637         0.010000   
    793. D(C  39,O  29,Zr  4,O  28)     83.5412         0.010000   
    794. D(C  39,O  29,Zr  4,O  10)      7.5162         0.010000   
    795. D(C  39,O  29,Zr  4,O   9)     -1.7949         0.010000   
    796. D(C  39,O  29,Zr  4,O   7)    -93.9350         0.010000   
    797. D(C  39,O  29,Zr  4,Zr  3)     11.3741         0.010000   
    798. D(C  39,O  29,Zr  4,Zr  1)    -62.7520         0.010000   
    799. D(C  43,O  30,Zr  4,O  31)    109.6420         0.010000   
    800. D(C  43,O  30,Zr  4,O  29)    163.2456         0.010000   
    801. D(C  43,O  30,Zr  4,O  28)   -124.0906         0.010000   
    802. D(C  43,O  30,Zr  4,O  10)    -36.6836         0.010000   
    803. D(C  43,O  30,Zr  4,O   9)    -69.5896         0.010000   
    804. D(C  43,O  30,Zr  4,O   7)     34.4077         0.010000   
    805. D(C  43,O  30,Zr  4,Zr  3)    -56.5304         0.010000   
    806. D(C  43,O  30,Zr  4,Zr  1)     -1.6529         0.010000   
    807. D(C  45,O  31,Zr  4,O  30)   -124.0232         0.010000   
    808. D(C  45,O  31,Zr  4,O  29)     98.0962         0.010000   
    809. D(C  45,O  31,Zr  4,O  28)    170.1002         0.010000   
    810. D(C  45,O  31,Zr  4,O  10)    -62.3294         0.010000   
    811. D(C  45,O  31,Zr  4,O   9)     55.4035         0.010000   
    812. D(C  45,O  31,Zr  4,O   7)    -33.8190         0.010000   
    813. D(C  45,O  31,Zr  4,Zr  3)      3.2272         0.010000   
    814. D(C  45,O  31,Zr  4,Zr  1)    -54.3487         0.010000   
    815. D(C  46,O  32,Zr  5,O  35)   -170.1001         0.010000   
    816. D(C  46,O  32,Zr  5,O  34)    -98.0962         0.010000   
    817. D(C  46,O  32,Zr  5,O  33)    124.0232         0.010000   
    818. D(C  46,O  32,Zr  5,O  11)     62.3294         0.010000   
    819. D(C  46,O  32,Zr  5,O   8)    -55.4035         0.010000   
    820. D(C  46,O  32,Zr  5,O   6)     33.8190         0.010000   
    821. D(C  46,O  32,Zr  5,Zr  2)     -3.2271         0.010000   
    822. D(C  46,O  32,Zr  5,Zr  0)     54.3487         0.010000   
    823. D(C  36,O  33,Zr  5,O  35)    124.0906         0.010000   
    824. D(C  36,O  33,Zr  5,O  34)   -163.2456         0.010000   
    825. D(C  36,O  33,Zr  5,O  32)   -109.6420         0.010000   
    826. D(C  36,O  33,Zr  5,O  11)     36.6836         0.010000   
    827. D(C  36,O  33,Zr  5,O   8)     69.5897         0.010000   
    828. D(C  36,O  33,Zr  5,O   6)    -34.4077         0.010000   
    829. D(C  36,O  33,Zr  5,Zr  2)     56.5304         0.010000   
    830. D(C  36,O  33,Zr  5,Zr  0)      1.6529         0.010000   
    831. D(C  40,O  34,Zr  5,O  35)    -83.5412         0.010000   
    832. D(C  40,O  34,Zr  5,O  33)   -151.7637         0.010000   
    833. D(C  40,O  34,Zr  5,O  32)    151.2806         0.010000   
    834. D(C  40,O  34,Zr  5,O  11)     -7.5162         0.010000   
    835. D(C  40,O  34,Zr  5,O   8)      1.7949         0.010000   
    836. D(C  40,O  34,Zr  5,O   6)     93.9350         0.010000   
    837. D(C  40,O  34,Zr  5,Zr  2)    -11.3741         0.010000   
    838. D(C  40,O  34,Zr  5,Zr  0)     62.7520         0.010000   
    839. D(C  44,O  35,Zr  5,O  34)    108.8701         0.010000   
    840. D(C  44,O  35,Zr  5,O  33)   -119.8330         0.010000   
    841. D(C  44,O  35,Zr  5,O  32)    172.8173         0.010000   
    842. D(C  44,O  35,Zr  5,O  11)    -36.9098         0.010000   
    843. D(C  44,O  35,Zr  5,O   8)     34.0290         0.010000   
    844. D(C  44,O  35,Zr  5,O   6)    -66.3996         0.010000   
    845. D(C  44,O  35,Zr  5,Zr  2)     -3.3949         0.010000   
    846. D(C  44,O  35,Zr  5,Zr  0)    -55.2885         0.010000   
    847. D(H  58,C  36,O  33,Zr  5)   -179.8353         0.063530   
    848. D(O  12,C  36,O  33,Zr  5)      0.2149         0.063530   
    849. D(H  58,C  36,O  12,Zr  0)    176.3184         0.061687   
    850. D(O  33,C  36,O  12,Zr  0)     -3.7317         0.061687   
    851. D(H  51,C  37,O  25,Zr  3)   -176.4200         0.061689   
    852. D(O  13,C  37,O  25,Zr  3)      3.6260         0.061689   
    853. D(H  51,C  37,O  13,Zr  0)    179.8079         0.063543   
    854. D(O  25,C  37,O  13,Zr  0)     -0.2381         0.063543   
    855. D(H  50,C  38,O  21,Zr  2)    171.7727         0.065421   
    856. D(O  14,C  38,O  21,Zr  2)     -9.2866         0.065421   
    857. D(H  50,C  38,O  14,Zr  0)   -145.2286         0.058688   
    858. D(O  21,C  38,O  14,Zr  0)     35.8248         0.058688   
    859. D(H  54,C  39,O  29,Zr  4)   -145.0802         0.058664   
    860. D(O  15,C  39,O  29,Zr  4)     35.9732         0.058664   
    861. D(H  54,C  39,O  15,Zr  0)    171.7805         0.065466   
    862. D(O  29,C  39,O  15,Zr  0)     -9.2787         0.065466   
    863. D(H  56,C  40,O  34,Zr  5)    145.0802         0.058664   
    864. D(O  16,C  40,O  34,Zr  5)    -35.9731         0.058664   
    865. D(H  56,C  40,O  16,Zr  1)   -171.7805         0.065466   
    866. D(O  34,C  40,O  16,Zr  1)      9.2787         0.065466   
    867. D(H  48,C  41,O  26,Zr  3)   -171.7727         0.065421   
    868. D(O  17,C  41,O  26,Zr  3)      9.2865         0.065421   
    869. D(H  48,C  41,O  17,Zr  1)    145.2287         0.058688   
    870. D(O  26,C  41,O  17,Zr  1)    -35.8248         0.058688   
    871. D(H  49,C  42,O  22,Zr  2)    176.4200         0.061689   
    872. D(O  18,C  42,O  22,Zr  2)     -3.6260         0.061689   
    873. D(H  49,C  42,O  18,Zr  1)   -179.8079         0.063543   
    874. D(O  22,C  42,O  18,Zr  1)      0.2381         0.063543   
    875. D(H  52,C  43,O  30,Zr  4)    179.8354         0.063530   
    876. D(O  19,C  43,O  30,Zr  4)     -0.2149         0.063530   
    877. D(H  52,C  43,O  19,Zr  1)   -176.3184         0.061687   
    878. D(O  30,C  43,O  19,Zr  1)      3.7317         0.061687   
    879. D(H  59,C  44,O  35,Zr  5)   -176.3832         0.061690   
    880. D(O  20,C  44,O  35,Zr  5)      3.6679         0.061690   
    881. D(H  59,C  44,O  20,Zr  2)    179.7958         0.063488   
    882. D(O  35,C  44,O  20,Zr  2)     -0.2554         0.063488   
    883. D(H  55,C  45,O  31,Zr  4)    171.8665         0.065457   
    884. D(O  23,C  45,O  31,Zr  4)     -9.1905         0.065457   
    885. D(H  55,C  45,O  23,Zr  2)   -145.1881         0.058661   
    886. D(O  31,C  45,O  23,Zr  2)     35.8630         0.058661   
    887. D(O  24,C  46,O  32,Zr  5)      9.1905         0.065457   
    888. D(H  57,C  46,O  24,Zr  3)    145.1881         0.058661   
    889. D(O  32,C  46,O  24,Zr  3)    -35.8631         0.058661   
    890. D(H  57,C  46,O  32,Zr  5)   -171.8665         0.065457   
    891. D(H  53,C  47,O  28,Zr  4)    176.3832         0.061690   
    892. D(O  27,C  47,O  28,Zr  4)     -3.6679         0.061690   
    893. D(H  53,C  47,O  27,Zr  3)   -179.7958         0.063488   
    894. D(O  28,C  47,O  27,Zr  3)      0.2554         0.063488   
    -----------------------------------------------------------------

Number of atoms                         .... 60
Number of degrees of freedom            .... 894


         *************************************************************
         *                GEOMETRY OPTIMIZATION CYCLE   1            *
         *************************************************************
---------------------------------
CARTESIAN COORDINATES (ANGSTROEM)
---------------------------------
  Zr    -0.175236    2.044719    1.458838
  Zr     0.175236   -2.044719   -1.458838
  Zr     1.712410   -1.121676    1.468310
  Zr    -1.712410    1.121676   -1.468310
  Zr     1.717054    1.019761   -1.534795
  Zr    -1.717054   -1.019761    1.534795
  O     -1.747671    0.782419    0.566109
  O      1.747671   -0.782419   -0.566109
  O     -0.135049   -1.914255    0.560116
  O      0.135049    1.914255   -0.560116
  O     -0.139934   -0.077820   -1.994188
  O      0.139934    0.077820    1.994188
  O     -1.465814    2.095994    3.243219
  O     -1.638479    3.647318    1.021217
  O      1.516565    2.083998    2.890154
  O      1.194184    3.765765    0.966187
  O     -1.194184   -3.765765   -0.966187
  O     -1.516565   -2.083998   -2.890154
  O      1.638479   -3.647318   -1.021217
  O      1.465814   -2.095995   -3.243219
  O      1.107969   -2.459014    3.125935
  O      2.439094    0.043126    3.255697
  O      2.602973   -3.065745    0.940855
[...]
  32   2.0000     -10.021353      -272.6949 
  33   2.0000     -10.021353      -272.6949 
  34   2.0000     -10.021331      -272.6943 
  35   2.0000     -10.021331      -272.6943 
  36   2.0000     -10.014630      -272.5119 
  37   2.0000     -10.014628      -272.5119 
  38   2.0000     -10.014602      -272.5112 
  39   2.0000     -10.014600      -272.5111 
  40   2.0000     -10.014598      -272.5111 
  41   2.0000     -10.014597      -272.5110 
  42   2.0000      -2.034820       -55.3703 
  43   2.0000      -2.034284       -55.3557 
  44   2.0000      -2.034255       -55.3549 
  45   2.0000      -2.033875       -55.3445 
  46   2.0000      -2.033815       -55.3429 
  47   2.0000      -2.033783       -55.3420 
  48   2.0000      -1.223802       -33.3013 
  49   2.0000      -1.220152       -33.2020 
  50   2.0000      -1.220113       -33.2010 
  51   2.0000      -1.216971       -33.1155 
  52   2.0000      -1.216843       -33.1120 
  53   2.0000      -1.216813       -33.1112 
  54   2.0000      -1.212280       -32.9878 
  55   2.0000      -1.210823       -32.9482 
  56   2.0000      -1.210794       -32.9474 
  57   2.0000      -1.210754       -32.9463 
  58   2.0000      -1.210730       -32.9456 
  59   2.0000      -1.209496       -32.9121 
  60   2.0000      -1.207018       -32.8446 
  61   2.0000      -1.207015       -32.8445 
  62   2.0000      -1.205758       -32.8103 
  63   2.0000      -1.205318       -32.7984 
  64   2.0000      -1.205298       -32.7978 
  65   2.0000      -1.205230       -32.7960 
  66   2.0000      -1.009015       -27.4567 
  67   2.0000      -1.007238       -27.4083 
  68   2.0000      -1.007203       -27.4074 
  69   2.0000      -1.006788       -27.3961 
  70   2.0000      -1.006753       -27.3951 
  71   2.0000      -1.005891       -27.3717 
  72   2.0000      -1.000610       -27.2280 
  73   2.0000      -1.000126       -27.2148 
  74   2.0000      -0.998265       -27.1642 
  75   2.0000      -0.998239       -27.1635 
  76   2.0000      -0.998042       -27.1581 
  77   2.0000      -0.998017       -27.1574 
  78   2.0000      -0.928437       -25.2641 
  79   2.0000      -0.927929       -25.2502 
  80   2.0000      -0.927898       -25.2494 
  81   2.0000      -0.926693       -25.2166 
  82   2.0000      -0.926662       -25.2157 
  83   2.0000      -0.925333       -25.1796 
  84   2.0000      -0.921653       -25.0794 
  85   2.0000      -0.921644       -25.0792 
  86   2.0000      -0.920860       -25.0579 
  87   2.0000      -0.920851       -25.0576 
  88   2.0000      -0.918049       -24.9814 
  89   2.0000      -0.917941       -24.9784 
  90   2.0000      -0.836237       -22.7552 
  91   2.0000      -0.827903       -22.5284 
  92   2.0000      -0.827816       -22.5260 
  93   2.0000      -0.820099       -22.3160 
  94   2.0000      -0.820018       -22.3138 
  95   2.0000      -0.818468       -22.2717 
  96   2.0000      -0.565877       -15.3983 
  97   2.0000      -0.563886       -15.3441 
  98   2.0000      -0.563855       -15.3433 
  99   2.0000      -0.561533       -15.2801 
 100   2.0000      -0.559784       -15.2325 
 101   2.0000      -0.559760       -15.2318 
 102   2.0000      -0.558329       -15.1929 
 103   2.0000      -0.556785       -15.1509 
 104   2.0000      -0.551603       -15.0099 
 105   2.0000      -0.551570       -15.0090 
 106   2.0000      -0.550701       -14.9853 
 107   2.0000      -0.550664       -14.9843 
 108   2.0000      -0.471593       -12.8327 
 109   2.0000      -0.471564       -12.8319 
 110   2.0000      -0.471035       -12.8175 
 111   2.0000      -0.468671       -12.7532 
 112   2.0000      -0.468669       -12.7531 
 113   2.0000      -0.468437       -12.7468 
 114   2.0000      -0.467169       -12.7123 
 115   2.0000      -0.467148       -12.7117 
 116   2.0000      -0.463201       -12.6043 
 117   2.0000      -0.461987       -12.5713 
 118   2.0000      -0.461930       -12.5698 
 119   2.0000      -0.460404       -12.5282 
 120   2.0000      -0.459469       -12.5028 
 121   2.0000      -0.458072       -12.4648 
 122   2.0000      -0.458046       -12.4641 
 123   2.0000      -0.456309       -12.4168 
 124   2.0000      -0.456279       -12.4160 
 125   2.0000      -0.455868       -12.4048 
 126   2.0000      -0.445182       -12.1140 
 127   2.0000      -0.445167       -12.1136 
 128   2.0000      -0.443891       -12.0789 
 129   2.0000      -0.443873       -12.0784 
 130   2.0000      -0.440983       -11.9998 
 131   2.0000      -0.440851       -11.9962 
 132   2.0000      -0.424094       -11.5402 
 133   2.0000      -0.419101       -11.4043 
 134   2.0000      -0.419058       -11.4032 
 135   2.0000      -0.417507       -11.3609 
 136   2.0000      -0.407705       -11.0942 
 137   2.0000      -0.407672       -11.0933 
 138   2.0000      -0.405811       -11.0427 
 139   2.0000      -0.401453       -10.9241 
 140   2.0000      -0.401411       -10.9230 
 141   2.0000      -0.400821       -10.9069 
 142   2.0000      -0.398449       -10.8423 
 143   2.0000      -0.398421       -10.8416 
 144   2.0000      -0.364588        -9.9209 
 145   2.0000      -0.364260        -9.9120 
 146   2.0000      -0.361364        -9.8332 
 147   2.0000      -0.361304        -9.8316 
 148   2.0000      -0.354027        -9.6336 
 149   2.0000      -0.353992        -9.6326 
 150   2.0000      -0.353753        -9.6261 
 151   2.0000      -0.331188        -9.0121 
 152   2.0000      -0.331091        -9.0094 
 153   2.0000      -0.327319        -8.9068 
 154   2.0000      -0.327047        -8.8994 
 155   2.0000      -0.326964        -8.8971 
 156   2.0000      -0.320029        -8.7084 
 157   2.0000      -0.319888        -8.7046 
 158   2.0000      -0.312150        -8.4940 
 159   2.0000      -0.306427        -8.3383 
 160   2.0000      -0.306381        -8.3370 
 161   2.0000      -0.305323        -8.3083 
 162   2.0000      -0.300374        -8.1736 
 163   2.0000      -0.297753        -8.1023 
 164   2.0000      -0.297731        -8.1017 
 165   2.0000      -0.296909        -8.0793 
 166   2.0000      -0.292985        -7.9725 
 167   2.0000      -0.292912        -7.9706 
 168   2.0000      -0.289461        -7.8766 
 169   2.0000      -0.289437        -7.8760 
 170   2.0000      -0.288153        -7.8410 
 171   2.0000      -0.287010        -7.8099 
 172   2.0000      -0.283677        -7.7192 
 173   2.0000      -0.282866        -7.6972 
 174   2.0000      -0.282860        -7.6970 
 175   2.0000      -0.281846        -7.6694 
 176   2.0000      -0.280600        -7.6355 
 177   2.0000      -0.280578        -7.6349 
 178   2.0000      -0.280374        -7.6294 
 179   2.0000      -0.280355        -7.6288 
 180   2.0000      -0.276896        -7.5347 
 181   2.0000      -0.273770        -7.4497 
 182   2.0000      -0.273649        -7.4464 
 183   2.0000      -0.273638        -7.4461 
 184   2.0000      -0.271392        -7.3849 
 185   2.0000      -0.271336        -7.3834 
 186   2.0000      -0.270881        -7.3710 
 187   2.0000      -0.270836        -7.3698 
 188   2.0000      -0.270402        -7.3580 
 189   2.0000      -0.267718        -7.2850 
 190   2.0000      -0.265272        -7.2184 
 191   2.0000      -0.263260        -7.1637 
 192   2.0000      -0.263234        -7.1630 
 193   2.0000      -0.257527        -7.0077 
 194   2.0000      -0.257526        -7.0076 
 195   2.0000      -0.233622        -6.3572 
 196   2.0000      -0.233578        -6.3560 
 197   2.0000      -0.228943        -6.2299 
 198   0.0000      -0.113799        -3.0966 
 199   0.0000      -0.112383        -3.0581 
 200   0.0000      -0.081535        -2.2187 
 201   0.0000      -0.081507        -2.2179 
 202   0.0000      -0.077998        -2.1224 
 203   0.0000      -0.077945        -2.1210 
 204   0.0000      -0.074610        -2.0302 
 205   0.0000      -0.074491        -2.0270 
 206   0.0000      -0.065919        -1.7937 
 207   0.0000      -0.062047        -1.6884 
 208   0.0000      -0.062032        -1.6880 
*Only the first 10 virtual orbitals were printed.
-------
TIMINGS
-------

Total SCF time: 0 days 0 hours 0 min 29 sec 

Total time                  ....      29.474 sec
Sum of individual times     ....      24.582 sec  ( 83.4%)

SCF preparation             ....       2.949 sec  ( 10.0%)
Fock matrix formation       ....      16.259 sec  ( 55.2%)
  Startup                   ....       0.293 sec  (  1.8% of F)
  Split-RI-J                ....       5.266 sec  ( 32.4% of F)
  XC integration            ....       8.476 sec  ( 52.1% of F)
    Basis function eval.    ....       0.825 sec  (  9.7% of XC)
    Density eval.           ....       2.004 sec  ( 23.6% of XC)
    XC-Functional eval.     ....       0.036 sec  (  0.4% of XC)
    XC-Potential eval.      ....       1.401 sec  ( 16.5% of XC)
  CPCM terms                ....       4.623 sec  ( 28.4% of F)
Diagonalization             ....       0.000 sec  (  0.0%)
Density matrix formation    ....       0.738 sec  (  2.5%)
Total Energy calculation    ....       0.406 sec  (  1.4%)
Population analysis         ....       0.000 sec  (  0.0%)
Orbital Transformation      ....       0.918 sec  (  3.1%)
Orbital Orthonormalization  ....       0.000 sec  (  0.0%)
DIIS solution               ....       1.019 sec  (  3.5%)
SOSCF solution              ....       2.293 sec  (  7.8%)
Finished LeanSCF after  30.3 sec

Maximum memory used throughout the entire LEANSCF-calculation: 228.2 MB


           ************************************************************
           *        Program running with 64 parallel MPI-processes    *
           *              working on a common directory               *
           ************************************************************

------------------------------------------------------------------------------
                         ORCA PROPERTY INTEGRAL CALCULATIONS
------------------------------------------------------------------------------

GBWName                                   ... run.gbw
Number of atoms                           ...     60
Number of basis functions                 ...   1614
Max core memory                           ...   4096 MB

Dipole integrals                          ... YES
Quadrupole integrals                      ...  NO
Linear momentum integrals                 ...  NO
Angular momentum integrals                ...  NO
Higher moments length integrals           ...  NO
Higher moments velocity integrals         ...  NO
Kinetic energy integrals                  ...  NO
GIAO right hand sides                     ...  NO
GIAO dipole derivative integrals          ...  NO
SOC integrals                             ...  NO
EPR diamagnetic integrals (GIAO)          ...  NO
EPR gauge integrals                       ...  NO
Field gradient integrals                  ...  NO (   0 nuclei)
Spin-dipole/Fermi contact integrals       ...  NO (   0 nuclei)
Contact density integrals                 ...  NO (   0 nuclei)
Nucleus-orbit integrals                   ...  NO (   0 nuclei)
Geometric perturbations                   ... YES (  60 nuclei)

Choice of electric origin   ... Center of mass
Position of electric origin ... (  0.0000, -0.0000, -0.0000) 
Choice of magnetic origin   ... GIAO
Position of magnetic origin ... (  0.0000,  0.0000,  0.0000) 

Calculating integrals                     ... Electric Dipole (Length)     done (  0.3 sec)
Calculating integrals                     ... Geometrical perturbation right hand sides

-----------------------
GEOMETRIC PERTURBATIONS (60 nuclei)
-----------------------

MaxCore                            ...   4096 MB
Number of batches                  ...      5

BATCH   0: Atoms    0 -   12 ( 39 perturbations)
   => H(core) and overlap derivative integrals     ... done (     2.5 sec)
   => Making and storing internal U-coefficients   ... done (     0.3 sec)
   => RI-J derivative integrals                    ... done (    22.8 sec)
   => RI-J response operators                      ... done (     6.7 sec)
   => ECP derivative integrals                     ... done (   310.2 sec)
   => XC derivative integrals                      ... done (   102.0 sec)
   => XC response operators                        ... done (    33.0 sec)
   => CPCM derivative integrals                    ... done (    35.9 sec)
   => CPCM response operators                      ... done (    64.6 sec)
   => Completing and storing right hand sides      ... done (     0.1 sec)
BATCH   1: Atoms   13 -   25 ( 39 perturbations)
   => H(core) and overlap derivative integrals     ... done (     2.5 sec)
   => Making and storing internal U-coefficients   ... done (     0.3 sec)
   => RI-J derivative integrals                    ... done (    21.1 sec)
   => RI-J response operators                      ... done (     6.7 sec)
   => ECP derivative integrals                     ... done (   312.5 sec)
   => XC derivative integrals                      ... done (    63.9 sec)
   => XC response operators                        ... done (    28.9 sec)
   => CPCM derivative integrals                    ... done (    36.4 sec)
   => CPCM response operators                      ... done (    65.0 sec)
   => Completing and storing right hand sides      ... done (     0.1 sec)
BATCH   2: Atoms   26 -   38 ( 39 perturbations)
   => H(core) and overlap derivative integrals     ... done (     2.5 sec)
   => Making and storing internal U-coefficients   ... done (     0.3 sec)
   => RI-J derivative integrals                    ... done (    21.2 sec)
   => RI-J response operators                      ... done (     6.8 sec)
   => ECP derivative integrals                     ... done (   313.8 sec)
   => XC derivative integrals                      ... done (    64.1 sec)
   => XC response operators                        ... done (    29.0 sec)
   => CPCM derivative integrals                    ... done (    36.9 sec)
   => CPCM response operators                      ... done (    65.6 sec)
   => Completing and storing right hand sides      ... done (     0.1 sec)
BATCH   3: Atoms   39 -   51 ( 39 perturbations)
   => H(core) and overlap derivative integrals     ... done (     2.5 sec)
   => Making and storing internal U-coefficients   ... done (     0.3 sec)
   => RI-J derivative integrals                    ... done (    20.8 sec)
   => RI-J response operators                      ... done (     6.7 sec)
   => ECP derivative integrals                     ... done (   315.3 sec)
   => XC derivative integrals                      ... done (    57.6 sec)
   => XC response operators                        ... done (    28.1 sec)
   => CPCM derivative integrals                    ... done (    37.6 sec)
   => CPCM response operators                      ... done (    66.6 sec)
   => Completing and storing right hand sides      ... done (     0.1 sec)
BATCH   4: Atoms   52 -   59 ( 24 perturbations)
   => H(core) and overlap derivative integrals     ... done (     1.6 sec)
   => Making and storing internal U-coefficients   ... done (     0.3 sec)
   => RI-J derivative integrals                    ... done (    13.3 sec)
   => RI-J response operators                      ... done (     4.5 sec)
   => ECP derivative integrals                     ... done (   193.7 sec)
   => XC derivative integrals                      ... done (    33.0 sec)
   => XC response operators                        ... done (    16.4 sec)
   => CPCM derivative integrals                    ... done (    30.6 sec)
   => CPCM response operators                      ... done (    47.3 sec)
   => Completing and storing right hand sides      ... done (     0.1 sec)
   => Total time for right hand sides = 2401.5 sec

  geometrical perturbations done (2401.6 sec)

Property integrals calculated in 2402.1 sec

Maximum memory used throughout the entire PROPINT-calculation: 3310.9 MB


-------------------------------------------------------------------------------
                          DFT DISPERSION CORRECTION                            
                                                                               
                              DFTD3 V3.1  Rev 1                                
                          USING Becke-Johnson damping                          
-------------------------------------------------------------------------------
The PBE functional is recognized
Active option DFTDOPT                   ...         4   

molecular C6(AA) [au] = 90125.694405 


            DFT-D V3
 parameters
 s6 scaling factor         :     1.0000 
 a1 scaling factor         :     0.4289 
 s8 scaling factor         :     0.7875 
 a2 scaling factor         :     4.4407 
 ad hoc parameters k1-k3   :    16.0000     1.3333    -4.0000 

 Edisp/kcal,au: -82.245638735394  -0.131066754147 
 E6   /kcal   : -50.698599183 
 E8   /kcal   : -31.547039552 
 % E8         :  38.357097151 

-------------------------   ----------------
Dispersion correction           -0.131066754
-------------------------   ----------------


-------------------------   --------------------
FINAL SINGLE POINT ENERGY     -3004.154583274105
-------------------------   --------------------

                                *** OPTIMIZATION RUN DONE ***



           ************************************************************
           *        Program running with 64 parallel MPI-processes    *
           *              working on a common directory               *
           ************************************************************
------------------------------------------------------------------------------
                            ORCA SCF RESPONSE CALCULATION
------------------------------------------------------------------------------

GBWName                                 ... run.gbw
Number of atoms                         ...     60
Number of basis functions               ...   1614
Max core memory                         ...   4096 MB

Electric field perturbation             ...  NO
Quadrupolar field perturbation          ...  NO
Magnetic field perturbation (no GIAO)   ...  NO
Magnetic field perturbation (with GIAO) ...  NO
Linear momentum (velocity) perturbation ...  NO
Spin-orbit coupling perturbation        ...  NO
Choice of electric origin               ... Center of mass
Position of electric origin             ...     0.000000    -0.000000    -0.000000
Choice of magnetic origin               ... GIAO
Position of magnetic origin             ...     0.000000     0.000000     0.000000
Nuclear geometric perturbations         ... YES ( 180 perturbations)
Nucleus-orbit perturbations             ...  NO (   0 perturbations)
Spin-dipole/Fermi contact perturbations ...  NO (   0 perturbations)

Total number of real perturbations      ...    180
Total number of imaginary perturbations ...      0
Total number of triplet perturbations   ...      0
Total number of SOC perturbations       ...      0

Using XC Grid                  ... (run.grid_cpscf.tmp) 
Recalculating density on grid  ... (run.grho_cpscf0.tmp) done
Calculating the xc-kernel      ... (run.fxc_cpscf0.tmp) done

                                **********************
                                * REAL PERTURBATIONS *
                                **********************



-------------------
SHARK CP-SCF DRIVER
-------------------

Dimension of the orbital basis          ...   1614
Dimension of the CPSCF-problem          ... 280368
Number of operators                     ...      1
Max. number of iterations               ...    128
Convergence Tolerance                   ... 1.0e-04
Number of perturbations                 ...    180
Perturbation type                       ... REAL

----------------------------
POPLE LINEAR EQUATION SOLVER
----------------------------

  ITERATION   0: 
ORCA finished by error termination in SCF RESPONSE
Calling Command: mpirun -np 64  /home/mehlhorn/programs/orca6/orca_scfresp_mpi run.respinp.tmp run 1 run 
[file orca_tools/qcmsg.cpp, line 394]: 
  .... aborting the run

