
                                 *****************
                                 * O   R   C   A *
                                 *****************

                                            #,                                       
                                            ###                                      
                                            ####                                     
                                            #####                                    
                                            ######                                   
                                           ########,                                 
                                     ,,################,,,,,                         
                               ,,#################################,,                 
                          ,,##########################################,,             
                       ,#########################################, ''#####,          
                    ,#############################################,,   '####,        
                  ,##################################################,,,,####,       
                ,###########''''           ''''###############################       
              ,#####''   ,,,,##########,,,,          '''####'''          '####       
            ,##' ,,,,###########################,,,                        '##       
           ' ,,###''''                  '''############,,,                           
         ,,##''                                '''############,,,,        ,,,,,,###''
      ,#''                                            '''#######################'''  
     '                                                          ''''####''''         
             ,#######,   #######,   ,#######,      ##                                
            ,#'     '#,  ##    ##  ,#'     '#,    #''#        ,####,    ,#,          
            ##       ##  ##   ,#'  ##            #'  '#       #'       ,# #          
            ##       ##  #######   ##           ,######,      #####,      #          
            '#,     ,#'  ##    ##  '#,     ,#' ,#      #,     #,   #      #          
             '#######'   ##     ##  '#######'  #'      '#     '####' #    #          



                #########################################################
                #                        -***-                          #
                #          Department of theory and spectroscopy        #
                #                                                       #
                #                      Frank Neese                      #
                #                                                       #
                #     Directorship, Architecture, Infrastructure        #
                #                    SHARK, DRIVERS                     #
                #        Core code/Algorithms in most modules           #
                #                                                       #
                #        Max Planck Institute fuer Kohlenforschung      #
                #                Kaiser Wilhelm Platz 1                 #
                #                 D-45470 Muelheim/Ruhr                 #
                #                      Germany                          #
                #                                                       #
                #                  All rights reserved                  #
                #                        -***-                          #
                #########################################################


                         Program Version 6.1.0  -  RELEASE   -
                                (GIT: $679e74b$)
                          ($2025-06-10 18:02:51 +0200$)


 With contributions from (in alphabetic order):
[Max-Planck-Institut fuer Kohlenforschung]                               
  Daniel Aravena         : Magnetic Suceptibility                        
  Michael Atanasov       : Ab Initio Ligand Field Theory (pilot matlab implementation)
  Alexander A. Auer      : GIAO ZORA, VPT2 properties, NMR spectrum      
  Ute Becker             : All parallelization in ORCA, NUMFREQ, NUMCALC 
  Giovanni Bistoni       : ED, misc. LED, open-shell LED, HFLD           
  Dmytro Bykov           : pre 5.0 version of the SCF Hessian            
  Marcos Casanova-Páez   : Triplet and SCS-CIS(D). UHF-(DLPNO)-IP/EA/STEOM-CCSD. UHF-CVS-IP/STEOM-CCSD   
  Vijay G. Chilkuri      : MRCI spin determinant printing, contributions to CSF-ICE 
  Pauline Colinet        : FMM embedding                                 
  Dipayan Datta          : RHF DLPNO-CCSD density                        
  Achintya Kumar Dutta   : EOM-CC, STEOM-CC                              
  Nicolas Foglia         : Exact transition moments, OPA infrastructure, MCD improvements    
  Dmitry Ganyushin       : Spin-Orbit,Spin-Spin,Magnetic field MRCI      
  Miquel Garcia-Rates    : C-PCM and meta-GGA Hessian, CCSD/C-PCM, Gaussian charge scheme 
  Tiago L. C. Gouveia    : GS-ROHF, GS-ROCIS                             
  Yang Guo               : DLPNO-NEVPT2, F12-NEVPT2, CIM, IAO-localization        
  Andreas Hansen         : Spin unrestricted coupled pair/coupled cluster methods 
  Ingolf Harden          : AUTO-CI MPn and infrastructure                
  Benjamin Helmich-Paris : MC-RPA, TRAH-(SCF,CASSCF), AVAS, COSX integrals, SCF dyn. polar., MC-PDFT, srDFT 
  Lee Huntington         : MR-EOM, pCC                                   
  Robert Izsak           : Overlap fitted RIJCOSX, COSX-SCS-MP3, EOM     
  Riya Kayal             : Wick's Theorem for AUTO-CI, AUTO-CI UHF-CCSDT 
  Emily Kempfer          : AUTO-CI RHF CISDT and CCSDT, approximate NEVPT4
  Christian Kollmar      : KDIIS, OOCD, Brueckner-CCSD(T), CCSD density, CASPT2, CASPT2-K, improved NEVPT2 
  Axel Koslowski         : Symmetry handling                             
  Simone Kossmann        : meta-GGA functionals, TD-DFT gradient, OOMP2, (MP2 Hessian; deprecated post 5.0) 
  Lucas Lang             : DCDCAS, Hyperfine gauge corrections, ICE-SOC+SSC
  Marvin Lechner         : AUTO-CI (C++ implementation), FIC-MRCC        
  Spencer Leger          : CASSCF response                               
  Dagmar Lenk            : GEPOL surface, SMD, ORCA-2-JSON               
  Dimitrios Liakos       : Extrapolation schemes; Compound Job, Property file
  Dimitrios Manganas     : Further ROCIS development; embedding schemes. LFT, Crystal Embedding 
  Dimitrios Pantazis     : SARC Basis sets                               
  Anastasios Papadopoulos: AUTO-CI, single reference methods and gradients 
  Taras Petrenko         : pre 6.0 DFT Hessian and TD-DFT gradient,  ECA, NRVS 
  Petra Pikulova         : Analytic Raman intensities                    
  Peter Pinski           : DLPNO-MP2, DLPNO-MP2 Gradient                 
  Shashank Vittal Rao    : ES-AILFT, MagRelax                            
  Christoph Reimann      : Effective Core Potentials                     
  Marius Retegan         : Local ZFS, SOC                                
  Christoph Riplinger    : Optimizer, TS searches, QM/MM, DLPNO-CCSD(T), (RO)-DLPNO pert. Triples 
  Michael Roemelt        : Original ROCIS implementation, recursive CI coupling coefficients
  Masaaki Saitow         : Open-shell DLPNO-CCSD energy and density      
  Barbara Sandhoefer     : DKH picture change effects                    
  Yorick L. A. Schmerwitz: GMF and freeze-and-release deltaSCF, NEB S-IDPP initial path                    
  Kantharuban Sivalingam : CASSCF convergence/infrastructure, NEVPT2, NEVPT3, NEVPT4(SD), FIC-MRCI and CEPA variants
  Bernardo de Souza      : ESD, SOC TD-DFT                               
  Georgi L. Stoychev     : AutoAux, RI-MP2 NMR, DLPNO-MP2 response, X2C  
  Van Anh Tran           : RI-MP2 g-tensors                              
  Willem Van den Heuvel  : Paramagnetic NMR                              
  Zikuan Wang            : NOTCH, Electric field optimization            
  Frank Wennmohs         : Technical directorship and infrastructure     
  Hang Xu                : AUTO-CI-Response properties                   
                                                                         
[FACCTs GmbH]                                                            
  Markus Bursch, Nicolas Foglia, Miquel Garcia-Rates, Ingolf Harden, Hagen Neugebauer, Anastasios Papadopoulos, 
  Christoph Riplinger, Bernardo de Souza, Georgi L. Stoychev                                                    
                                                                 
  APM, various basis sets, CI-OPT, improved COSX, DLPNO-Multilevel,           
  DOCKER, DRACO, updates on ESD, Fragmentator, GOAT, IRC, LR-CPCM, L-BFGS, MBIS, meta-GGA TD-DFT gradient, ML-optimized integration grids, 
  MM, NACMEs, nearIR, NEB, NEB-TS, NL-DFT gradient (VV10), 2- and 3-layer-ONIOM, interface openCOSMO-RS, QMMM,   
  Crystal-QMMM, RESP, rigid body optimization, SF, symmetry and pop. for TD-DFT, various functionals, SOLVATOR                                   
                                                                         
[Other institutions]                                                     
  V. Asgeirsson          : NEB                                           
  Christoph Bannwarth    : sTDA-DFT, sTD-DFT, PBEh-3c, B97-3c, D3        
  Giovanni Bistoni       : ETS/NOCV, ADLD/ADEX, COVALED                  
  Martin Brehm           : Molecular dynamics                            
  Ronald Cardenas        : ETS/NOCV                                      
  Martina Colucci        : COVALED                                       
  Sebastian Ehlert       : rSCAN, r2SCAN, r2SCAN-3c, D4, dhf basis sets  
  Marvin Friede          : D4 for Fr, Ra, Ac-Lr                          
  Lars Goerigk           : TD-DFT with DH, B97 family of functionals     
  Stefan Grimme          : VdW corrections, initial TS optimization, DFT functionals, gCP, sTDA/sTD-DF 
  Waldemar Hujo          : DFT-NL                                        
  H. Jonsson             : NEB                                           
  Holger Kruse           : gCP                                           
  Marcel Mueller         : wB97X-3c, vDZP basis set                      
  Hagen Neugebauer       : wr2SCAN, Native XTB                           
  Gianluca Regni         : ADLD/ADEX                                     
  Tobias Risthaus        : pre 6.0 range-separated hybrid DFT and stability analysis
  Lukas Wittmann         : regularized MP2, r2SCAN double-hybrids, wr2SCAN        
                                                                         
We gratefully acknowledge several colleagues who have allowed us to      
interface, adapt or use parts of their codes:                            
  Ed Valeev, F. Pavosevic, A. Kumar             : LibInt (2-el integral package), F12 methods 
  Garnet Chan, S. Sharma, J. Yang, R. Olivares  : DMRG                   
  Ulf Ekstrom                                   : XCFun DFT Library      
  Mihaly Kallay                                 : mrcc  (arbitrary order and MRCC methods)
  Frank Weinhold                                : gennbo (NPA and NBO analysis)           
  Simon Mueller                                 : openCOSMO-RS                            
  Christopher J. Cramer and Donald G. Truhlar   : smd solvation model                     
  S Lehtola, MJT Oliveira, MAL Marques          : LibXC Library                           
  Liviu Ungur et al                             : ANISO software                          


 Your calculation uses the libint2 library for the computation of 2-el integrals
 For citations please refer to: http://libint.valeyev.net

 Your ORCA version has been built with support for libXC version: 7.0.0
 For citations please refer to: https://libxc.gitlab.io

 This ORCA versions uses:
   CBLAS   interface :  Fast vector & matrix operations
   LAPACKE interface :  Fast linear algebra routines
   SCALAPACK package :  Parallel linear algebra routines
   Shared memory     :  Shared parallel matrices
   BLAS/LAPACK       :  OpenBLAS 0.3.29  USE64BITINT DYNAMIC_ARCH NO_AFFINITY Bulldozer SINGLE_THREADED
        Core in use  :  Bulldozer
   Copyright (c) 2011-2014, The OpenBLAS Project


  ***********************************
  * Starting time: Wed Aug 27 18:18:01 2025
  * Host name:     chromium10
  * Process ID:    617250
  * Working dir.:  /local/scratch/mehlhorn/62301
  ***********************************



***************************************
The coordinates will be read from file: start.xyz
***************************************


Your calculation utilizes the atom-pairwise dispersion correction
with the Becke-Johnson damping scheme (D3BJ)


Warning: RI is on but no J-basis has been assigned. Assigning Def2/J (nothing to worry about!)
================================================================================

----- Orbital basis set information -----
Your calculation utilizes the basis: def2-TZVP
   F. Weigend and R. Ahlrichs, Phys. Chem. Chem. Phys. 7, 3297 (2005).

----- AuxJ basis set information -----
Your calculation utilizes the auxiliary basis: def2/J
   H-Rn: F. Weigend, Phys. Chem. Chem. Phys. 8, 1057 (2006).
   Fr-Lr: K. Eichkorn, F. Weigend, O. Treutler, R. Ahlrichs; Theor. Chem. Acc. 97, 119 (1997).

================================================================================
                                        WARNINGS
                       Please study these warnings very carefully!
================================================================================


WARNING: Geometry Optimization
  ===> : Switching off AutoStart
         For restart on a previous wavefunction, please use MOREAD

================================================================================
                                       INPUT FILE
================================================================================
NAME = run.inp
|  1> # Geometry optimization for (AlH3)n cluster
|  2> 
|  3> %pal nprocs 24  end
|  4> 
|  5> %geom MaxIter 500 end
|  6> 
|  7> %cpcm
|  8> 	epsilon 1.95778548766667
|  9> end
| 10> 
| 11> ! PBE def2-TZVP
| 12> ! RKS	# closed shell for AlH3
| 13> ! D3    #  dispersion correction
| 14> ! Freq 	# Frequency analysis to check the stabiltity of the structures
| 15> 
| 16> ! NoPop # population analysis not necessary	
| 17> 
| 18> ! DEFGRID3
| 19> ! TightSCF
| 20> ! TightOpt
| 21> 
| 22> ! SmallPrint
| 23> 
| 24> 
| 25> * xyzFile 0 1 start.xyz # only maingroup elements H and Al so there should be no net spin
| 26> 
| 27>                          ****END OF INPUT****
================================================================================

                       *****************************
                       * Geometry Optimization Run *
                       *****************************

Geometry optimization settings:
Update method            Update   .... BFGS
Choice of coordinates    CoordSys .... (2022) Redundant Internals
Initial Hessian          InHess   .... Almloef's Model
Max. no of cycles        MaxIter  .... 500

Convergence Tolerances:
Energy Change            TolE     ....  1.0000e-06 Eh
Max. Gradient            TolMAXG  ....  1.0000e-04 Eh/bohr
RMS Gradient             TolRMSG  ....  3.0000e-05 Eh/bohr
Max. Displacement        TolMAXD  ....  1.0000e-03 bohr
RMS Displacement         TolRMSD  ....  6.0000e-04 bohr
Strict Convergence                .... False

------------------------------------------------------------------------------
                        ORCA OPTIMIZATION COORDINATE SETUP
------------------------------------------------------------------------------

The optimization will be done in redundant internal coordinates (2022)
Making redundant internal coordinates   ...  (2022 redundants) done
Evaluating the initial hessian          ...  (Almloef) done
Evaluating the coordinates              ...  done
Calculating the B-matrix                .... done
Calculating the G-matrix                .... done
The number of degrees of freedom        ....  649

    -----------------------------------------------------------------
                    Redundant Internal Coordinates


    -----------------------------------------------------------------
         Definition                    Initial Value    Approx d2E/dq
    -----------------------------------------------------------------
      1. B(Al  1,Al  0)                  3.1323         0.050946   
      2. B(Al  2,Al  1)                  3.1437         0.048857   
      3. B(Al  2,Al  0)                  2.6874         0.261182   
      4. B(Al  3,Al  0)                  3.1140         0.054499   
      5. B(Al  3,Al  2)                  3.1675         0.044766   
      6. B(Al  4,Al  2)                  3.3148         0.026066   
      7. B(Al  5,Al  1)                  3.3400         0.023755   
      8. B(Al  5,Al  4)                  3.3273         0.024888   
      9. B(Al  6,Al  4)                  3.2845         0.029130   
     10. B(Al  6,Al  3)                  3.2336         0.035121   
     11. B(Al  7,Al  6)                  3.2334         0.035147   
     12. B(Al  7,Al  5)                  3.1691         0.044514   
     13. B(Al  7,Al  4)                  3.1140         0.054491   
     14. B(H   8,Al  7)                  1.5856         0.408623   
     15. B(H   9,Al  4)                  1.8358         0.162975   
     16. B(H   9,Al  7)                  1.6627         0.307851   
     17. B(H  10,Al  7)                  1.6467         0.326400   
     18. B(H  10,Al  6)                  1.8480         0.155862   
     19. B(H  11,Al  7)                  1.6491         0.323575   
     20. B(H  11,Al  5)                  1.8692         0.144170   
     21. B(H  12,Al  5)                  1.5911         0.400366   
     22. B(H  13,Al  5)                  1.5882         0.404719   
     23. B(H  14,Al  5)                  1.8769         0.140141   
     24. B(H  14,Al  1)                  1.6375         0.337699   
     25. B(H  15,Al  1)                  1.5872         0.406151   
     26. B(H  16,Al  5)                  1.7476         0.225326   
     27. B(H  16,Al  4)                  1.6918         0.276578   
     28. B(H  17,Al  2)                  1.7871         0.194933   
     29. B(H  17,Al  1)                  1.6595         0.311425   
     30. B(H  18,Al  4)                  1.7467         0.226099   
     31. B(H  18,Al  2)                  1.7150         0.254058   
     32. B(H  19,Al  2)                  1.5910         0.400559   
     33. B(H  20,Al  3)                  1.6623         0.308275   
     34. B(H  20,Al  2)                  1.8006         0.185464   
     35. B(H  21,Al  6)                  1.8962         0.130541   
     36. B(H  21,Al  3)                  1.6428         0.331186   
     37. B(H  22,Al  3)                  1.5869         0.406620   
     38. B(H  23,Al  6)                  1.5892         0.403248   
     39. B(H  24,Al  4)                  1.5857         0.408475   
     40. B(H  25,Al  6)                  1.7358         0.235352   
     41. B(H  25,Al  4)                  1.6831         0.285551   
     42. B(H  26,Al  0)                  1.5802         0.416868   
     43. B(H  27,Al  1)                  1.6544         0.317351   
     44. B(H  27,Al  0)                  1.8395         0.160793   
     45. B(H  28,Al  3)                  1.6547         0.317011   
     46. B(H  28,Al  0)                  1.8246         0.169817   
     47. B(H  29,Al  2)                  1.8676         0.145026   
     48. B(H  29,Al  0)                  1.6921         0.276270   
     49. B(H  30,Al  6)                  1.5941         0.395995   
     50. B(H  31,Al  2)                  1.9012         0.128157   
     51. B(H  31,Al  0)                  1.6710         0.298546   
     52. A(Al  2,Al  0,Al  3)           65.7066         0.343080   
     53. A(Al  1,Al  0,H  28)          154.0506         0.275096   
     54. A(Al  1,Al  0,H  27)           24.8331         0.272810   
     55. A(Al  3,Al  0,H  28)           25.1289         0.277957   
     56. A(Al  1,Al  0,H  29)           75.3513         0.296765   
     57. A(Al  3,Al  0,H  27)          153.7873         0.275636   
     58. A(H  26,Al  0,H  29)          131.1338         0.363095   
     59. A(H  28,Al  0,H  31)           91.3349         0.316640   
     60. A(Al  2,Al  0,H  26)          174.6005         0.419121   
     61. A(H  29,Al  0,H  31)           88.0437         0.343147   
     62. A(Al  3,Al  0,H  26)          115.4454         0.320546   
     63. A(Al  2,Al  0,H  29)           43.4954         0.389770   
     64. A(H  28,Al  0,H  29)           88.8728         0.312679   
     65. A(H  26,Al  0,H  31)          140.7917         0.367948   
     66. A(Al  3,Al  0,H  29)           77.3898         0.299960   
     67. A(H  26,Al  0,H  28)           91.0031         0.334507   
     68. A(Al  1,Al  0,H  26)          114.9104         0.317040   
     69. A(H  26,Al  0,H  27)           90.1168         0.331491   
     70. A(Al  2,Al  0,H  31)           44.5560         0.395095   
     71. A(Al  2,Al  0,H  28)           89.4746         0.358400   
     72. A(Al  3,Al  0,H  31)           68.9097         0.303695   
     73. A(H  27,Al  0,H  31)           87.8223         0.313843   
     74. A(Al  1,Al  0,Al  2)           64.8663         0.339233   
     75. A(Al  1,Al  0,Al  3)          129.1310         0.264513   
     76. A(H  27,Al  0,H  29)           90.3597         0.309931   
     77. A(Al  1,Al  0,H  31)           68.0460         0.300444   
     78. A(Al  2,Al  0,H  27)           89.4065         0.355091   
     79. A(Al  2,Al  1,H  27)           78.2595         0.301366   
     80. A(Al  2,Al  1,H  17)           25.1700         0.300462   
     81. A(Al  5,Al  1,H  15)          132.8583         0.279745   
     82. A(Al  0,Al  1,H  15)          132.7601         0.315700   
     83. A(H  15,Al  1,H  27)          114.2569         0.370169   
     84. A(Al  0,Al  1,H  14)          106.9442         0.306425   
     85. A(H  14,Al  1,H  27)          108.0440         0.358665   
     86. A(H  15,Al  1,H  17)          113.3243         0.368972   
     87. A(H  14,Al  1,H  17)          102.1082         0.357517   
     88. A(Al  2,Al  1,H  14)          102.6890         0.304374   
     89. A(Al  0,Al  1,H  27)           27.8371         0.303388   
     90. A(Al  5,Al  1,H  14)           19.4474         0.271941   
     91. A(Al  2,Al  1,Al  5)           91.0032         0.233069   
     92. A(Al  5,Al  1,H  17)           98.1395         0.268617   
     93. A(Al  5,Al  1,H  27)           90.6202         0.269385   
     94. A(H  14,Al  1,H  15)          115.3801         0.374152   
     95. A(H  17,Al  1,H  27)          102.2809         0.353767   
     96. A(Al  0,Al  1,Al  2)           50.7066         0.260226   
     97. A(Al  0,Al  1,H  17)           75.3659         0.302475   
     98. A(Al  0,Al  1,Al  5)           87.5066         0.234440   
     99. A(Al  2,Al  1,H  15)          131.4893         0.313562   
    100. A(Al  3,Al  2,H  29)           73.9974         0.263386   
    101. A(H  29,Al  2,H  31)           76.6485         0.270388   
    102. A(Al  1,Al  2,H  29)           73.2869         0.266872   
    103. A(H  20,Al  2,H  29)           91.0248         0.286215   
    104. A(Al  0,Al  2,Al  1)           64.4271         0.336873   
    105. A(Al  1,Al  2,H  31)           66.2855         0.261963   
    106. A(Al  0,Al  2,H  29)           38.5825         0.348947   
    107. A(Al  4,Al  2,H  19)          122.5769         0.283185   
    108. A(Al  1,Al  2,H  19)          113.9756         0.312858   
    109. A(H  19,Al  2,H  29)           98.4333         0.323762   
    110. A(Al  1,Al  2,Al  3)          126.7049         0.255286   
    111. A(Al  4,Al  2,H  29)          138.9488         0.243295   
    112. A(H  17,Al  2,H  19)           94.3450         0.340015   
    113. A(Al  0,Al  2,H  20)           86.4564         0.363828   
    114. A(Al  3,Al  2,H  19)          111.5040         0.308471   
    115. A(Al  1,Al  2,H  18)           94.9948         0.290938   
    116. A(Al  0,Al  2,H  18)          117.0654         0.384118   
    117. A(Al  4,Al  2,H  17)           90.6705         0.253976   
    118. A(Al  3,Al  2,H  17)          149.9649         0.275458   
    119. A(Al  1,Al  2,H  17)           23.2631         0.279186   
    120. A(Al  0,Al  2,H  19)          136.9724         0.416152   
    121. A(Al  0,Al  2,H  17)           87.1542         0.366943   
    122. A(Al  3,Al  2,H  18)           97.9340         0.286980   
    123. A(H  18,Al  2,H  29)          155.5599         0.300775   
    124. A(H  17,Al  2,H  31)           86.9743         0.282945   
    125. A(H  17,Al  2,H  18)           88.9285         0.315436   
    126. A(Al  3,Al  2,Al  4)           88.0539         0.233244   
    127. A(H  17,Al  2,H  20)          171.2190         0.299868   
    128. A(H  18,Al  2,H  20)           88.6215         0.312898   
    129. A(Al  1,Al  2,H  20)          148.9279         0.277055   
    130. A(H  19,Al  2,H  31)          174.8700         0.317283   
    131. A(H  20,Al  2,H  31)           84.2812         0.280772   
    132. A(Al  1,Al  2,Al  4)           90.0182         0.236128   
    133. A(Al  4,Al  2,H  31)           62.3064         0.239036   
    134. A(Al  4,Al  2,H  18)           16.9096         0.264171   
    135. A(Al  0,Al  2,Al  3)           63.6424         0.332015   
    136. A(Al  3,Al  2,H  31)           65.9755         0.258573   
    137. A(Al  0,Al  2,Al  4)          100.3664         0.304017   
    138. A(H  17,Al  2,H  29)           87.7268         0.288450   
    139. A(Al  0,Al  2,H  31)           38.0723         0.341773   
    140. A(H  19,Al  2,H  20)           94.4359         0.337202   
    141. A(H  18,Al  2,H  19)          105.9597         0.355526   
    142. A(H  18,Al  2,H  31)           79.0025         0.294930   
    143. A(Al  4,Al  2,H  20)           84.5655         0.252128   
    144. A(Al  3,Al  2,H  20)           22.8446         0.273369   
    145. A(H  22,Al  3,H  28)          114.1449         0.370174   
    146. A(H  21,Al  3,H  28)          107.0782         0.357414   
    147. A(Al  6,Al  3,H  28)           85.5065         0.286029   
    148. A(Al  2,Al  3,H  28)           77.2707         0.297153   
    149. A(Al  0,Al  3,H  28)           27.9216         0.306631   
    150. A(H  20,Al  3,H  28)          101.5515         0.353094   
    151. A(Al  6,Al  3,H  21)           25.8731         0.287990   
    152. A(H  21,Al  3,H  22)          115.4190         0.372972   
    153. A(H  20,Al  3,H  22)          113.3692         0.368401   
    154. A(Al  6,Al  3,H  22)          139.7558         0.297449   
    155. A(Al  2,Al  3,H  22)          129.4511         0.309218   
    156. A(Al  0,Al  3,H  22)          134.8755         0.319246   
    157. A(Al  0,Al  3,Al  2)           50.6510         0.259450   
    158. A(H  20,Al  3,H  21)          103.8822         0.355722   
    159. A(Al  2,Al  3,H  21)          106.1045         0.299224   
    160. A(Al  0,Al  3,H  21)          103.7999         0.308797   
    161. A(Al  2,Al  3,Al  6)           87.7688         0.243315   
    162. A(Al  6,Al  3,H  20)           94.9443         0.284787   
    163. A(Al  2,Al  3,H  20)           24.8686         0.295840   
    164. A(Al  0,Al  3,H  20)           75.4901         0.305259   
    165. A(Al  0,Al  3,Al  6)           78.0625         0.250342   
    166. A(H  16,Al  4,H  18)           88.5976         0.327711   
    167. A(H   9,Al  4,H  18)          173.2175         0.300779   
    168. A(Al  7,Al  4,H  18)          147.9200         0.290597   
    169. A(Al  2,Al  4,Al  5)           88.3055         0.215297   
    170. A(Al  6,Al  4,H  18)           99.1383         0.263955   
    171. A(Al  5,Al  4,H  18)           97.2949         0.257832   
    172. A(Al  2,Al  4,H  18)           16.5934         0.259609   
    173. A(Al  7,Al  4,H  24)          114.6130         0.319475   
    174. A(Al  5,Al  4,H  24)          133.8536         0.282016   
    175. A(H   9,Al  4,H  25)           87.4892         0.312270   
    176. A(Al  6,Al  4,Al  7)           60.6375         0.243649   
    177. A(H   9,Al  4,H  16)           88.9464         0.310663   
    178. A(Al  7,Al  4,H  16)           71.7557         0.300006   
    179. A(Al  5,Al  4,Al  7)           58.8312         0.238237   
    180. A(Al  6,Al  4,H  16)           98.4373         0.272119   
    181. A(Al  5,Al  4,H  16)           14.9144         0.265711   
    182. A(Al  2,Al  4,Al  7)          131.9484         0.239807   
    183. A(H  18,Al  4,H  25)           87.3863         0.329442   
    184. A(H  16,Al  4,H  25)          109.6690         0.340663   
    185. A(Al  7,Al  4,H  25)           76.2998         0.301536   
    186. A(Al  6,Al  4,H  25)           16.3760         0.273448   
    187. A(Al  5,Al  4,H  25)           97.8855         0.266993   
    188. A(Al  2,Al  4,H  25)           74.7772         0.268866   
    189. A(H  18,Al  4,H  24)           97.3415         0.349737   
    190. A(H  16,Al  4,H  24)          123.8599         0.361905   
    191. A(H   9,Al  4,H  24)           89.2749         0.331115   
    192. A(Al  6,Al  4,H  24)          134.7525         0.289016   
    193. A(Al  2,Al  4,H  24)          113.4205         0.284047   
    194. A(Al  2,Al  4,H  16)           83.0090         0.267571   
    195. A(Al  5,Al  4,Al  6)           85.0977         0.218514   
    196. A(H  24,Al  4,H  25)          126.2900         0.363884   
    197. A(Al  7,Al  4,H   9)           25.6953         0.276199   
    198. A(Al  6,Al  4,H   9)           74.9789         0.251460   
    199. A(Al  2,Al  4,Al  6)           84.5088         0.219877   
    200. A(Al  5,Al  4,H   9)           79.0195         0.245774   
    201. A(Al  2,Al  4,H   9)          156.6249         0.247424   
    202. A(Al  4,Al  5,H  12)          102.5873         0.281143   
    203. A(Al  1,Al  5,H  12)           80.6044         0.279126   
    204. A(Al  1,Al  5,Al  4)           86.5186         0.212671   
    205. A(Al  7,Al  5,H  11)           24.0666         0.262931   
    206. A(Al  4,Al  5,H  11)           77.1216         0.241484   
    207. A(Al  1,Al  5,H  11)          162.0596         0.239884   
    208. A(Al  4,Al  5,Al  7)           57.2230         0.231561   
    209. A(Al  1,Al  5,Al  7)          138.0752         0.230065   
    210. A(H  14,Al  5,H  16)           81.6311         0.293508   
    211. A(H  13,Al  5,H  16)          111.7690         0.348991   
    212. A(H  12,Al  5,H  16)          112.2637         0.348355   
    213. A(H  11,Al  5,H  16)           87.1823         0.294824   
    214. A(Al  7,Al  5,H  16)           69.7353         0.281429   
    215. A(Al  4,Al  5,H  16)           14.4278         0.257702   
    216. A(Al  1,Al  5,H  16)           78.1868         0.255931   
    217. A(H  13,Al  5,H  14)           88.6470         0.322494   
    218. A(H  12,Al  5,H  14)           94.4259         0.321924   
    219. A(H  11,Al  5,H  14)          167.1444         0.273848   
    220. A(Al  7,Al  5,H  14)          149.5117         0.261818   
    221. A(Al  4,Al  5,H  14)           92.9208         0.240509   
    222. A(Al  1,Al  5,H  14)           16.8862         0.238919   
    223. A(H  12,Al  5,H  13)          135.8378         0.385116   
    224. A(H  11,Al  5,H  13)           89.6461         0.323997   
    225. A(Al  7,Al  5,H  13)          111.1677         0.308704   
    226. A(Al  4,Al  5,H  13)          121.2711         0.281613   
    227. A(Al  1,Al  5,H  13)          105.3173         0.279592   
    228. A(H  11,Al  5,H  12)           95.6678         0.323423   
    229. A(Al  7,Al  5,H  12)           87.1564         0.308167   
    230. A(H  25,Al  6,H  30)          116.5411         0.350273   
    231. A(Al  4,Al  6,Al  7)           57.0727         0.229037   
    232. A(H  21,Al  6,H  30)           93.6754         0.317644   
    233. A(H  10,Al  6,H  30)           89.3200         0.327005   
    234. A(Al  7,Al  6,H  30)          107.3140         0.296238   
    235. A(Al  3,Al  6,H  30)           77.6151         0.296204   
    236. A(Al  3,Al  6,Al  7)          143.5117         0.235092   
    237. A(Al  4,Al  6,H  30)          114.1261         0.287616   
    238. A(Al  7,Al  6,H  10)           20.9811         0.256809   
    239. A(H  23,Al  6,H  25)          108.3702         0.351349   
    240. A(Al  4,Al  6,H  10)           73.9001         0.249827   
    241. A(H  23,Al  6,H  30)          134.8357         0.384138   
    242. A(H  21,Al  6,H  25)           79.0398         0.292242   
    243. A(H  10,Al  6,H  25)           89.7257         0.300563   
    244. A(Al  7,Al  6,H  25)           72.2592         0.273215   
    245. A(Al  4,Al  6,H  25)           15.8662         0.265550   
    246. A(Al  3,Al  6,H  10)          150.6249         0.256781   
    247. A(Al  3,Al  6,H  25)           73.4211         0.273184   
    248. A(Al  3,Al  6,Al  4)           87.4737         0.229014   
    249. A(H  21,Al  6,H  23)           90.1213         0.318585   
    250. A(H  10,Al  6,H  23)           95.6039         0.327984   
    251. A(Al  7,Al  6,H  23)           90.0838         0.297091   
    252. A(Al  4,Al  6,H  23)          110.3391         0.288434   
    253. A(Al  3,Al  6,H  23)          112.3260         0.297057   
    254. A(H  10,Al  6,H  21)          168.5435         0.274142   
    255. A(Al  7,Al  6,H  21)          149.7854         0.250209   
    256. A(Al  4,Al  6,H  21)           94.8127         0.243501   
    257. A(Al  3,Al  6,H  21)           22.2135         0.250182   
    258. A(Al  4,Al  7,H   8)          143.5000         0.319494   
    259. A(H  10,Al  7,H  11)          103.5788         0.357775   
    260. A(Al  5,Al  7,Al  6)           88.5836         0.243143   
    261. A(H   9,Al  7,H  11)          101.3686         0.354239   
    262. A(Al  4,Al  7,Al  6)           62.2898         0.250363   
    263. A(H   8,Al  7,H  11)          116.2757         0.371796   
    264. A(Al  6,Al  7,H  11)          113.9927         0.286978   
    265. A(Al  5,Al  7,H  11)           27.5302         0.297854   
    266. A(Al  4,Al  7,H  11)           86.5163         0.307635   
    267. A(Al  4,Al  7,Al  5)           63.9458         0.259227   
    268. A(H   9,Al  7,H  10)          101.2082         0.354762   
    269. A(H   8,Al  7,H  10)          116.9312         0.372353   
    270. A(Al  6,Al  7,H  10)           23.6913         0.287368   
    271. A(Al  5,Al  7,H  10)           84.2620         0.298265   
    272. A(Al  4,Al  7,H  10)           81.1808         0.308066   
    273. A(H   8,Al  7,H   9)          115.1678         0.368625   
    274. A(Al  6,Al  7,H   9)           78.2659         0.284758   
    275. A(Al  5,Al  7,H   9)           86.2290         0.295513   
    276. A(Al  4,Al  7,H   9)           28.6027         0.305184   
    277. A(Al  6,Al  7,H   8)          123.0197         0.297716   
    278. A(Al  5,Al  7,H   8)          143.7267         0.309182   
    279. A(Al  4,H   9,Al  7)          125.7021         0.316103   
    280. A(Al  6,H  10,Al  7)          135.3276         0.316817   
    281. A(Al  5,H  11,Al  7)          128.4032         0.312392   
    282. A(Al  1,H  14,Al  5)          143.6664         0.313120   
    283. A(Al  4,H  16,Al  5)          150.6578         0.327526   
    284. A(Al  1,H  17,Al  2)          131.5668         0.326114   
    285. A(Al  2,H  18,Al  4)          146.4970         0.323166   
    286. A(Al  2,H  20,Al  3)          132.2868         0.322918   
    287. A(Al  3,H  21,Al  6)          131.9134         0.308579   
    288. A(Al  4,H  25,Al  6)          147.7578         0.331635   
    289. A(Al  0,H  27,Al  1)          127.3298         0.316974   
    290. A(Al  0,H  28,Al  3)          126.9495         0.319753   
    291. A(Al  0,H  29,Al  2)           97.9221         0.304830   
    292. A(Al  0,H  31,Al  2)           97.3717         0.302590   
    293. D(Al  5,Al  1,Al  0,Al  2)     93.3409         0.010000   
    294. D(Al  2,Al  1,Al  0,H  29)     45.1229         0.010000   
    295. D(Al  5,Al  1,Al  0,H  27)    -96.0654         0.010000   
    296. D(Al  5,Al  1,Al  0,H  28)     84.1676         0.010000   
    297. D(Al  5,Al  1,Al  0,Al  3)     78.6995         0.010000   
    298. D(Al  2,Al  1,Al  0,Al  3)    -14.6414         0.010000   
    299. D(Al  5,Al  1,Al  0,H  26)    -92.6133         0.010000   
    300. D(Al  2,Al  1,Al  0,H  31)    -48.7372         0.010000   
    301. D(Al  5,Al  1,Al  0,H  29)    138.4638         0.010000   
    302. D(Al  2,Al  1,Al  0,H  27)    170.5937         0.010000   
    303. D(Al  5,Al  1,Al  0,H  31)     44.6037         0.010000   
    304. D(Al  2,Al  1,Al  0,H  28)     -9.1733         0.010000   
    305. D(Al  2,Al  1,Al  0,H  26)    174.0458         0.010000   
    306. D(Al  3,Al  2,Al  0,H  29)     97.3386         0.010000   
    307. D(Al  3,Al  2,Al  0,H  26)    103.5310         0.010000   
    308. D(Al  3,Al  2,Al  0,H  27)   -171.5132         0.010000   
    309. D(Al  3,Al  2,Al  1,H  15)    130.4911         0.010000   
    310. D(Al  4,Al  2,Al  0,H  27)    -88.9347         0.010000   
    311. D(Al  0,Al  2,Al  1,Al  5)    -85.9544         0.010000   
    312. D(Al  4,Al  2,Al  0,Al  1)    -84.9986         0.010000   
    313. D(Al  1,Al  2,Al  0,H  27)     -3.9360         0.010000   
    314. D(Al  0,Al  2,Al  1,H  14)   -101.6400         0.010000   
    315. D(Al  3,Al  2,Al  1,H  27)     18.3826         0.010000   
    316. D(Al  3,Al  2,Al  0,H  28)      8.4225         0.010000   
    317. D(Al  4,Al  2,Al  0,Al  3)     82.5786         0.010000   
    318. D(Al  1,Al  2,Al  0,Al  3)    167.5772         0.010000   
    319. D(Al  3,Al  2,Al  0,Al  1)   -167.5772         0.010000   
    320. D(Al  4,Al  2,Al  0,H  26)   -173.8904         0.010000   
    321. D(Al  3,Al  2,Al  1,H  14)    -87.7280         0.010000   
    322. D(Al  4,Al  2,Al  1,H  14)     -0.1421         0.010000   
    323. D(Al  3,Al  2,Al  0,H  31)    -84.0145         0.010000   
    324. D(Al  0,Al  2,Al  1,H  15)    116.5791         0.010000   
    325. D(Al  0,Al  2,Al  1,H  27)      4.4706         0.010000   
    326. D(Al  3,Al  2,Al  1,Al  0)     13.9120         0.010000   
    327. D(Al  1,Al  2,Al  0,H  28)    175.9997         0.010000   
    328. D(Al  1,Al  2,Al  0,H  29)    -95.0842         0.010000   
    329. D(Al  3,Al  2,Al  1,Al  5)    -72.0424         0.010000   
    330. D(Al  4,Al  2,Al  1,H  15)   -141.9230         0.010000   
    331. D(Al  4,Al  2,Al  1,Al  0)    101.4979         0.010000   
    332. D(Al  1,Al  2,Al  0,H  31)     83.5628         0.010000   
    333. D(Al  4,Al  2,Al  1,Al  5)     15.5435         0.010000   
    334. D(Al  3,Al  2,Al  1,H  17)   -179.2413         0.010000   
    335. D(Al  0,Al  2,Al  1,H  17)    166.8468         0.010000   
    336. D(Al  1,Al  2,Al  0,H  26)    -88.8918         0.010000   
    337. D(Al  0,Al  3,Al  2,H  18)   -116.3372         0.010000   
    338. D(Al  0,Al  3,Al  2,H  20)    176.8279         0.010000   
    339. D(Al  0,Al  3,Al  2,H  19)    132.9736         0.010000   
    340. D(Al  0,Al  3,Al  2,Al  4)   -102.5782         0.010000   
    341. D(Al  2,Al  3,Al  0,H  28)   -159.8242         0.010000   
    342. D(Al  6,Al  3,Al  0,H  29)   -141.3904         0.010000   
    343. D(Al  2,Al  3,Al  0,H  31)     48.4069         0.010000   
    344. D(Al  6,Al  3,Al  0,H  31)    -48.5940         0.010000   
    345. D(Al  6,Al  3,Al  0,Al  1)    -82.4602         0.010000   
    346. D(Al  6,Al  3,Al  0,Al  2)    -97.0010         0.010000   
    347. D(Al  6,Al  3,Al  0,H  26)     88.8140         0.010000   
    348. D(Al  6,Al  3,Al  0,H  28)    103.1749         0.010000   
    349. D(Al  6,Al  3,Al  0,H  27)    -77.4832         0.010000   
    350. D(Al  2,Al  3,Al  0,H  29)    -44.3895         0.010000   
    351. D(Al  2,Al  3,Al  0,H  27)     19.5177         0.010000   
    352. D(Al  0,Al  3,Al  2,Al  1)    -14.0070         0.010000   
    353. D(Al  2,Al  3,Al  0,Al  1)     14.5408         0.010000   
    354. D(Al  0,Al  3,Al  2,H  17)    -14.6057         0.010000   
    355. D(Al  6,Al  3,Al  2,H  17)     61.7591         0.010000   
    356. D(Al  6,Al  3,Al  2,Al  4)    -26.2135         0.010000   
    357. D(Al  6,Al  3,Al  2,H  18)    -39.9724         0.010000   
    358. D(Al  6,Al  3,Al  2,Al  0)     76.3647         0.010000   
    359. D(Al  6,Al  3,Al  2,H  20)   -106.8074         0.010000   
    360. D(Al  6,Al  3,Al  2,H  19)   -150.6616         0.010000   
    361. D(Al  0,Al  3,Al  2,H  31)    -42.1800         0.010000   
    362. D(Al  0,Al  3,Al  2,H  29)     40.0508         0.010000   
    363. D(Al  6,Al  3,Al  2,Al  1)     62.3578         0.010000   
    364. D(Al  2,Al  3,Al  0,H  26)   -174.1850         0.010000   
    365. D(Al  6,Al  4,Al  2,H  29)    -36.7915         0.010000   
    366. D(Al  6,Al  4,Al  2,H  19)    140.3113         0.010000   
    367. D(Al  6,Al  4,Al  2,Al  3)     25.8835         0.010000   
    368. D(Al  6,Al  4,Al  2,H  20)     48.5113         0.010000   
    369. D(Al  5,Al  4,Al  2,H  31)     47.3662         0.010000   
    370. D(Al  6,Al  4,Al  2,H  17)   -124.0998         0.010000   
    371. D(Al  5,Al  4,Al  2,H  29)     48.4449         0.010000   
    372. D(Al  6,Al  4,Al  2,Al  1)   -100.8452         0.010000   
    373. D(Al  5,Al  4,Al  2,H  20)    133.7478         0.010000   
    374. D(Al  5,Al  4,Al  2,H  18)   -122.9635         0.010000   
    375. D(Al  6,Al  4,Al  2,Al  0)    -36.8702         0.010000   
    376. D(Al  5,Al  4,Al  2,Al  3)    111.1200         0.010000   
    377. D(Al  5,Al  4,Al  2,H  19)   -134.4523         0.010000   
    378. D(Al  5,Al  4,Al  2,Al  1)    -15.6088         0.010000   
    379. D(Al  5,Al  4,Al  2,H  17)    -38.8634         0.010000   
    380. D(Al  6,Al  4,Al  2,H  18)    151.8001         0.010000   
    381. D(Al  5,Al  4,Al  2,Al  0)     48.3662         0.010000   
    382. D(Al  7,Al  5,Al  4,H  25)    -68.7020         0.010000   
    383. D(Al  7,Al  5,Al  4,H  24)     95.3855         0.010000   
    384. D(Al  7,Al  5,Al  4,H   9)     17.1735         0.010000   
    385. D(Al  7,Al  5,Al  4,Al  6)    -58.4475         0.010000   
    386. D(Al  7,Al  5,Al  4,H  16)    148.1455         0.010000   
    387. D(Al  1,Al  5,Al  4,H  25)     89.0757         0.010000   
    388. D(Al  7,Al  5,Al  4,H  18)   -157.0584         0.010000   
    389. D(Al  1,Al  5,Al  4,H  16)    -54.0768         0.010000   
    390. D(Al  1,Al  5,Al  4,H   9)    174.9511         0.010000   
    391. D(Al  1,Al  5,Al  4,Al  7)    157.7777         0.010000   
    392. D(Al  1,Al  5,Al  4,Al  6)     99.3302         0.010000   
    393. D(Al  1,Al  5,Al  4,H  18)      0.7193         0.010000   
    394. D(Al  1,Al  5,Al  4,Al  2)     14.6979         0.010000   
    395. D(H  11,Al  5,Al  1,Al  0)    -42.0086         0.010000   
    396. D(Al  7,Al  5,Al  1,H  27)    -65.3615         0.010000   
    397. D(Al  7,Al  5,Al  1,H  17)     37.1379         0.010000   
    398. D(Al  1,Al  5,Al  4,H  24)   -106.8368         0.010000   
    399. D(Al  7,Al  5,Al  1,H  15)    169.8518         0.010000   
    400. D(Al  7,Al  5,Al  1,Al  2)     12.9065         0.010000   
    401. D(Al  7,Al  5,Al  1,Al  0)    -37.6919         0.010000   
    402. D(Al  7,Al  5,Al  4,Al  2)   -143.0798         0.010000   
    403. D(Al  4,Al  5,Al  1,H  27)    -93.7806         0.010000   
    404. D(Al  4,Al  5,Al  1,H  17)      8.7188         0.010000   
    405. D(Al  4,Al  5,Al  1,H  15)    141.4327         0.010000   
    406. D(Al  7,Al  5,Al  1,H  14)    140.5150         0.010000   
    407. D(Al  4,Al  5,Al  1,Al  0)    -66.1110         0.010000   
    408. D(Al  4,Al  5,Al  1,H  14)    112.0960         0.010000   
    409. D(Al  4,Al  5,Al  1,Al  2)    -15.5126         0.010000   
    410. D(Al  7,Al  6,Al  3,H  21)   -122.2117         0.010000   
    411. D(Al  7,Al  6,Al  3,Al  0)     63.7378         0.010000   
    412. D(Al  7,Al  6,Al  3,H  20)    -10.2805         0.010000   
    413. D(Al  4,Al  6,Al  3,H  28)    103.8856         0.010000   
    414. D(Al  4,Al  6,Al  3,H  22)   -133.2772         0.010000   
    415. D(Al  4,Al  6,Al  3,H  20)      2.6515         0.010000   
    416. D(Al  7,Al  6,Al  3,Al  2)     13.5529         0.010000   
    417. D(Al  4,Al  6,Al  3,Al  2)     26.4849         0.010000   
    418. D(Al  4,Al  6,Al  3,Al  0)     76.6698         0.010000   
    419. D(Al  4,Al  6,Al  3,H  21)   -109.2797         0.010000   
    420. D(Al  7,Al  6,Al  4,H  25)   -161.9292         0.010000   
    421. D(Al  7,Al  6,Al  4,H  24)    -96.6123         0.010000   
    422. D(Al  7,Al  6,Al  4,H  16)     63.4742         0.010000   
    423. D(Al  7,Al  6,Al  4,Al  5)     56.7855         0.010000   
    424. D(Al  3,Al  6,Al  4,H  25)     27.1936         0.010000   
    425. D(Al  7,Al  6,Al  4,H   9)    -23.1404         0.010000   
    426. D(Al  3,Al  6,Al  4,H  24)     92.5105         0.010000   
    427. D(Al  3,Al  6,Al  4,H  18)    -17.4717         0.010000   
    428. D(Al  3,Al  6,Al  4,H   9)    165.9824         0.010000   
    429. D(Al  3,Al  6,Al  4,Al  5)   -114.0917         0.010000   
    430. D(Al  7,Al  6,Al  4,Al  2)    145.5495         0.010000   
    431. D(Al  3,Al  6,Al  4,Al  7)   -170.8772         0.010000   
    432. D(Al  3,Al  6,Al  4,Al  2)    -25.3277         0.010000   
    433. D(H  10,Al  6,Al  3,Al  0)     26.7809         0.010000   
    434. D(Al  7,Al  6,Al  4,H  18)    153.4055         0.010000   
    435. D(Al  3,Al  6,Al  4,H  16)   -107.4030         0.010000   
    436. D(Al  7,Al  6,Al  3,H  28)     90.9536         0.010000   
    437. D(Al  7,Al  6,Al  3,H  22)   -146.2092         0.010000   
    438. D(Al  5,Al  7,Al  6,H  30)     46.8514         0.010000   
    439. D(Al  5,Al  7,Al  6,H  25)    -66.2080         0.010000   
    440. D(Al  5,Al  7,Al  6,H  21)    -85.1175         0.010000   
    441. D(Al  5,Al  7,Al  6,H  10)     78.8982         0.010000   
    442. D(Al  5,Al  7,Al  6,Al  4)    -61.0997         0.010000   
    443. D(Al  5,Al  7,Al  6,Al  3)    -45.6516         0.010000   
    444. D(Al  4,Al  7,Al  6,H  25)     -5.1083         0.010000   
    445. D(Al  4,Al  7,Al  6,H  23)   -114.4028         0.010000   
    446. D(Al  4,Al  7,Al  6,H  30)    107.9511         0.010000   
    447. D(Al  4,Al  7,Al  6,Al  3)     15.4481         0.010000   
    448. D(Al  6,Al  7,Al  5,H  16)     67.6822         0.010000   
    449. D(Al  6,Al  7,Al  5,H  12)    -47.3234         0.010000   
    450. D(Al  6,Al  7,Al  5,H  13)    174.0004         0.010000   
    451. D(Al  6,Al  7,Al  5,H  11)   -158.0369         0.010000   
    452. D(Al  6,Al  7,Al  5,Al  1)     25.2223         0.010000   
    453. D(Al  4,Al  7,Al  5,H  16)      8.0579         0.010000   
    454. D(Al  6,Al  7,Al  5,H  14)     46.5713         0.010000   
    455. D(Al  4,Al  7,Al  5,H  14)    -13.0530         0.010000   
    456. D(Al  4,Al  7,Al  5,H  12)   -106.9477         0.010000   
    457. D(Al  4,Al  7,Al  5,H  11)    142.3388         0.010000   
    458. D(Al  6,Al  7,Al  5,Al  4)     59.6243         0.010000   
    459. D(Al  4,Al  7,Al  5,Al  1)    -34.4019         0.010000   
    460. D(Al  4,Al  7,Al  5,H  13)    114.3762         0.010000   
    461. D(Al  6,Al  7,Al  4,H  24)    129.1106         0.010000   
    462. D(Al  6,Al  7,Al  4,H  25)      5.1646         0.010000   
    463. D(Al  6,Al  7,Al  4,H  16)   -111.2677         0.010000   
    464. D(Al  6,Al  7,Al  4,H  18)    -56.3267         0.010000   
    465. D(Al  4,Al  7,Al  6,H  10)    139.9980         0.010000   
    466. D(Al  4,Al  7,Al  6,H  21)    -24.0178         0.010000   
    467. D(Al  6,Al  7,Al  4,H   9)    118.9081         0.010000   
    468. D(Al  6,Al  7,Al  4,Al  5)   -103.0449         0.010000   
    469. D(Al  5,Al  7,Al  4,H  25)    108.2094         0.010000   
    470. D(Al  5,Al  7,Al  4,H  24)   -127.8446         0.010000   
    471. D(Al  5,Al  7,Al  4,H  18)     46.7181         0.010000   
    472. D(Al  5,Al  7,Al  4,H  16)     -8.2228         0.010000   
    473. D(Al  5,Al  7,Al  4,H   9)   -138.0470         0.010000   
    474. D(Al  5,Al  7,Al  6,H  23)   -175.5025         0.010000   
    475. D(Al  6,Al  7,Al  4,Al  2)    -49.2101         0.010000   
    476. D(Al  5,Al  7,Al  4,Al  2)     53.8347         0.010000   
    477. D(Al  5,Al  7,Al  4,Al  6)    103.0449         0.010000   
    478. D(Al  4,H   9,Al  7,H  11)     60.1186         0.010000   
    479. D(Al  4,H   9,Al  7,H  10)    -46.3793         0.010000   
    480. D(Al  4,H   9,Al  7,H   8)   -173.4834         0.010000   
    481. D(Al  4,H   9,Al  7,Al  6)    -52.3296         0.010000   
    482. D(Al  4,H   9,Al  7,Al  5)     37.0052         0.010000   
    483. D(Al  7,H   9,Al  4,H  25)     62.8944         0.010000   
    484. D(Al  7,H   9,Al  4,H  24)   -170.7324         0.010000   
    485. D(Al  7,H   9,Al  4,H  18)     21.9363         0.010000   
    486. D(Al  7,H   9,Al  4,H  16)    -46.8469         0.010000   
    487. D(Al  7,H   9,Al  4,Al  6)     52.1789         0.010000   
    488. D(Al  7,H   9,Al  4,Al  5)    -35.6396         0.010000   
    489. D(Al  7,H   9,Al  4,Al  2)     22.7038         0.010000   
    490. D(Al  6,H  10,Al  7,H  11)   -119.3812         0.010000   
    491. D(Al  6,H  10,Al  7,H   8)    111.3084         0.010000   
    492. D(Al  6,H  10,Al  7,Al  5)    -99.6237         0.010000   
    493. D(Al  6,H  10,Al  7,Al  4)    -35.1627         0.010000   
    494. D(Al  7,H  10,Al  6,H  30)    149.5621         0.010000   
    495. D(Al  7,H  10,Al  6,H  25)     33.0150         0.010000   
    496. D(Al  7,H  10,Al  6,H  23)    -75.4185         0.010000   
    497. D(Al  7,H  10,Al  6,H  21)     44.2426         0.010000   
    498. D(Al  6,H  10,Al  7,H   9)    -14.6318         0.010000   
    499. D(Al  7,H  10,Al  6,Al  4)     34.1651         0.010000   
    500. D(Al  7,H  10,Al  6,Al  3)     86.8432         0.010000   
    501. D(Al  5,H  11,Al  7,H   9)    -57.9347         0.010000   
    502. D(Al  5,H  11,Al  7,H   8)    176.4010         0.010000   
    503. D(Al  5,H  11,Al  7,Al  6)     24.1581         0.010000   
    504. D(Al  5,H  11,Al  7,Al  4)    -33.3613         0.010000   
    505. D(Al  7,H  11,Al  5,H  16)     42.2544         0.010000   
    506. D(Al  7,H  11,Al  5,H  14)     71.7244         0.010000   
    507. D(Al  7,H  11,Al  5,H  13)    154.0704         0.010000   
    508. D(Al  7,H  11,Al  5,H  12)    -69.8507         0.010000   
    509. D(Al  7,H  11,Al  5,Al  4)     31.8008         0.010000   
    510. D(Al  5,H  11,Al  7,H  10)     46.6926         0.010000   
    511. D(Al  7,H  11,Al  5,Al  1)      7.0840         0.010000   
    512. D(Al  1,H  14,Al  5,H  16)    -76.8353         0.010000   
    513. D(Al  1,H  14,Al  5,H  13)    170.9278         0.010000   
    514. D(Al  1,H  14,Al  5,H  12)     35.0473         0.010000   
    515. D(Al  1,H  14,Al  5,H  11)   -106.6147         0.010000   
    516. D(Al  1,H  14,Al  5,Al  7)    -56.8661         0.010000   
    517. D(Al  1,H  14,Al  5,Al  4)    -67.8270         0.010000   
    518. D(Al  5,H  14,Al  1,H  27)    -27.3214         0.010000   
    519. D(Al  5,H  14,Al  1,H  17)     80.0572         0.010000   
    520. D(Al  5,H  14,Al  1,H  15)   -156.5772         0.010000   
    521. D(Al  5,H  14,Al  1,Al  2)     54.2827         0.010000   
    522. D(Al  5,H  14,Al  1,Al  0)      1.8727         0.010000   
    523. D(Al  4,H  16,Al  5,H  14)    141.1260         0.010000   
    524. D(Al  4,H  16,Al  5,H  13)   -133.7183         0.010000   
    525. D(Al  4,H  16,Al  5,H  12)     49.7474         0.010000   
    526. D(Al  4,H  16,Al  5,H  11)    -45.2262         0.010000   
    527. D(Al  4,H  16,Al  5,Al  7)    -28.2301         0.010000   
    528. D(Al  4,H  16,Al  5,Al  1)    124.3303         0.010000   
    529. D(Al  5,H  16,Al  4,H  25)    -39.1110         0.010000   
    530. D(Al  5,H  16,Al  4,H  24)    136.2644         0.010000   
    531. D(Al  5,H  16,Al  4,H  18)   -125.8323         0.010000   
    532. D(Al  5,H  16,Al  4,H   9)     47.8450         0.010000   
    533. D(Al  5,H  16,Al  4,Al  7)     28.3907         0.010000   
    534. D(Al  5,H  16,Al  4,Al  6)    -26.8010         0.010000   
    535. D(Al  5,H  16,Al  4,Al  2)   -110.1597         0.010000   
    536. D(Al  1,H  17,Al  2,H  20)     31.4893         0.010000   
    537. D(Al  1,H  17,Al  2,H  19)   -148.7680         0.010000   
    538. D(Al  1,H  17,Al  2,H  18)    105.3068         0.010000   
    539. D(Al  1,H  17,Al  2,Al  4)     88.4864         0.010000   
    540. D(Al  1,H  17,Al  2,Al  3)      1.2154         0.010000   
    541. D(Al  1,H  17,Al  2,Al  0)    -11.8598         0.010000   
    542. D(Al  2,H  17,Al  1,H  27)     17.6604         0.010000   
    543. D(Al  2,H  17,Al  1,H  15)    141.1460         0.010000   
    544. D(Al  2,H  17,Al  1,H  14)    -94.1117         0.010000   
    545. D(Al  2,H  17,Al  1,Al  5)    -74.7654         0.010000   
    546. D(Al  1,H  17,Al  2,H  29)    -50.4783         0.010000   
    547. D(Al  2,H  17,Al  1,Al  0)     10.4870         0.010000   
    548. D(Al  1,H  17,Al  2,H  31)     26.2641         0.010000   
    549. D(Al  2,H  18,Al  4,H  24)   -166.1596         0.010000   
    550. D(Al  2,H  18,Al  4,H  16)     69.8687         0.010000   
    551. D(Al  2,H  18,Al  4,H   9)      1.0663         0.010000   
    552. D(Al  2,H  18,Al  4,Al  7)     18.8233         0.010000   
    553. D(Al  2,H  18,Al  4,Al  6)    -28.4524         0.010000   
    554. D(Al  2,H  18,Al  4,Al  5)     57.7249         0.010000   
    555. D(Al  4,H  18,Al  2,H  31)     -8.7149         0.010000   
    556. D(Al  4,H  18,Al  2,H  29)    -13.7171         0.010000   
    557. D(Al  4,H  18,Al  2,H  20)     75.7265         0.010000   
    558. D(Al  4,H  18,Al  2,H  19)    169.9464         0.010000   
    559. D(Al  4,H  18,Al  2,H  17)    -95.8406         0.010000   
    560. D(Al  4,H  18,Al  2,Al  3)     54.8082         0.010000   
    561. D(Al  4,H  18,Al  2,Al  1)    -73.3584         0.010000   
    562. D(Al  2,H  18,Al  4,H  25)    -39.8958         0.010000   
    563. D(Al  4,H  18,Al  2,Al  0)     -9.5858         0.010000   
    564. D(Al  2,H  20,Al  3,H  28)    -12.6457         0.010000   
    565. D(Al  2,H  20,Al  3,H  21)     98.4103         0.010000   
    566. D(Al  2,H  20,Al  3,Al  6)     73.7662         0.010000   
    567. D(Al  2,H  20,Al  3,Al  0)     -2.5333         0.010000   
    568. D(Al  3,H  20,Al  2,H  31)    -35.2943         0.010000   
    569. D(Al  3,H  20,Al  2,H  29)     41.1785         0.010000   
    570. D(Al  3,H  20,Al  2,H  19)    139.7190         0.010000   
    571. D(Al  3,H  20,Al  2,H  18)   -114.3785         0.010000   
    572. D(Al  3,H  20,Al  2,H  17)    -40.5384         0.010000   
    573. D(Al  3,H  20,Al  2,Al  4)    -97.9298         0.010000   
    574. D(Al  2,H  20,Al  3,H  22)   -135.5425         0.010000   
    575. D(Al  3,H  20,Al  2,Al  1)    -16.9779         0.010000   
    576. D(Al  3,H  20,Al  2,Al  0)      2.8475         0.010000   
    577. D(Al  3,H  21,Al  6,H  25)     72.8705         0.010000   
    578. D(Al  3,H  21,Al  6,H  23)   -178.4302         0.010000   
    579. D(Al  3,H  21,Al  6,H  10)     61.4316         0.010000   
    580. D(Al  3,H  21,Al  6,Al  7)     91.1949         0.010000   
    581. D(Al  3,H  21,Al  6,Al  4)     71.1446         0.010000   
    582. D(Al  6,H  21,Al  3,H  28)     34.7874         0.010000   
    583. D(Al  6,H  21,Al  3,H  22)    163.0878         0.010000   
    584. D(Al  6,H  21,Al  3,H  20)    -72.1734         0.010000   
    585. D(Al  6,H  21,Al  3,Al  2)    -46.5148         0.010000   
    586. D(Al  3,H  21,Al  6,H  30)    -43.4659         0.010000   
    587. D(Al  6,H  21,Al  3,Al  0)      5.9940         0.010000   
    588. D(Al  4,H  25,Al  6,H  30)    -85.0580         0.010000   
    589. D(Al  4,H  25,Al  6,H  23)     99.8591         0.010000   
    590. D(Al  4,H  25,Al  6,H  21)   -173.6976         0.010000   
    591. D(Al  4,H  25,Al  6,H  10)      4.0448         0.010000   
    592. D(Al  4,H  25,Al  6,Al  7)     15.8645         0.010000   
    593. D(Al  4,H  25,Al  6,Al  3)   -151.5522         0.010000   
    594. D(Al  6,H  25,Al  4,H  24)   -126.8174         0.010000   
    595. D(Al  6,H  25,Al  4,H  18)    135.9915         0.010000   
    596. D(Al  6,H  25,Al  4,H  16)     48.4178         0.010000   
    597. D(Al  6,H  25,Al  4,H   9)    -39.5638         0.010000   
    598. D(Al  6,H  25,Al  4,Al  7)    -16.1564         0.010000   
    599. D(Al  6,H  25,Al  4,Al  5)     38.9840         0.010000   
    600. D(Al  6,H  25,Al  4,Al  2)    125.0487         0.010000   
    601. D(Al  0,H  27,Al  1,H  17)    -14.9953         0.010000   
    602. D(Al  0,H  27,Al  1,H  15)   -137.8519         0.010000   
    603. D(Al  0,H  27,Al  1,H  14)     92.2637         0.010000   
    604. D(Al  0,H  27,Al  1,Al  5)     83.4732         0.010000   
    605. D(Al  0,H  27,Al  1,Al  2)     -7.4226         0.010000   
    606. D(Al  1,H  27,Al  0,H  31)    -36.0338         0.010000   
    607. D(Al  1,H  27,Al  0,H  29)     51.9947         0.010000   
    608. D(Al  1,H  27,Al  0,H  26)   -176.8694         0.010000   
    609. D(Al  1,H  27,Al  0,Al  3)     -9.2207         0.010000   
    610. D(Al  1,H  27,Al  0,Al  2)      8.5092         0.010000   
    611. D(Al  3,H  28,H  27,Al  1)     -9.7438         0.010000   
    612. D(Al  0,H  28,Al  3,H  22)    143.6481         0.010000   
    613. D(Al  0,H  28,Al  3,H  21)    -87.3164         0.010000   
    614. D(Al  0,H  28,Al  3,H  20)     21.2846         0.010000   
    615. D(Al  0,H  28,Al  3,Al  6)    -72.8545         0.010000   
    616. D(Al  0,H  28,Al  3,Al  2)     15.8686         0.010000   
    617. D(Al  3,H  28,Al  0,H  31)     26.1972         0.010000   
    618. D(Al  3,H  28,Al  0,H  29)    -61.8192         0.010000   
    619. D(Al  3,H  28,Al  0,H  26)    167.0558         0.010000   
    620. D(Al  3,H  28,Al  0,Al  2)    -18.3230         0.010000   
    621. D(Al  3,H  28,Al  0,Al  1)    -10.0244         0.010000   
    622. D(Al  0,H  29,Al  2,H  20)    -83.0188         0.010000   
    623. D(Al  0,H  29,Al  2,H  19)   -177.6563         0.010000   
    624. D(Al  0,H  29,Al  2,H  18)      5.9044         0.010000   
    625. D(Al  0,H  29,Al  2,H  17)     88.2857         0.010000   
    626. D(Al  0,H  29,Al  2,Al  4)     -0.1241         0.010000   
    627. D(Al  0,H  29,Al  2,Al  3)    -67.5971         0.010000   
    628. D(Al  0,H  29,Al  2,Al  1)     69.7377         0.010000   
    629. D(Al  2,H  29,Al  0,H  31)     -0.9498         0.010000   
    630. D(Al  2,H  29,Al  0,H  28)     90.4247         0.010000   
    631. D(Al  2,H  29,Al  0,H  27)    -88.7585         0.010000   
    632. D(Al  2,H  29,Al  0,H  26)   -179.2278         0.010000   
    633. D(Al  2,H  29,Al  0,Al  3)     67.8697         0.010000   
    634. D(Al  0,H  29,Al  2,H  31)      0.8575         0.010000   
    635. D(Al  2,H  29,Al  0,Al  1)    -68.7573         0.010000   
    636. D(Al  0,H  31,Al  2,H  29)     -0.8672         0.010000   
    637. D(Al  0,H  31,Al  2,H  20)     91.5538         0.010000   
    638. D(Al  0,H  31,Al  2,H  19)     15.8064         0.010000   
    639. D(Al  0,H  31,Al  2,H  18)   -178.7423         0.010000   
    640. D(Al  0,H  31,Al  2,H  17)    -89.2468         0.010000   
    641. D(Al  0,H  31,Al  2,Al  4)    178.4048         0.010000   
    642. D(Al  0,H  31,Al  2,Al  3)     77.3373         0.010000   
    643. D(Al  0,H  31,Al  2,Al  1)    -78.2421         0.010000   
    644. D(Al  2,H  31,Al  0,H  29)      0.9318         0.010000   
    645. D(Al  2,H  31,Al  0,H  28)    -87.8945         0.010000   
    646. D(Al  2,H  31,Al  0,H  27)     91.3663         0.010000   
    647. D(Al  2,H  31,Al  0,H  26)    178.8800         0.010000   
    648. D(Al  2,H  31,Al  0,Al  3)    -76.3032         0.010000   
    649. D(Al  2,H  31,Al  0,Al  1)     75.9178         0.010000   
    -----------------------------------------------------------------

Number of atoms                         .... 32
Number of degrees of freedom            .... 649


         *************************************************************
         *                GEOMETRY OPTIMIZATION CYCLE   1            *
         *************************************************************
---------------------------------
CARTESIAN COORDINATES (ANGSTROEM)
---------------------------------
  Al    -0.166993    2.456338    0.696192
  Al    -2.951211    1.174701    1.342006
  Al    -0.178694   -0.226157    0.858470
  Al     2.665310    1.167874    0.818004
  Al     0.189941   -0.627528    4.128121
  Al    -2.235873    1.605422    4.575976
  Al     2.168672    1.984696    3.907061
  Al     0.292061    1.413813    6.477520
  H      0.786891    1.615261    7.970388
  H      0.500314   -0.117479    5.864122
  H      1.026180    2.325262    5.319028
  H     -1.315324    1.658588    6.201889
  H     -1.593891    2.937426    3.988293
  H     -3.568561    1.230041    5.354062
  H     -3.093034    1.138258    2.972928
  H     -4.318339    1.106036    0.538525
  H     -1.291508    0.187462    4.186432
  H     -1.952110   -0.117918    1.050500
  H     -0.083140   -0.913450    2.426769
  H     -0.241635   -1.452307   -0.153421
  H      1.618915   -0.123542    0.841282
  H      3.108762    1.344235    2.389941
  H      3.860292    0.991304   -0.211161
  H      3.464134    1.773744    4.803060
  H      0.383198   -2.141125    4.559495
  H      1.407534    0.442196    3.674114
  H     -0.192699    4.017974    0.456371
  H     -1.990264    2.459938    0.939778
  H      1.641680    2.417323    0.458749
  H     -0.303267    1.161748   -0.384916
  H      1.534304    3.217998    3.121052
  H     -0.067926    1.337868    1.933748

----------------------------
CARTESIAN COORDINATES (A.U.)
----------------------------
  NO LB      ZA    FRAG     MASS         X           Y           Z
   0 Al   13.0000    0    26.982   -0.315571    4.641806    1.315613
   1 Al   13.0000    0    26.982   -5.576981    2.219863    2.536023
   2 Al   13.0000    0    26.982   -0.337682   -0.427375    1.622273
   3 Al   13.0000    0    26.982    5.036705    2.206962    1.545803
   4 Al   13.0000    0    26.982    0.358936   -1.185856    7.801018
   5 Al   13.0000    0    26.982   -4.225188    3.033808    8.647342
   6 Al   13.0000    0    26.982    4.098197    3.750533    7.383275
   7 Al   13.0000    0    26.982    0.551915    2.671719   12.240739
   8 H     1.0000    0     1.008    1.487009    3.052400   15.061851
   9 H     1.0000    0     1.008    0.945456   -0.222004   11.081585
  10 H     1.0000    0     1.008    1.939198    4.394109   10.051507
  11 H     1.0000    0     1.008   -2.485602    3.134277   11.719871
  12 H     1.0000    0     1.008   -3.012017    5.550930    7.536782
  13 H     1.0000    0     1.008   -6.743603    2.324440   10.117711
  14 H     1.0000    0     1.008   -5.844987    2.150996    5.618020
  15 H     1.0000    0     1.008   -8.160478    2.090105    1.017665
  16 H     1.0000    0     1.008   -2.440596    0.354253    7.911209
  17 H     1.0000    0     1.008   -3.688953   -0.222832    1.985158
  18 H     1.0000    0     1.008   -0.157112   -1.726171    4.585928
  19 H     1.0000    0     1.008   -0.456624   -2.744462   -0.289924
  20 H     1.0000    0     1.008    3.059306   -0.233461    1.589794
  21 H     1.0000    0     1.008    5.874710    2.540237    4.516334
  22 H     1.0000    0     1.008    7.294894    1.873293   -0.399037
  23 H     1.0000    0     1.008    6.546264    3.351889    9.076468
  24 H     1.0000    0     1.008    0.724139   -4.046139    8.616198
  25 H     1.0000    0     1.008    2.659855    0.835630    6.943070
  26 H     1.0000    0     1.008   -0.364148    7.592870    0.862417
  27 H     1.0000    0     1.008   -3.761054    4.648608    1.775924
  28 H     1.0000    0     1.008    3.102326    4.568079    0.866911
  29 H     1.0000    0     1.008   -0.573091    2.195386   -0.727386
  30 H     1.0000    0     1.008    2.899415    6.081135    5.897934
  31 H     1.0000    0     1.008   -0.128362    2.528204    3.654254

--------------------------------
INTERNAL COORDINATES (ANGSTROEM)
--------------------------------
 Al     0   0   0     0.000000000000     0.00000000     0.00000000
 Al     1   0   0     3.132337454932     0.00000000     0.00000000
 Al     1   2   0     2.687424667187    64.86627505     0.00000000
 Al     1   2   3     3.113987394310   129.13095174   345.35857444
 Al     3   1   2     3.314755952899   100.36639747   275.00135308
 Al     5   3   1     3.327343279859    88.30545142    48.36619666
 Al     4   1   2     3.233592699807    78.06251069   277.53979982
 Al     5   3   1     3.114029067255   131.94844814     4.65044794
 H      8   5   3     1.585589310841   143.49998481   201.82573774
 H      8   5   3     1.662673010825    28.60268780   191.88176257
 H      8   5   3     1.646746539259    81.18079606   325.94178845
 H      8   5   3     1.649113196426    86.51634171    70.27004163
 H      6   5   3     1.591146160935   102.58732443   295.13554583
 H      6   5   3     1.588202443370   121.27105029   120.52232389
 H      2   1   3     1.637482830992   106.94423283    92.71691136
 H      2   1   3     1.587241289169   132.76008687   245.84454507
 H      5   3   1     1.691832870120    83.00899645    62.35388715
 H      2   1   3     1.659530897979    75.36586721   354.25933788
 H      3   1   2     1.714952711988   117.06543620   277.82370907
 H      3   1   2     1.591014920011   136.97242763    98.48279210
 H      4   1   2     1.662299062900    75.49010437    15.91812881
 H      4   1   2     1.642784406092   103.79991451   274.87022591
 H      4   1   2     1.586927412489   134.87553467   124.61140007
 H      7   4   1     1.589193672912   112.32597866   187.64653217
 H      5   3   1     1.585688233153   113.42045585   186.31426700
 H      5   3   1     1.683141933232    74.77716482   309.72209746
 H      1   2   3     1.580151961056   114.91037631   174.04584471
 H      2   1   3     1.654399742050    27.83707982   189.40628024
 H      4   1   2     1.654692080420    27.92158665   174.36493417
 H      1   2   3     1.692137045740    75.35128351    45.12292478
 H      7   4   1     1.594134695636    77.61511854   321.29227543
 H      1   2   3     1.671027867655    68.04599016   311.26283282

---------------------------
INTERNAL COORDINATES (A.U.)
---------------------------
 Al     0   0   0     0.000000000000     0.00000000     0.00000000
 Al     1   0   0     5.919259948845     0.00000000     0.00000000
 Al     1   2   0     5.078496626528    64.86627505     0.00000000
 Al     1   2   3     5.884583359729   129.13095174   345.35857444
 Al     3   1   2     6.263980951764   100.36639747   275.00135308
 Al     5   3   1     6.287767552476    88.30545142    48.36619666
 Al     4   1   2     6.110604631282    78.06251069   277.53979982
 Al     5   3   1     5.884662110182   131.94844814     4.65044794
 H      8   5   3     2.996329558363   143.49998481   201.82573774
 H      8   5   3     3.141996640721    28.60268780   191.88176257
 H      8   5   3     3.111899971182    81.18079606   325.94178845
 H      8   5   3     3.116372305081    86.51634171    70.27004163
 H      6   5   3     3.006830483207   102.58732443   295.13554583
 H      6   5   3     3.001267663194   121.27105029   120.52232389
 H      2   1   3     3.094394099573   106.94423283    92.71691136
 H      2   1   3     2.999451344981   132.76008687   245.84454507
 H      5   3   1     3.197100788893    83.00899645    62.35388715
 H      2   1   3     3.136058907961    75.36586721   354.25933788
 H      3   1   2     3.240790958283   117.06543620   277.82370907
 H      3   1   2     3.006582473802   136.97242763    98.48279210
 H      4   1   2     3.141289981555    75.49010437    15.91812881
 H      4   1   2     3.104412624590   103.79991451   274.87022591
 H      4   1   2     2.998858204016   134.87553467   124.61140007
 H      7   4   1     3.003140815565   112.32597866   187.64653217
 H      5   3   1     2.996516494441   113.42045585   186.31426700
 H      5   3   1     3.180677298327    74.77716482   309.72209746
 H      1   2   3     2.986054456374   114.91037631   174.04584471
 H      2   1   3     3.126362428505    27.83707982   189.40628024
 H      4   1   2     3.126914867962    27.92158665   174.36493417
 H      1   2   3     3.197675597511    75.35128351    45.12292478
 H      7   4   1     3.012477995333    77.61511854   321.29227543
 H      1   2   3     3.157785032018    68.04599016   311.26283282

---------------------
BASIS SET INFORMATION
---------------------
There are 2 groups of distinct atoms

 Group   1 Type Al  : 14s9p3d1f contracted to 5s5p2d1f pattern {73211/51111/21/1}
 Group   2 Type H   : 5s1p contracted to 3s1p pattern {311/1}

Atom   0Al   basis set group =>   1
Atom   1Al   basis set group =>   1
Atom   2Al   basis set group =>   1
Atom   3Al   basis set group =>   1
Atom   4Al   basis set group =>   1
Atom   5Al   basis set group =>   1
Atom   6Al   basis set group =>   1
Atom   7Al   basis set group =>   1
Atom   8H    basis set group =>   2
Atom   9H    basis set group =>   2
Atom  10H    basis set group =>   2
Atom  11H    basis set group =>   2
Atom  12H    basis set group =>   2
Atom  13H    basis set group =>   2
Atom  14H    basis set group =>   2
Atom  15H    basis set group =>   2
Atom  16H    basis set group =>   2
Atom  17H    basis set group =>   2
Atom  18H    basis set group =>   2
Atom  19H    basis set group =>   2
Atom  20H    basis set group =>   2
Atom  21H    basis set group =>   2
Atom  22H    basis set group =>   2
Atom  23H    basis set group =>   2
Atom  24H    basis set group =>   2
Atom  25H    basis set group =>   2
Atom  26H    basis set group =>   2
Atom  27H    basis set group =>   2
Atom  28H    basis set group =>   2
Atom  29H    basis set group =>   2
Atom  30H    basis set group =>   2
Atom  31H    basis set group =>   2
---------------------------------
AUXILIARY/J BASIS SET INFORMATION
---------------------------------
There are 2 groups of distinct atoms

 Group   1 Type Al  : 14s5p5d2f1g contracted to 8s4p3d1f1g pattern {71111111/2111/311/2/1}
 Group   2 Type H   : 5s2p1d contracted to 3s1p1d pattern {311/2/1}

Atom   0Al   basis set group =>   1
Atom   1Al   basis set group =>   1
Atom   2Al   basis set group =>   1
Atom   3Al   basis set group =>   1
Atom   4Al   basis set group =>   1
Atom   5Al   basis set group =>   1
Atom   6Al   basis set group =>   1
Atom   7Al   basis set group =>   1
Atom   8H    basis set group =>   2
Atom   9H    basis set group =>   2
Atom  10H    basis set group =>   2
Atom  11H    basis set group =>   2
Atom  12H    basis set group =>   2
Atom  13H    basis set group =>   2
Atom  14H    basis set group =>   2
Atom  15H    basis set group =>   2
Atom  16H    basis set group =>   2
Atom  17H    basis set group =>   2
Atom  18H    basis set group =>   2
Atom  19H    basis set group =>   2
Atom  20H    basis set group =>   2
Atom  21H    basis set group =>   2
Atom  22H    basis set group =>   2
Atom  23H    basis set group =>   2
Atom  24H    basis set group =>   2
Atom  25H    basis set group =>   2
Atom  26H    basis set group =>   2
Atom  27H    basis set group =>   2
Atom  28H    basis set group =>   2
Atom  29H    basis set group =>   2
Atom  30H    basis set group =>   2
Atom  31H    basis set group =>   2


           ************************************************************
           *        Program running with 24 parallel MPI-processes    *
           *              working on a common directory               *
           ************************************************************
------------------------------------------------------------------------------
                             ORCA STARTUP CALCULATIONS
                           -- RI-GTO INTEGRALS CHOSEN --
------------------------------------------------------------------------------
------------------------------------------------------------------------------
                   ___                                                        
                  /   \      - P O W E R E D   B Y -                         
                 /     \                                                     
                 |  |  |   _    _      __       _____    __    __             
                 |  |  |  | |  | |    /  \     |  _  \  |  |  /  |          
                  \  \/   | |  | |   /    \    | | | |  |  | /  /          
                 / \  \   | |__| |  /  /\  \   | |_| |  |  |/  /          
                |  |  |   |  __  | /  /__\  \  |    /   |      \           
                |  |  |   | |  | | |   __   |  |    \   |  |\   \          
                \     /   | |  | | |  |  |  |  | |\  \  |  | \   \       
                 \___/    |_|  |_| |__|  |__|  |_| \__\ |__|  \__/        
                                                                              
                      - O R C A' S   B I G   F R I E N D -                    
                                      &                                       
                       - I N T E G R A L  F E E D E R -                       
                                                                              
 v1 FN, 2020, v2 2021, v3 2022-2024                                           
------------------------------------------------------------------------------


----------------------
SHARK INTEGRAL PACKAGE
----------------------

Number of atoms                             ...     32
Number of basis functions                   ...    440
Number of shells                            ...    200
Maximum angular momentum                    ...      3
Integral batch strategy                     ... SHARK/LIBINT Hybrid
RI-J (if used) integral strategy            ... SPLIT-RIJ (Revised 2003 algorithm where possible)
Printlevel                                  ...      1
Contraction scheme used                     ... SEGMENTED contraction
Prescreening option                         ... SCHWARTZ
   Thresh                                   ... 2.500e-11
   Tcut                                     ... 2.500e-12
   Tpresel                                  ... 2.500e-12 
Coulomb Range Separation                    ... NOT USED
Exchange Range Separation                   ... NOT USED
Multipole approximations                    ... NOT USED
Finite Nucleus Model                        ... NOT USED
CABS basis                                  ... NOT available
Auxiliary Coulomb fitting basis             ... AVAILABLE
   # of basis functions in Aux-J            ...    672
   # of shells in Aux-J                     ...    256
   Maximum angular momentum in Aux-J        ...      4
Auxiliary J/K fitting basis                 ... NOT available
Auxiliary Correlation fitting basis         ... NOT available
Auxiliary 'external' fitting basis          ... NOT available

Checking pre-screening integrals            ... done (  0.0 sec) Dimension = 200
   => SHARK Basis and OBASIS are compatible. Storing Pre-screening
Shell pair information
Shell pair cut-off parameter TPreSel        ...   2.5e-12
Total number of shell pairs                 ...     20100
Shell pairs after pre-screening             ...     16270
Total number of primitive shell pairs       ...     65340
Primitive shell pairs kept                  ...     35701
          la=0 lb=0:   5111 shell pairs
          la=1 lb=0:   5373 shell pairs
          la=1 lb=1:   1428 shell pairs
          la=2 lb=0:   1707 shell pairs
          la=2 lb=1:    977 shell pairs
          la=2 lb=2:    136 shell pairs
          la=3 lb=0:    875 shell pairs
          la=3 lb=1:    499 shell pairs
          la=3 lb=2:    128 shell pairs
          la=3 lb=3:     36 shell pairs

Checking whether 4 symmetric matrices of dimension 440 fit in memory
:Max Core in MB      =   4096.00
 MB in use           =     23.35
 MB left             =   4072.65
 MB needed           =      2.96
 Data fit in memory  = YES
Calculating RI/J V-Matrix + Cholesky decomp.... done (  0.1 sec)
Calculating Nuclear repulsion               ... done (  0.0 sec) ENN=   1059.416061341438 Eh

Diagonalization of the overlap matrix:
Smallest eigenvalue                        ... 3.548e-04
Time for diagonalization                   ...    0.100 sec
Threshold for overlap eigenvalues          ... 1.000e-07
Number of eigenvalues below threshold      ... 0
Time for construction of square roots      ...    0.048 sec
Total time needed                          ...    0.155 sec

-------------------
DFT GRID GENERATION
-------------------

General Integration Accuracy     IntAcc      ... 4.959
Radial Grid Type                 RadialGrid  ... OptM3 with GC (2021)
Angular Grid (max. ang.)         AngularGrid ... 6 (Lebedev-590)
Angular grid pruning method      GridPruning ... 4 (adaptive)
Weight generation scheme         WeightScheme... mBecke (2022)
Basis function cutoff            BFCut       ... 1.0000e-11
Integration weight cutoff        WCut        ... 1.0000e-14
Partially contracted basis set               ... off
Rotationally invariant grid construction     ... off
Angular grids for H and He will be reduced by one unit

Total number of grid points                  ...   330454
Total number of batches                      ...     5180
Average number of points per batch           ...       63
Average number of grid points per atom       ...    10327
Grids setup in   8.1 sec
Initializing property integral containers    ... done (  0.0 sec)

SHARK setup successfully completed in   9.5 seconds

Maximum memory used throughout the entire STARTUP-calculation: 76.7 MB


           ************************************************************
           *        Program running with 24 parallel MPI-processes    *
           *              working on a common directory               *
           ************************************************************
-------------------------------------------------------------------------------
                                 ORCA GUESS
                   Start orbitals & Density for SCF / CASSCF
-------------------------------------------------------------------------------

------------
SCF SETTINGS
------------
Hamiltonian:
 Density Functional     Method          .... DFT(GTOs)
 Exchange Functional    Exchange        .... PBE
   PBE kappa parameter   XKappa         ....  0.804000
   PBE mue parameter    XMuePBE         ....  0.219520
 Correlation Functional Correlation     .... PBE
   PBE beta parameter  CBetaPBE         ....  0.066725
 LDA part of GGA corr.  LDAOpt          .... PW91-LDA
 Gradients option       PostSCFGGA      .... off
   NL short-range parameter             ....  6.400000
 RI-approximation to the Coulomb term is turned on
   Number of AuxJ basis functions       .... 672


General Settings:
 Integral files         IntName         .... run
 Hartree-Fock type      HFTyp           .... RHF
 Total Charge           Charge          ....    0
 Multiplicity           Mult            ....    1
 Number of Electrons    NEL             ....  128
 Basis Dimension        Dim             ....  440
[...]
 34:    432.02   0.003712   18.76  0.002681  (-0.015131  0.044885 -0.020920)
 35:    452.84   0.001570    7.93  0.001082  ( 0.030383 -0.012542  0.001158)
 36:    469.60   0.007579   38.30  0.005037  (-0.033011 -0.054259  0.031667)
 37:    477.04   0.013675   69.11  0.008946  (-0.040089 -0.071672 -0.046922)
 38:    495.72   0.005911   29.87  0.003721  (-0.032109  0.050840 -0.010263)
 39:    533.31   0.005456   27.57  0.003193  ( 0.047243  0.014466 -0.027416)
 40:    540.65   0.002729   13.79  0.001575  ( 0.000359  0.019192  0.034738)
 41:    546.92   0.013585   68.65  0.007751  ( 0.057239 -0.037240  0.055571)
 42:    569.96   0.008395   42.43  0.004597  (-0.067198 -0.008645 -0.002493)
 43:    572.30   0.014940   75.50  0.008147  (-0.066003 -0.004941  0.061367)
 44:    582.49   0.022974  116.10  0.012308  ( 0.071160 -0.084585 -0.009487)
 45:    596.60   0.026150  132.15  0.013678  ( 0.031382  0.101348 -0.049212)
 46:    603.08   0.045132  228.08  0.023354  (-0.048623 -0.041157 -0.138909)
 47:    608.91   0.059051  298.42  0.030263  ( 0.156897  0.021301 -0.072060)
 48:    630.56   0.190475  962.58  0.094266  (-0.018441 -0.066458 -0.299181)
 49:    646.05   0.049447  249.89  0.023885  (-0.110385  0.095499 -0.050791)
 50:    676.12   0.026072  131.76  0.012034  (-0.084585  0.009787 -0.069160)
 51:    696.15   0.284311  1436.79  0.127448  ( 0.092261  0.001895  0.344865)
 52:    708.93   0.083932  424.16  0.036946  (-0.160584 -0.052826  0.091480)
 53:    718.56   0.009881   49.94  0.004291  (-0.003280 -0.014597 -0.063777)
 54:    739.11   0.089712  453.37  0.037878  ( 0.179889  0.054837 -0.050106)
 55:    761.65   0.278594  1407.90  0.114146  ( 0.332449 -0.035031 -0.048958)
 56:    776.20   0.087015  439.74  0.034983  (-0.168829 -0.080090 -0.008115)
 57:    816.89   0.111329  562.61  0.042529  ( 0.035521 -0.117316 -0.165846)
 58:    834.69   0.025715  129.95  0.009614  ( 0.051678 -0.052050 -0.065072)
 59:    844.31   0.024489  123.76  0.009051  ( 0.019961 -0.083088 -0.041825)
 60:    865.40   0.034491  174.31  0.012438  (-0.072281  0.084887  0.002684)
 61:    874.60   0.068540  346.37  0.024456  ( 0.067988  0.135099  0.039771)
 62:    909.21   0.002606   13.17  0.000894  (-0.011553 -0.006292 -0.026859)
 63:    926.92   0.034268  173.18  0.011537  (-0.020464  0.052338  0.091536)
 64:    934.55   0.020314  102.66  0.006783  (-0.050429  0.060919  0.023000)
 65:    951.10   0.014437   72.96  0.004737  ( 0.011119 -0.008965  0.067326)
 66:    970.73   0.107181  541.65  0.034456  (-0.004225  0.165420 -0.084109)
 67:    983.73   0.009499   48.00  0.003013  ( 0.054130 -0.002721  0.008710)
 68:   1026.56   0.031239  157.87  0.009496  ( 0.026715  0.011336 -0.093028)
 69:   1027.50   0.066746  337.31  0.020272  (-0.136951  0.006684 -0.038356)
 70:   1033.24   0.028556  144.31  0.008625  ( 0.082696  0.014525 -0.039688)
 71:   1169.85   0.027837  140.68  0.007426  ( 0.003455 -0.080508  0.030531)
 72:   1545.33   0.043308  218.86  0.008746  ( 0.012352  0.030218  0.087635)
 73:   1634.55   0.023215  117.32  0.004432  (-0.005699  0.029572 -0.059373)
 74:   1676.16   0.013082   66.11  0.002435  (-0.001713  0.047339 -0.013841)
 75:   1709.17   0.025497  128.85  0.004655  (-0.020596  0.026111  0.059575)
 76:   1728.98   0.022296  112.68  0.004024  (-0.054694  0.000997 -0.032121)
 77:   1738.13   0.030890  156.11  0.005546  ( 0.059266  0.008493 -0.044288)
 78:   1743.20   0.067961  343.44  0.012166  ( 0.088465  0.011935  0.064788)
 79:   1769.69   0.178122  900.16  0.031410  ( 0.034621  0.123295 -0.122513)
 80:   1798.72   0.299291  1512.49  0.051924  (-0.029997  0.139770  0.177451)
 81:   1805.41   0.182214  920.84  0.031496  ( 0.046478  0.000139  0.171275)
 82:   1808.94   0.257991  1303.78  0.044506  (-0.144557 -0.009227  0.153377)
 83:   1824.26   0.443448  2241.00  0.075857  (-0.267925  0.007754 -0.063353)
 84:   1833.53   0.049447  249.88  0.008416  ( 0.035350  0.005572  0.084469)
 85:   1864.92   0.131879  666.46  0.022068  (-0.042507  0.138266 -0.033816)
 86:   1876.03   0.070760  357.59  0.011770  (-0.106482 -0.009386 -0.018545)
 87:   1882.27   0.044799  226.39  0.007427  (-0.058132 -0.020839  0.060114)
 88:   1885.57   0.006584   33.27  0.001090  (-0.021495 -0.013647  0.021009)
 89:   1894.11   0.008530   43.11  0.001405  ( 0.030762  0.016248  0.013965)
 90:   1895.02   0.016816   84.98  0.002769  ( 0.020336 -0.014300 -0.046380)
 91:   1898.95   0.021224  107.26  0.003488  (-0.018585  0.002926 -0.055982)
 92:   1903.19   0.027542  139.19  0.004516  ( 0.029709  0.060269 -0.001000)
 93:   1916.50   0.036016  182.01  0.005864  ( 0.055237 -0.002213 -0.052995)
 94:   1919.91   0.018871   95.37  0.003067  ( 0.011659  0.053439 -0.008696)
 95:   1946.62   0.075913  383.64  0.012170  ( 0.011073  0.108205 -0.018407)

* The epsilon (eps) is given for a Dirac delta lineshape.
** The dipole moment derivative (T) already includes vibrational overlap.

The first frequency considered to be a vibration is 6
The total number of vibrations considered is 90


--------------------------
THERMOCHEMISTRY AT 298.15K
--------------------------

Temperature         ...   298.15 K
Pressure            ...     1.00 atm
Total Mass          ...   240.05 AMU
Quasi RRHO          ...     True
Cut-Off Frequency   ...     1.00 cm^-1

Throughout the following assumptions are being made:
  (1) The electronic state is orbitally nondegenerate
  (2) There are no thermally accessible electronically excited states
  (3) Hindered rotations indicated by low frequency modes are not
      treated as such but are treated as vibrations and this may
      cause some error
  (4) All equations used are the standard statistical mechanics
      equations for an ideal gas
  (5) All vibrations are strictly harmonic

freq.      39.93  E(vib)   ...       0.54 
freq.      60.49  E(vib)   ...       0.51 
freq.      89.14  E(vib)   ...       0.47 
freq.     106.03  E(vib)   ...       0.45 
freq.     114.84  E(vib)   ...       0.44 
freq.     130.54  E(vib)   ...       0.43 
freq.     138.80  E(vib)   ...       0.42 
freq.     166.90  E(vib)   ...       0.39 
freq.     177.25  E(vib)   ...       0.37 
freq.     190.60  E(vib)   ...       0.36 
freq.     197.33  E(vib)   ...       0.35 
freq.     204.02  E(vib)   ...       0.35 
freq.     210.35  E(vib)   ...       0.34 
freq.     225.42  E(vib)   ...       0.33 
freq.     234.37  E(vib)   ...       0.32 
freq.     249.69  E(vib)   ...       0.31 
freq.     260.13  E(vib)   ...       0.30 
freq.     268.04  E(vib)   ...       0.29 
freq.     279.76  E(vib)   ...       0.28 
freq.     300.46  E(vib)   ...       0.26 
freq.     304.55  E(vib)   ...       0.26 
freq.     331.08  E(vib)   ...       0.24 
freq.     335.37  E(vib)   ...       0.24 
freq.     351.02  E(vib)   ...       0.23 
freq.     357.33  E(vib)   ...       0.22 
freq.     388.98  E(vib)   ...       0.20 
freq.     390.36  E(vib)   ...       0.20 
freq.     408.50  E(vib)   ...       0.19 
freq.     432.02  E(vib)   ...       0.18 
freq.     452.84  E(vib)   ...       0.16 
freq.     469.60  E(vib)   ...       0.16 
freq.     477.04  E(vib)   ...       0.15 
freq.     495.72  E(vib)   ...       0.14 
freq.     533.31  E(vib)   ...       0.13 
freq.     540.65  E(vib)   ...       0.12 
freq.     546.92  E(vib)   ...       0.12 
freq.     569.96  E(vib)   ...       0.11 
freq.     572.30  E(vib)   ...       0.11 
freq.     582.49  E(vib)   ...       0.11 
freq.     596.60  E(vib)   ...       0.10 
freq.     603.08  E(vib)   ...       0.10 
freq.     608.91  E(vib)   ...       0.10 
freq.     630.56  E(vib)   ...       0.09 
freq.     646.05  E(vib)   ...       0.09 
freq.     676.12  E(vib)   ...       0.08 
freq.     696.15  E(vib)   ...       0.07 
freq.     708.93  E(vib)   ...       0.07 
freq.     718.56  E(vib)   ...       0.07 
freq.     739.11  E(vib)   ...       0.06 
freq.     761.65  E(vib)   ...       0.06 
freq.     776.20  E(vib)   ...       0.05 
freq.     816.89  E(vib)   ...       0.05 
freq.     834.69  E(vib)   ...       0.04 
freq.     844.31  E(vib)   ...       0.04 
freq.     865.40  E(vib)   ...       0.04 
freq.     874.60  E(vib)   ...       0.04 
freq.     909.21  E(vib)   ...       0.03 
freq.     926.92  E(vib)   ...       0.03 
freq.     934.55  E(vib)   ...       0.03 
freq.     951.10  E(vib)   ...       0.03 
freq.     970.73  E(vib)   ...       0.03 
freq.     983.73  E(vib)   ...       0.02 
freq.    1026.56  E(vib)   ...       0.02 
freq.    1027.50  E(vib)   ...       0.02 
freq.    1033.24  E(vib)   ...       0.02 
freq.    1169.85  E(vib)   ...       0.01 
freq.    1545.33  E(vib)   ...       0.00 
freq.    1634.55  E(vib)   ...       0.00 
freq.    1676.16  E(vib)   ...       0.00 
freq.    1709.17  E(vib)   ...       0.00 
freq.    1728.98  E(vib)   ...       0.00 
freq.    1738.13  E(vib)   ...       0.00 
freq.    1743.20  E(vib)   ...       0.00 
freq.    1769.69  E(vib)   ...       0.00 
freq.    1798.72  E(vib)   ...       0.00 
freq.    1805.41  E(vib)   ...       0.00 
freq.    1808.94  E(vib)   ...       0.00 
freq.    1824.26  E(vib)   ...       0.00 
freq.    1833.53  E(vib)   ...       0.00 
freq.    1864.92  E(vib)   ...       0.00 
freq.    1876.03  E(vib)   ...       0.00 
freq.    1882.27  E(vib)   ...       0.00 
freq.    1885.57  E(vib)   ...       0.00 
freq.    1894.11  E(vib)   ...       0.00 
freq.    1895.02  E(vib)   ...       0.00 
freq.    1898.95  E(vib)   ...       0.00 
freq.    1903.19  E(vib)   ...       0.00 
freq.    1916.50  E(vib)   ...       0.00 
freq.    1919.91  E(vib)   ...       0.00 
freq.    1946.62  E(vib)   ...       0.00 

------------
INNER ENERGY
------------

The inner energy is: U= E(el) + E(ZPE) + E(vib) + E(rot) + E(trans)
    E(el)   - is the total energy from the electronic structure calculation
              = E(kin-el) + E(nuc-el) + E(el-el) + E(nuc-nuc)
    E(ZPE)  - the the zero temperature vibrational energy from the frequency calculation
    E(vib)  - the the finite temperature correction to E(ZPE) due to population
              of excited vibrational states
    E(rot)  - is the rotational thermal energy
    E(trans)- is the translational thermal energy

Summary of contributions to the inner energy U:
Electronic energy                ...  -1952.75196444 Eh
Zero point energy                ...      0.17773011 Eh     111.53 kcal/mol
Thermal vibrational correction   ...      0.01939850 Eh      12.17 kcal/mol
Thermal rotational correction    ...      0.00141627 Eh       0.89 kcal/mol
Thermal translational correction ...      0.00141627 Eh       0.89 kcal/mol
-----------------------------------------------------------------------
Total thermal energy                  -1952.55200328 Eh


Summary of corrections to the electronic energy:
(perhaps to be used in another calculation)
Total thermal correction                  0.02223104 Eh      13.95 kcal/mol
Non-thermal (ZPE) correction              0.17773011 Eh     111.53 kcal/mol
-----------------------------------------------------------------------
Total correction                          0.19996116 Eh     125.48 kcal/mol


--------
ENTHALPY
--------

The enthalpy is H = U + kB*T
                kB is Boltzmann's constant
Total thermal energy              ...  -1952.55200328 Eh 
Thermal Enthalpy correction       ...      0.00094421 Eh       0.59 kcal/mol
-----------------------------------------------------------------------
Total Enthalpy                    ...  -1952.55105907 Eh


Note: Only C1 symmetry has been detected, increase convergence thresholds 
      if your molecule has a higher symmetry. Symmetry factor of 1.0 is   
      used for the rotational entropy correction. 
 

Note: Rotational entropy computed according to Herzberg 
Infrared and Raman Spectra, Chapter V,1, Van Nostrand Reinhold, 1945 
Point Group:  C1, Symmetry Number:   1  
Rotational constants in cm-1:     0.016019     0.012842     0.009103 

Vibrational entropy computed according to the QRRHO of S. Grimme
Chem.Eur.J. 2012 18 9955 using a reference frequency of 100.0 cm-1


-------
ENTROPY
-------

The entropy contributions are T*S = T*(S(el)+S(vib)+S(rot)+S(trans))
     S(el)   - electronic entropy
     S(vib)  - vibrational entropy
     S(rot)  - rotational entropy
     S(trans)- translational entropy
The entropies will be listed as multiplied by the temperature to get
units of energy

Electronic entropy                ...      0.00000000 Eh      0.00 kcal/mol
Vibrational entropy               ...      0.03299216 Eh     20.70 kcal/mol
Rotational entropy                ...      0.01573681 Eh      9.87 kcal/mol
Translational entropy             ...      0.02011143 Eh     12.62 kcal/mol
-----------------------------------------------------------------------
Final entropy term                ...      0.06884040 Eh     43.20 kcal/mol

In case the symmetry of your molecule has not been determined correctly
or in case you have a reason to use a different symmetry number we print 
out the resulting rotational entropy values for sn=1,12:

 non-linear molecules -----------------------------------
|  sn= 1 | S(rot)=       0.01573681 Eh      9.87 kcal/mol|
|  sn= 2 | S(rot)=       0.01508235 Eh      9.46 kcal/mol|
|  sn= 3 | S(rot)=       0.01469952 Eh      9.22 kcal/mol|
|  sn= 4 | S(rot)=       0.01442790 Eh      9.05 kcal/mol|
|  sn= 5 | S(rot)=       0.01421721 Eh      8.92 kcal/mol|
|  sn= 6 | S(rot)=       0.01404506 Eh      8.81 kcal/mol|
|  sn= 7 | S(rot)=       0.01389952 Eh      8.72 kcal/mol|
|  sn= 8 | S(rot)=       0.01377344 Eh      8.64 kcal/mol|
|  sn= 9 | S(rot)=       0.01366223 Eh      8.57 kcal/mol|
|  sn=10 | S(rot)=       0.01356275 Eh      8.51 kcal/mol|
|  sn=11 | S(rot)=       0.01347276 Eh      8.45 kcal/mol|
|  sn=12 | S(rot)=       0.01339061 Eh      8.40 kcal/mol|
 linear molecules ---------------------------------------
|  Dinfh | S(rot)=       0.00976263 Eh      6.13 kcal/mol|
|  Cinfv | S(rot)=       0.01041709 Eh      6.54 kcal/mol|
 --------------------------------------------------------


-------------------
GIBBS FREE ENERGY
-------------------

The Gibbs free energy is G = H - T*S

Total enthalpy                    ...  -1952.55105907 Eh 
Total entropy correction          ...     -0.06884040 Eh    -43.20 kcal/mol
-----------------------------------------------------------------------
Final Gibbs free energy         ...  -1952.61989947 Eh

For completeness - the Gibbs free energy minus the electronic energy
G-E(el)                           ...      0.13206496 Eh     82.87 kcal/mol


Maximum memory used throughout the entire PROP-calculation: 70.0 MB

--------------------------------
SUGGESTED CITATIONS FOR THIS RUN
--------------------------------

Below you find a list of papers that are relevant to this ORCA run
We neither can nor want to force you to cite these papers, but we appreciate if you do
You receive ORCA, which is the product of decades of hard work by many enthusiastic individuals, for free
The only thing we kindly ask in return is that you cite our papers,
We deeply appreciate it, if you show your appreciation for ORCA by not just citing the generic ORCA reference.

Please note that relegating all ORCA citations to the supporting information does *not* help us.
SI sections are not indexed - citations you put there will not count into any citation statistics
But we need these citations in order to attract the funding resources that allow us to do what we are doing

Therefore, if you are a happy ORCA user, please consider citing a few of the papers listed below in the main body of your paper

In addition to the list printed below, the program has created the file run.bibtex that contains the list in bibtex format
You can import this file easily into all common literature databanks and citation aid programs


List of essential papers. We consider these as the minimum necessary citations

  1. Neese, F.
     Software update: the ORCA program system, version 6.0
     WIRES Comput. Molec. Sci. 2025 15(1), e70019
     doi.org/10.1002/wcms.7019

List of papers to cite with high priority. The work reported in these papers was absolutely
necessary for this run to complete.
Our perspective: the developers of density functionals and basis sets usually get cited in chemistry papers
Good! But without the algorithms to do something with them, the functionals or basis sets would not do anything.
Hence, in our opinion, the algorithm design and method developments papers are equally worthy of getting cited

  1. Neese, F.
     An improvement of the resolution of the identity approximation for the formation of the Coulomb matrix
     J. Comp. Chem. 2003 24(14), 1740-1747
     doi.org/10.1002/jcc.10318
  2. Grimme, S.; Antony, J.; Ehrlich, S.; Krieg, H.
     A consistent and accurate ab initio parametrization of density functional dispersion correction (DFT-D) for the 94 elements H-Pu
     J. Chem. Phys. 2010 132 , 154104
     doi.org/10.1063/1.3382344
  3. Grimme, S.; Ehrlich, S.; Goerigk, L.
     Effect of the damping function in dispersion corrected density functional theory
     J. Comput. Chem. 2011 32(7), 1456-1465
     doi.org/10.1002/jcc.21759
  4. Bykov, D.; Petrenko, T.; Izsak, R.; Kossmann, S.; Becker, U.; Valeev, E.; Neese, F.
     Efficient implementation of the analytic second derivatives of Hartree-Fock and hybrid DFT energies: a detailed analysis of different approximations
     Molec. Phys. 2015 113 , 1961-1977
     doi.org/10.1080/00268976.2015.1025114
  5. Garcia-Rates, M.; Neese, F.
     Efficient implementation of the analytical second derivatives of hartree-fock and hybrid DFT energies within the framework of the conductor-like polarizable continuum model
     J. Comput. Chem. 2019 40 , 1816-1828
     doi.org/10.1002/jcc.25833
  6. Garcia-Rates, M.; Neese, F.
     Effect of the Solute Cavity on the Solvation Energy and its Derivatives within the Framework of the Gaussian Charge Scheme
     J. Comput. Chem. 2020 41 , 922-939
     doi.org/10.1002/jcc.26139
  7. Neese, F.
     The SHARK Integral Generation and Digestion System
     J. Comp. Chem. 2022 44(3), 381
     doi.org/10.1002/jcc.26942

List of suggested additional citations. These are papers that are important in the 'surrounding' of 
of this run, or papers that preceded the highly important papers. If you like your results we are grateful for a citation.

  1. Neese, F.
     The ORCA program system
     WIRES Comput. Molec. Sci. 2012 2(1), 73-78
     doi.org/10.1002/wcms.81
  2. Neese, F.
     Software update: the ORCA program system, version 4.0
     WIRES Comput. Molec. Sci. 2018 8(1), 1-6
     doi.org/10.1002/wcms.1327
  3. Neese, F.; Wennmohs, F.; Becker, U.; Riplinger, C.
     The ORCA quantum chemistry program package
     J. Chem. Phys. 2020 152(22), 224108
     doi.org/10.1063/5.0004608
  4. Neese, F.
     Software update: The ORCA program system—Version 5.0
     WIRES Comput. Molec. Sci. 2022 12(1), e1606
     doi.org/10.1002/wcms.1606

List of optional additional citations

  1. Neese, F.
     Approximate second-order SCF convergence for spin unrestricted wavefunctions
     Chem. Phys. Lett. 2000 325(1-3), 93-98
     doi.org/10.1016/s0009-2614(00)00662-x

Timings for individual modules:

Sum of individual times          ...     2084.485 sec (=  34.741 min)
Startup calculation              ...      343.966 sec (=   5.733 min)  16.5 %
SCF iterations                   ...      522.319 sec (=   8.705 min)  25.1 %
Property integrals               ...      335.928 sec (=   5.599 min)  16.1 %
SCF Response                     ...      256.996 sec (=   4.283 min)  12.3 %
Property calculations            ...      138.185 sec (=   2.303 min)   6.6 %
SCF Gradient evaluation          ...      475.079 sec (=   7.918 min)  22.8 %
Geometry relaxation              ...       12.013 sec (=   0.200 min)   0.6 %
                             ****ORCA TERMINATED NORMALLY****
TOTAL RUN TIME: 0 days 0 hours 35 minutes 17 seconds 836 msec
