
                                 *****************
                                 * O   R   C   A *
                                 *****************

                                            #,                                       
                                            ###                                      
                                            ####                                     
                                            #####                                    
                                            ######                                   
                                           ########,                                 
                                     ,,################,,,,,                         
                               ,,#################################,,                 
                          ,,##########################################,,             
                       ,#########################################, ''#####,          
                    ,#############################################,,   '####,        
                  ,##################################################,,,,####,       
                ,###########''''           ''''###############################       
              ,#####''   ,,,,##########,,,,          '''####'''          '####       
            ,##' ,,,,###########################,,,                        '##       
           ' ,,###''''                  '''############,,,                           
         ,,##''                                '''############,,,,        ,,,,,,###''
      ,#''                                            '''#######################'''  
     '                                                          ''''####''''         
             ,#######,   #######,   ,#######,      ##                                
            ,#'     '#,  ##    ##  ,#'     '#,    #''#        ,####,    ,#,          
            ##       ##  ##   ,#'  ##            #'  '#       #'       ,# #          
            ##       ##  #######   ##           ,######,      #####,      #          
            '#,     ,#'  ##    ##  '#,     ,#' ,#      #,     #,   #      #          
             '#######'   ##     ##  '#######'  #'      '#     '####' #    #          



                #########################################################
                #                        -***-                          #
                #          Department of theory and spectroscopy        #
                #                                                       #
                #                      Frank Neese                      #
                #                                                       #
                #     Directorship, Architecture, Infrastructure        #
                #                    SHARK, DRIVERS                     #
                #        Core code/Algorithms in most modules           #
                #                                                       #
                #        Max Planck Institute fuer Kohlenforschung      #
                #                Kaiser Wilhelm Platz 1                 #
                #                 D-45470 Muelheim/Ruhr                 #
                #                      Germany                          #
                #                                                       #
                #                  All rights reserved                  #
                #                        -***-                          #
                #########################################################


                         Program Version 6.1.0  -  RELEASE   -
                                (GIT: $679e74b$)
                          ($2025-06-10 18:02:51 +0200$)


 With contributions from (in alphabetic order):
[Max-Planck-Institut fuer Kohlenforschung]                               
  Daniel Aravena         : Magnetic Suceptibility                        
  Michael Atanasov       : Ab Initio Ligand Field Theory (pilot matlab implementation)
  Alexander A. Auer      : GIAO ZORA, VPT2 properties, NMR spectrum      
  Ute Becker             : All parallelization in ORCA, NUMFREQ, NUMCALC 
  Giovanni Bistoni       : ED, misc. LED, open-shell LED, HFLD           
  Dmytro Bykov           : pre 5.0 version of the SCF Hessian            
  Marcos Casanova-Páez   : Triplet and SCS-CIS(D). UHF-(DLPNO)-IP/EA/STEOM-CCSD. UHF-CVS-IP/STEOM-CCSD   
  Vijay G. Chilkuri      : MRCI spin determinant printing, contributions to CSF-ICE 
  Pauline Colinet        : FMM embedding                                 
  Dipayan Datta          : RHF DLPNO-CCSD density                        
  Achintya Kumar Dutta   : EOM-CC, STEOM-CC                              
  Nicolas Foglia         : Exact transition moments, OPA infrastructure, MCD improvements    
  Dmitry Ganyushin       : Spin-Orbit,Spin-Spin,Magnetic field MRCI      
  Miquel Garcia-Rates    : C-PCM and meta-GGA Hessian, CCSD/C-PCM, Gaussian charge scheme 
  Tiago L. C. Gouveia    : GS-ROHF, GS-ROCIS                             
  Yang Guo               : DLPNO-NEVPT2, F12-NEVPT2, CIM, IAO-localization        
  Andreas Hansen         : Spin unrestricted coupled pair/coupled cluster methods 
  Ingolf Harden          : AUTO-CI MPn and infrastructure                
  Benjamin Helmich-Paris : MC-RPA, TRAH-(SCF,CASSCF), AVAS, COSX integrals, SCF dyn. polar., MC-PDFT, srDFT 
  Lee Huntington         : MR-EOM, pCC                                   
  Robert Izsak           : Overlap fitted RIJCOSX, COSX-SCS-MP3, EOM     
  Riya Kayal             : Wick's Theorem for AUTO-CI, AUTO-CI UHF-CCSDT 
  Emily Kempfer          : AUTO-CI RHF CISDT and CCSDT, approximate NEVPT4
  Christian Kollmar      : KDIIS, OOCD, Brueckner-CCSD(T), CCSD density, CASPT2, CASPT2-K, improved NEVPT2 
  Axel Koslowski         : Symmetry handling                             
  Simone Kossmann        : meta-GGA functionals, TD-DFT gradient, OOMP2, (MP2 Hessian; deprecated post 5.0) 
  Lucas Lang             : DCDCAS, Hyperfine gauge corrections, ICE-SOC+SSC
  Marvin Lechner         : AUTO-CI (C++ implementation), FIC-MRCC        
  Spencer Leger          : CASSCF response                               
  Dagmar Lenk            : GEPOL surface, SMD, ORCA-2-JSON               
  Dimitrios Liakos       : Extrapolation schemes; Compound Job, Property file
  Dimitrios Manganas     : Further ROCIS development; embedding schemes. LFT, Crystal Embedding 
  Dimitrios Pantazis     : SARC Basis sets                               
  Anastasios Papadopoulos: AUTO-CI, single reference methods and gradients 
  Taras Petrenko         : pre 6.0 DFT Hessian and TD-DFT gradient,  ECA, NRVS 
  Petra Pikulova         : Analytic Raman intensities                    
  Peter Pinski           : DLPNO-MP2, DLPNO-MP2 Gradient                 
  Shashank Vittal Rao    : ES-AILFT, MagRelax                            
  Christoph Reimann      : Effective Core Potentials                     
  Marius Retegan         : Local ZFS, SOC                                
  Christoph Riplinger    : Optimizer, TS searches, QM/MM, DLPNO-CCSD(T), (RO)-DLPNO pert. Triples 
  Michael Roemelt        : Original ROCIS implementation, recursive CI coupling coefficients
  Masaaki Saitow         : Open-shell DLPNO-CCSD energy and density      
  Barbara Sandhoefer     : DKH picture change effects                    
  Yorick L. A. Schmerwitz: GMF and freeze-and-release deltaSCF, NEB S-IDPP initial path                    
  Kantharuban Sivalingam : CASSCF convergence/infrastructure, NEVPT2, NEVPT3, NEVPT4(SD), FIC-MRCI and CEPA variants
  Bernardo de Souza      : ESD, SOC TD-DFT                               
  Georgi L. Stoychev     : AutoAux, RI-MP2 NMR, DLPNO-MP2 response, X2C  
  Van Anh Tran           : RI-MP2 g-tensors                              
  Willem Van den Heuvel  : Paramagnetic NMR                              
  Zikuan Wang            : NOTCH, Electric field optimization            
  Frank Wennmohs         : Technical directorship and infrastructure     
  Hang Xu                : AUTO-CI-Response properties                   
                                                                         
[FACCTs GmbH]                                                            
  Markus Bursch, Nicolas Foglia, Miquel Garcia-Rates, Ingolf Harden, Hagen Neugebauer, Anastasios Papadopoulos, 
  Christoph Riplinger, Bernardo de Souza, Georgi L. Stoychev                                                    
                                                                 
  APM, various basis sets, CI-OPT, improved COSX, DLPNO-Multilevel,           
  DOCKER, DRACO, updates on ESD, Fragmentator, GOAT, IRC, LR-CPCM, L-BFGS, MBIS, meta-GGA TD-DFT gradient, ML-optimized integration grids, 
  MM, NACMEs, nearIR, NEB, NEB-TS, NL-DFT gradient (VV10), 2- and 3-layer-ONIOM, interface openCOSMO-RS, QMMM,   
  Crystal-QMMM, RESP, rigid body optimization, SF, symmetry and pop. for TD-DFT, various functionals, SOLVATOR                                   
                                                                         
[Other institutions]                                                     
  V. Asgeirsson          : NEB                                           
  Christoph Bannwarth    : sTDA-DFT, sTD-DFT, PBEh-3c, B97-3c, D3        
  Giovanni Bistoni       : ETS/NOCV, ADLD/ADEX, COVALED                  
  Martin Brehm           : Molecular dynamics                            
  Ronald Cardenas        : ETS/NOCV                                      
  Martina Colucci        : COVALED                                       
  Sebastian Ehlert       : rSCAN, r2SCAN, r2SCAN-3c, D4, dhf basis sets  
  Marvin Friede          : D4 for Fr, Ra, Ac-Lr                          
  Lars Goerigk           : TD-DFT with DH, B97 family of functionals     
  Stefan Grimme          : VdW corrections, initial TS optimization, DFT functionals, gCP, sTDA/sTD-DF 
  Waldemar Hujo          : DFT-NL                                        
  H. Jonsson             : NEB                                           
  Holger Kruse           : gCP                                           
  Marcel Mueller         : wB97X-3c, vDZP basis set                      
  Hagen Neugebauer       : wr2SCAN, Native XTB                           
  Gianluca Regni         : ADLD/ADEX                                     
  Tobias Risthaus        : pre 6.0 range-separated hybrid DFT and stability analysis
  Lukas Wittmann         : regularized MP2, r2SCAN double-hybrids, wr2SCAN        
                                                                         
We gratefully acknowledge several colleagues who have allowed us to      
interface, adapt or use parts of their codes:                            
  Ed Valeev, F. Pavosevic, A. Kumar             : LibInt (2-el integral package), F12 methods 
  Garnet Chan, S. Sharma, J. Yang, R. Olivares  : DMRG                   
  Ulf Ekstrom                                   : XCFun DFT Library      
  Mihaly Kallay                                 : mrcc  (arbitrary order and MRCC methods)
  Frank Weinhold                                : gennbo (NPA and NBO analysis)           
  Simon Mueller                                 : openCOSMO-RS                            
  Christopher J. Cramer and Donald G. Truhlar   : smd solvation model                     
  S Lehtola, MJT Oliveira, MAL Marques          : LibXC Library                           
  Liviu Ungur et al                             : ANISO software                          


 Your calculation uses the libint2 library for the computation of 2-el integrals
 For citations please refer to: http://libint.valeyev.net

 Your ORCA version has been built with support for libXC version: 7.0.0
 For citations please refer to: https://libxc.gitlab.io

 This ORCA versions uses:
   CBLAS   interface :  Fast vector & matrix operations
   LAPACKE interface :  Fast linear algebra routines
   SCALAPACK package :  Parallel linear algebra routines
   Shared memory     :  Shared parallel matrices
   BLAS/LAPACK       :  OpenBLAS 0.3.29  USE64BITINT DYNAMIC_ARCH NO_AFFINITY Prescott SINGLE_THREADED
        Core in use  :  Prescott
   Copyright (c) 2011-2014, The OpenBLAS Project


  ***********************************
  * Starting time: Fri Aug  8 17:11:31 2025
  * Host name:     cuda6
  * Process ID:    107986
  * Working dir.:  /local/scratch/mehlhorn/61800
  ***********************************



***************************************
The coordinates will be read from file: start.xyz
***************************************


Your calculation utilizes the geometrical counterpoise correction gCP
Please cite in your paper:
H.Kruse, S. Grimme J.Chem.Phys., 136, (2012), 154101 
   

Your calculation utilizes the atom-pairwise dispersion correction
with the Becke-Johnson damping scheme (D3BJ)


Warning: RI is on but no J-basis has been assigned. Assigning Def2/J (nothing to worry about!)
================================================================================

cite the ECPs for Zr [Def2-ECP] as follows:
Ce-Yb(ecp-28): M. Dolg, H. Stoll, H.Preuss, J. Chem. Phys., 1989, 90, 1730-1734.
Y-Cd(ecp-28), Hf-Hg(ecp-46): D. Andrae,U. Haeussermann, M. Dolg, H. Stoll, H. Preuss, Theor. Chim. Acta, 1990, 77, 123-141.
In-Sb(ecp-28), Tl-Bi(ecp-46): B. Metz, H. Stoll, M. Dolg, J. Chem. Phys., 2000, 113, 2563-2569.
Te-Xe(ecp-28), Po-Rn(ecp-46): K. A. Peterson, D. Figgen, E. Goll, H. Stoll, M. Dolg, J. Chem. Phys., 2003, 119, 11113-11123.
Rb(ecp-28), Cs(ecp-46): T. Leininger, A. Nicklass, W. Kuechle, H. Stoll, M. Dolg, A. Bergner, Chem. Phys. Lett., 1996, 255, 274-280.
Sr(ecp-28), Ba(ecp-46): M. Kaupp, P. V. Schleyer, H. Stoll and H. Preuss, J. Chem. Phys., 1991, 94, 1360-1366.
La(ecp-46): M. Dolg, H. Stoll, A. Savin, H. Preuss, Theor. Chim. Acta, 1989, 75, 173-194.
Lu(ecp-28): X. Cao, M. Dolg, J. Chem. Phys., 2001, 115, 7348-7355.

ECP parameters for Zr [Def2-ECP] have been obtained from:
TURBOMOLE (7.0.2)

----- Orbital basis set information -----
Your calculation utilizes the basis: def2-SV(P)
   F. Weigend and R. Ahlrichs, Phys. Chem. Chem. Phys. 7, 3297 (2005).

----- AuxJ basis set information -----
Your calculation utilizes the auxiliary basis: def2/J
   H-Rn: F. Weigend, Phys. Chem. Chem. Phys. 8, 1057 (2006).
   Fr-Lr: K. Eichkorn, F. Weigend, O. Treutler, R. Ahlrichs; Theor. Chem. Acc. 97, 119 (1997).

================================================================================
                                        WARNINGS
                       Please study these warnings very carefully!
================================================================================


WARNING: Gradients are needed
  ===> : At least TightSCF should be used for SCF convergence

WARNING: Geometry Optimization
  ===> : Switching off AutoStart
         For restart on a previous wavefunction, please use MOREAD

================================================================================
                                       INPUT FILE
================================================================================
NAME = run.inp
|  1> # Geometry optimization for (AlH3)n cluster
|  2> 
|  3> %pal nprocs 24  end
|  4> 
|  5> %geom MaxIter 500 end
|  6> 
|  7> 
|  8> ! PBE def2-SV(P)
|  9> ! RKS	# closed shell for AlH3
| 10> ! D3    #  dispersion correction
| 11> ! gCP(DFT/SV(P))
| 12> ! Freq 	# Frequency analysis to check the stabiltity of the structures
| 13> 
| 14> ! NoPop # population analysis not necessary	
| 15> 
| 16> ! DEFGRID2
| 17> ! NormalSCF
| 18> ! SloppyOpt
| 19> 
| 20> ! SmallPrint
| 21> 
| 22> 
| 23> * xyzFile 0 1 start.xyz # only maingroup elements H and Al so there should be no net spin
| 24> 
| 25>                          ****END OF INPUT****
================================================================================

                       *****************************
                       * Geometry Optimization Run *
                       *****************************

Geometry optimization settings:
Update method            Update   .... BFGS
Choice of coordinates    CoordSys .... (2022) Redundant Internals
Initial Hessian          InHess   .... Almloef's Model
Max. no of cycles        MaxIter  .... 500

Convergence Tolerances:
Energy Change            TolE     ....  8.0000e-05 Eh
Max. Gradient            TolMAXG  ....  5.0000e-03 Eh/bohr
RMS Gradient             TolRMSG  ....  1.0000e-03 Eh/bohr
Max. Displacement        TolMAXD  ....  3.0000e-02 bohr
RMS Displacement         TolRMSD  ....  2.0000e-02 bohr
Strict Convergence                .... False

------------------------------------------------------------------------------
                        ORCA OPTIMIZATION COORDINATE SETUP
------------------------------------------------------------------------------

The optimization will be done in redundant internal coordinates (2022)
Making redundant internal coordinates   ...  (2022 redundants) done
Evaluating the initial hessian          ...  (Almloef) done
Evaluating the coordinates              ...  done
Calculating the B-matrix                .... done
Calculating the G-matrix                .... done
The number of degrees of freedom        ....  752

    -----------------------------------------------------------------
                    Redundant Internal Coordinates


    -----------------------------------------------------------------
         Definition                    Initial Value    Approx d2E/dq
    -----------------------------------------------------------------
      1. B(Zr  2,Zr  1)                  3.3701         0.044353   
      2. B(Zr  3,Zr  0)                  3.3794         0.042850   
      3. B(Zr  4,Zr  1)                  3.4103         0.038252   
      4. B(Zr  4,Zr  3)                  3.4306         0.035503   
      5. B(Zr  5,Zr  2)                  3.4305         0.035517   
      6. B(Zr  5,Zr  0)                  3.4203         0.036873   
      7. B(O   6,Zr  0)                  2.1018         0.414315   
      8. B(O   6,Zr  3)                  2.1360         0.365412   
      9. B(O   6,Zr  5)                  2.0773         0.453417   
     10. B(O   7,Zr  1)                  2.1088         0.403789   
     11. B(O   7,Zr  4)                  2.0683         0.468642   
     12. B(O   7,Zr  2)                  2.1228         0.383640   
     13. B(O   8,Zr  5)                  2.0844         0.441685   
     14. B(O   8,Zr  2)                  2.0823         0.445083   
     15. B(O   8,Zr  1)                  2.1506         0.346386   
     16. B(O   9,Zr  4)                  2.0951         0.424747   
     17. B(O   9,Zr  3)                  2.0814         0.446533   
     18. B(O   9,Zr  0)                  2.1516         0.345078   
     19. B(O  10,Zr  4)                  2.1510         0.345831   
     20. B(O  10,Zr  3)                  2.1666         0.326541   
     21. B(O  10,Zr  1)                  2.1756         0.315918   
     22. B(O  11,Zr  5)                  2.1531         0.343148   
     23. B(O  11,Zr  0)                  2.1783         0.312789   
     24. B(O  11,Zr  2)                  2.1742         0.317588   
     25. B(O  12,Zr  0)                  1.9760         0.657790   
     26. B(O  13,Zr  0)                  1.9905         0.623588   
     27. B(O  14,Zr  0)                  2.0119         0.576605   
     28. B(O  15,Zr  0)                  2.0758         0.455801   
     29. B(O  16,Zr  1)                  2.0715         0.463116   
     30. B(O  17,Zr  1)                  2.0142         0.571623   
     31. B(O  18,Zr  1)                  1.9906         0.623444   
     32. B(O  19,Zr  1)                  1.9774         0.654492   
     33. B(O  20,Zr  2)                  1.9792         0.649967   
     34. B(O  21,Zr  2)                  1.9868         0.632279   
     35. B(O  22,Zr  2)                  1.9978         0.607127   
     36. B(O  23,Zr  2)                  2.0759         0.455765   
     37. B(O  24,Zr  3)                  2.0670         0.470923   
     38. B(O  25,Zr  3)                  1.9940         0.615640   
     39. B(O  26,Zr  3)                  1.9918         0.620646   
     40. B(O  27,Zr  3)                  1.9869         0.631982   
     41. B(O  28,Zr  4)                  1.9805         0.646895   
     42. B(O  29,Zr  4)                  2.0610         0.481407   
     43. B(O  30,Zr  4)                  1.9731         0.664816   
     44. B(O  31,Zr  4)                  2.0642         0.475669   
     45. B(O  32,Zr  5)                  2.0664         0.471930   
     46. B(O  33,Zr  5)                  1.9715         0.668721   
     47. B(O  34,Zr  5)                  2.0710         0.464001   
     48. B(O  35,Zr  5)                  1.9750         0.660272   
     49. B(C  36,O  33)                  1.2992         0.781302   
     50. B(C  36,O  12)                  1.2992         0.781039   
     51. B(C  37,O  25)                  1.3017         0.774024   
     52. B(C  37,O  13)                  1.3021         0.772851   
     53. B(C  38,O  21)                  1.2948         0.793914   
     54. B(C  38,O  14)                  1.2951         0.793037   
     55. B(C  39,O  29)                  1.3003         0.777921   
     56. B(C  39,O  15)                  1.2985         0.783255   
     57. B(C  40,O  34)                  1.2994         0.780663   
     58. B(C  40,O  16)                  1.2979         0.785010   
     59. B(C  41,O  26)                  1.2948         0.793918   
     60. B(C  41,O  17)                  1.2952         0.792819   
     61. B(C  42,O  22)                  1.3020         0.773150   
     62. B(C  42,O  18)                  1.3023         0.772445   
     63. B(C  43,O  19)                  1.2988         0.782418   
     64. B(C  43,O  30)                  1.2989         0.781962   
     65. B(C  44,O  35)                  1.3000         0.778764   
     66. B(C  44,O  20)                  1.3003         0.777984   
     67. B(C  45,O  31)                  1.2974         0.786352   
     68. B(C  45,O  23)                  1.2967         0.788305   
     69. B(C  46,O  32)                  1.2978         0.785247   
     70. B(C  46,O  24)                  1.2968         0.788168   
     71. B(C  47,O  28)                  1.3011         0.775707   
     72. B(C  47,O  27)                  1.3010         0.776041   
     73. B(H  48,C  41)                  1.0861         0.365291   
     74. B(H  49,C  42)                  1.0925         0.356761   
     75. B(H  50,C  38)                  1.0862         0.365147   
     76. B(H  51,C  37)                  1.0924         0.356995   
     77. B(H  52,C  43)                  1.0900         0.360084   
     78. B(H  53,C  47)                  1.0913         0.358367   
     79. B(H  54,C  39)                  1.0867         0.364460   
     80. B(H  55,C  45)                  1.0849         0.366926   
     81. B(H  56,C  40)                  1.0861         0.365354   
     82. B(H  57,C  46)                  1.0853         0.366344   
     83. B(H  58,C  36)                  1.0903         0.359662   
     84. B(H  59,C  44)                  1.0911         0.358661   
     85. B(Al 61,Al 60)                  2.6227         0.331254   
     86. B(H  62,O  11)                  3.1072         0.010000   
     87. B(H  62,H  50)                  2.9968         0.010000   
     88. B(H  62,C  44)                  2.9903         0.010000   
     89. B(H  62,C  38)                  2.7147         0.010000   
     90. B(H  62,O  21)                  2.6033         0.010000   
     91. B(H  62,O  20)                  2.4225         0.010000   
     92. B(H  62,Al 61)                  1.6742         0.295063   
     93. B(H  62,Al 60)                  1.6713         0.298229   
     94. B(H  63,H  50)                  2.6993         0.010000   
     95. B(H  63,Al 61)                  1.6046         0.381103   
     96. B(H  64,Al 61)                  1.6740         0.295300   
     97. B(H  64,Al 60)                  1.6741         0.295150   
     98. B(H  65,H  58)                  3.0912         0.010000   
     99. B(H  65,C  44)                  3.0718         0.010000   
    100. B(H  65,H  59)                  2.9765         0.010000   
    101. B(H  65,Al 60)                  1.6044         0.381276   
    102. B(H  66,C  38)                  3.0727         0.010000   
    103. B(H  66,O  14)                  3.0034         0.010000   
    104. B(H  66,H  50)                  2.9590         0.010000   
    105. B(H  66,Al 60)                  1.6045         0.381237   
    106. B(H  67,O  20)                  3.0109         0.010000   
    107. B(H  67,H  59)                  2.7757         0.010000   
    108. B(H  67,Al 61)                  1.6049         0.380585   
    109. A(Zr  5,Zr  0,O  13)          105.5173         0.358225   
    110. A(Zr  3,Zr  0,O  12)          127.8583         0.370923   
    111. A(Zr  3,Zr  0,O   9)           36.3167         0.332622   
    112. A(Zr  3,Zr  0,O   6)           37.4643         0.342917   
    113. A(O  11,Zr  0,O  14)           73.2717         0.472306   
    114. A(O  13,Zr  0,O  15)           81.4324         0.513871   
    115. A(Zr  3,Zr  0,Zr  5)           71.7103         0.253411   
    116. A(O   6,Zr  0,O  11)           67.0313         0.444677   
    117. A(O   6,Zr  0,O  15)          130.3848         0.476318   
    118. A(Zr  5,Zr  0,O  15)          159.5193         0.339787   
    119. A(O   6,Zr  0,O  12)           97.9544         0.509848   
    120. A(O  14,Zr  0,O  15)           73.9621         0.506405   
    121. A(O   9,Zr  0,O  11)           96.3636         0.430257   
    122. A(Zr  5,Zr  0,O  12)           74.1452         0.361498   
    123. A(O  12,Zr  0,O  13)           81.7541         0.550653   
    124. A(Zr  5,Zr  0,O   6)           34.8355         0.334428   
    125. A(O   6,Zr  0,O  14)          138.5273         0.497486   
    126. A(O  11,Zr  0,O  15)          136.5355         0.452443   
    127. A(Zr  5,Zr  0,O   9)           91.4147         0.324478   
    128. A(O   6,Zr  0,O   9)           65.2207         0.452674   
    129. A(O  11,Zr  0,O  13)          141.6685         0.479163   
    130. A(O   9,Zr  0,O  13)           93.9543         0.487935   
    131. A(Zr  3,Zr  0,O  15)           93.1674         0.348461   
    132. A(O   9,Zr  0,O  12)          163.0472         0.492786   
    133. A(Zr  5,Zr  0,O  14)          110.0673         0.353493   
    134. A(Zr  5,Zr  0,O  11)           37.5888         0.319300   
    135. A(Zr  3,Zr  0,O  11)           96.9309         0.327265   
    136. A(O   6,Zr  0,O  13)           84.3957         0.504793   
    137. A(O   9,Zr  0,O  14)          109.0994         0.480925   
    138. A(O  12,Zr  0,O  15)          126.2761         0.519037   
    139. A(O  13,Zr  0,O  14)          136.5075         0.537092   
    140. A(Zr  3,Zr  0,O  13)           71.0674         0.367536   
    141. A(Zr  3,Zr  0,O  14)          144.1023         0.362641   
    142. A(O  11,Zr  0,O  12)           77.7380         0.483906   
    143. A(O   9,Zr  0,O  15)           68.6611         0.460615   
    144. A(O  12,Zr  0,O  14)           84.6555         0.542540   
    145. A(Zr  4,Zr  1,O  19)           74.4095         0.363459   
    146. A(O   7,Zr  1,O  17)          137.8131         0.494317   
    147. A(Zr  2,Zr  1,O  18)           71.0734         0.369702   
    148. A(Zr  2,Zr  1,O  10)           96.8287         0.329672   
    149. A(O   8,Zr  1,O  18)           94.5651         0.488256   
    150. A(O   8,Zr  1,O  16)           68.8503         0.462276   
    151. A(O  10,Zr  1,O  16)          137.0758         0.454578   
    152. A(O   8,Zr  1,O  19)          164.1184         0.492672   
    153. A(Zr  2,Zr  1,O   8)           36.5384         0.334740   
    154. A(O  16,Zr  1,O  17)           74.4113         0.507090   
    155. A(Zr  4,Zr  1,O  18)          104.7492         0.360457   
    156. A(O  10,Zr  1,O  17)           73.1552         0.472417   
    157. A(O  10,Zr  1,O  18)          141.0941         0.480022   
    158. A(O   7,Zr  1,O  16)          130.1115         0.475458   
    159. A(O  10,Zr  1,O  19)           77.6704         0.484347   
    160. A(O   7,Zr  1,O  10)           66.6380         0.443409   
    161. A(Zr  4,Zr  1,O  10)           37.7266         0.321745   
    162. A(O  16,Zr  1,O  18)           81.4642         0.515383   
    163. A(Zr  2,Zr  1,O  16)           93.0439         0.351437   
    164. A(O  17,Zr  1,O  19)           83.7498         0.541135   
    165. A(Zr  4,Zr  1,O  17)          110.0331         0.355177   
    166. A(Zr  2,Zr  1,O   7)           37.3552         0.343419   
    167. A(Zr  4,Zr  1,O   7)           34.8789         0.335039   
    168. A(Zr  2,Zr  1,Zr  4)           71.8293         0.256080   
    169. A(O   8,Zr  1,O  17)          108.5971         0.480491   
    170. A(O  17,Zr  1,O  18)          137.0494         0.536189   
    171. A(O   7,Zr  1,O   8)           64.8592         0.450872   
    172. A(Zr  2,Zr  1,O  17)          143.8338         0.364243   
    173. A(Zr  4,Zr  1,O  16)          160.0886         0.342793   
    174. A(Zr  2,Zr  1,O  19)          128.9584         0.372807   
    175. A(O   7,Zr  1,O  19)           99.3104         0.506928   
    176. A(O   8,Zr  1,O  10)           96.0096         0.431320   
    177. A(O   7,Zr  1,O  18)           84.5848         0.502356   
    178. A(O  18,Zr  1,O  19)           82.0720         0.550104   
    179. A(O  16,Zr  1,O  19)          125.4653         0.520099   
    180. A(Zr  4,Zr  1,O   8)           91.6147         0.326646   
    181. A(Zr  5,Zr  2,O  23)          156.6740         0.337665   
    182. A(Zr  1,Zr  2,O  23)           89.7779         0.350488   
    183. A(O  21,Zr  2,O  22)          135.8467         0.543776   
    184. A(Zr  5,Zr  2,O   7)           86.8647         0.328155   
    185. A(O  20,Zr  2,O  23)          129.9602         0.517866   
    186. A(O  11,Zr  2,O  22)          140.8742         0.478146   
    187. A(O   7,Zr  2,O  21)          105.6203         0.498898   
    188. A(O  20,Zr  2,O  21)           86.3922         0.550849   
    189. A(O   8,Zr  2,O  23)          127.7007         0.482641   
    190. A(O  11,Zr  2,O  23)          138.3577         0.453691   
    191. A(Zr  5,Zr  2,O   8)           34.6016         0.336333   
    192. A(O  21,Zr  2,O  23)           75.9573         0.515197   
    193. A(Zr  1,Zr  2,O   8)           37.9427         0.349088   
    194. A(Zr  5,Zr  2,O  11)           37.3416         0.318143   
    195. A(O   7,Zr  2,O  22)           99.7848         0.495150   
    196. A(O  11,Zr  2,O  20)           76.9769         0.484198   
    197. A(Zr  5,Zr  2,O  22)          105.0357         0.354339   
    198. A(Zr  1,Zr  2,Zr  5)           70.6090         0.253298   
    199. A(Zr  1,Zr  2,O  22)           72.7640         0.368023   
    200. A(O   8,Zr  2,O  20)           94.5194         0.515570   
    201. A(O  20,Zr  2,O  22)           81.5370         0.546625   
    202. A(O  22,Zr  2,O  23)           79.8854         0.511299   
    203. A(Zr  1,Zr  2,O   7)           37.0687         0.340488   
    204. A(O   8,Zr  2,O  11)           67.9722         0.451739   
    205. A(O  11,Zr  2,O  21)           75.0820         0.481738   
    206. A(O   7,Zr  2,O  11)           90.0780         0.439745   
    207. A(O   8,Zr  2,O  22)           81.7349         0.509038   
    208. A(O   7,Zr  2,O  23)           69.8094         0.469626   
    209. A(Zr  1,Zr  2,O  21)          142.2947         0.370598   
    210. A(Zr  1,Zr  2,O  11)           95.2299         0.329960   
    211. A(O   8,Zr  2,O  21)          141.7458         0.512915   
    212. A(O   7,Zr  2,O  20)          159.6360         0.501466   
    213. A(Zr  5,Zr  2,O  20)           73.2801         0.358466   
    214. A(Zr  1,Zr  2,O  20)          127.5564         0.372362   
    215. A(Zr  5,Zr  2,O  21)          111.7718         0.356788   
    216. A(O   7,Zr  2,O   8)           65.8026         0.467588   
    217. A(O  24,Zr  3,O  25)           80.5691         0.515780   
    218. A(Zr  0,Zr  3,Zr  4)           70.6678         0.252008   
    219. A(O   9,Zr  3,O  10)           68.0236         0.454297   
    220. A(Zr  0,Zr  3,O   9)           37.7495         0.347257   
    221. A(Zr  4,Zr  3,O  10)           37.2276         0.319570   
    222. A(Zr  0,Zr  3,O  26)          143.4480         0.367238   
    223. A(O   6,Zr  3,O  27)          159.3955         0.494364   
    224. A(O   6,Zr  3,O   9)           65.8447         0.463715   
    225. A(O  24,Zr  3,O  27)          130.1348         0.518319   
    226. A(O   9,Zr  3,O  26)          141.7751         0.511448   
    227. A(O   9,Zr  3,O  27)           94.1063         0.513182   
    228. A(Zr  4,Zr  3,O  27)           72.6774         0.356737   
    229. A(Zr  4,Zr  3,O   6)           87.3778         0.325514   
    230. A(O  10,Zr  3,O  24)          137.4730         0.458720   
    231. A(Zr  4,Zr  3,O   9)           34.9030         0.336494   
    232. A(O  10,Zr  3,O  27)           76.9001         0.484175   
    233. A(O  10,Zr  3,O  25)          141.1310         0.481839   
    234. A(O   9,Zr  3,O  25)           81.7232         0.510674   
    235. A(O   6,Zr  3,O  25)           99.1050         0.491967   
    236. A(Zr  4,Zr  3,O  25)          105.2757         0.355154   
    237. A(Zr  0,Zr  3,O  25)           72.8803         0.366729   
    238. A(O   6,Zr  3,O  10)           90.4536         0.438091   
    239. A(Zr  4,Zr  3,O  24)          157.1743         0.339491   
    240. A(Zr  0,Zr  3,O  24)           90.7248         0.350385   
    241. A(O  24,Zr  3,O  26)           75.9492         0.516563   
    242. A(O   6,Zr  3,O  26)          107.2614         0.492706   
    243. A(Zr  4,Zr  3,O  26)          111.0208         0.355642   
    244. A(Zr  0,Zr  3,O  10)           94.9135         0.329597   
    245. A(O  10,Zr  3,O  26)           74.6932         0.482559   
    246. A(O  26,Zr  3,O  27)           85.2792         0.546000   
    247. A(O  25,Zr  3,O  26)          135.5045         0.543298   
    248. A(Zr  0,Zr  3,O  27)          127.1525         0.368380   
    249. A(O   6,Zr  3,O  24)           69.8395         0.468253   
    250. A(Zr  0,Zr  3,O   6)           36.7647         0.335800   
    251. A(O   9,Zr  3,O  24)          128.4615         0.485859   
    252. A(O  25,Zr  3,O  27)           81.7293         0.545163   
    253. A(O   9,Zr  4,O  10)           68.0796         0.454907   
    254. A(O   7,Zr  4,O  10)           67.7943         0.463143   
    255. A(Zr  3,Zr  4,O  10)           37.5445         0.322584   
    256. A(O  28,Zr  4,O  30)           83.6889         0.555624   
    257. A(O  30,Zr  4,O  31)           81.5625         0.524255   
    258. A(O  29,Zr  4,O  31)           77.7291         0.493589   
    259. A(O   7,Zr  4,O  31)           71.1042         0.491136   
    260. A(O  28,Zr  4,O  31)          132.0268         0.521572   
    261. A(O  10,Zr  4,O  31)          133.1299         0.464406   
    262. A(O   9,Zr  4,O  31)          129.2272         0.482283   
    263. A(Zr  3,Zr  4,O  31)          155.0996         0.340060   
    264. A(Zr  1,Zr  4,O  31)           94.9786         0.344334   
    265. A(O  29,Zr  4,O  30)          136.3741         0.525438   
    266. A(O  10,Zr  4,O  30)           81.3110         0.493958   
    267. A(O   7,Zr  4,O  30)           96.0412         0.522792   
    268. A(Zr  1,Zr  4,Zr  3)           70.6314         0.247873   
    269. A(O   9,Zr  4,O  30)          146.6185         0.513242   
    270. A(Zr  1,Zr  4,O  10)           38.2358         0.326560   
    271. A(O   9,Zr  4,O  29)           71.2809         0.483352   
    272. A(O   7,Zr  4,O  29)          112.5040         0.492229   
    273. A(O   7,Zr  4,O   9)           84.7946         0.480961   
    274. A(Zr  3,Zr  4,O   9)           34.6436         0.333708   
    275. A(Zr  3,Zr  4,O   7)           86.3160         0.339216   
    276. A(O  28,Zr  4,O  29)           82.4320         0.522747   
    277. A(Zr  1,Zr  4,O   9)           89.2636         0.337873   
    278. A(O   7,Zr  4,O  28)          156.1032         0.520117   
    279. A(Zr  3,Zr  4,O  30)          111.9870         0.359824   
    280. A(Zr  3,Zr  4,O  28)           71.8543         0.358154   
    281. A(Zr  1,Zr  4,O   7)           35.6657         0.343475   
    282. A(O  10,Zr  4,O  28)           88.6364         0.491461   
    283. A(Zr  3,Zr  4,O  29)          102.4702         0.340743   
    284. A(Zr  1,Zr  4,O  30)           73.5174         0.364433   
    285. A(Zr  1,Zr  4,O  29)          145.7742         0.345028   
    286. A(O  10,Zr  4,O  29)          139.1700         0.465426   
    287. A(O   9,Zr  4,O  28)           82.6249         0.510627   
    288. A(Zr  1,Zr  4,O  28)          123.7567         0.362735   
    289. A(O  11,Zr  5,O  35)           86.4204         0.492618   
    290. A(O  34,Zr  5,O  35)           82.1859         0.521144   
    291. A(O  33,Zr  5,O  35)           84.3822         0.558412   
    292. A(O  32,Zr  5,O  35)          132.8357         0.522805   
    293. A(O   8,Zr  5,O  35)           85.2184         0.516350   
    294. A(O   6,Zr  5,O  35)          154.3444         0.518893   
    295. A(Zr  2,Zr  5,O  35)           72.2827         0.359427   
    296. A(O  33,Zr  5,O  34)          134.4534         0.522390   
    297. A(O  32,Zr  5,O  34)           77.0315         0.489515   
    298. A(O  11,Zr  5,O  34)          138.2586         0.461644   
    299. A(Zr  0,Zr  5,O  35)          120.6271         0.361730   
    300. A(O  32,Zr  5,O  33)           81.0134         0.524055   
    301. A(O   6,Zr  5,O  34)          117.0103         0.485903   
    302. A(Zr  2,Zr  5,O  34)          100.7619         0.338675   
    303. A(Zr  0,Zr  5,O  34)          148.8656         0.340801   
    304. A(O  11,Zr  5,O  33)           83.5719         0.493781   
    305. A(O   8,Zr  5,O  33)          150.5584         0.517582   
    306. A(O   6,Zr  5,O  33)           92.0483         0.520132   
    307. A(Zr  0,Zr  5,O  33)           72.8756         0.362516   
    308. A(O  11,Zr  5,O  32)          135.3670         0.463076   
    309. A(O   8,Zr  5,O  32)          125.2111         0.485071   
    310. A(O   6,Zr  5,O  32)           71.0592         0.487428   
    311. A(Zr  2,Zr  5,O  32)          152.9354         0.339634   
    312. A(Zr  0,Zr  5,O  32)           97.2598         0.341769   
    313. A(Zr  2,Zr  5,O   6)           86.7552         0.337374   
    314. A(Zr  0,Zr  5,Zr  2)           70.4734         0.246572   
    315. A(O   8,Zr  5,O  34)           70.7749         0.483555   
    316. A(Zr  0,Zr  5,O   6)           35.3081         0.339490   
    317. A(O   8,Zr  5,O  11)           68.3363         0.457510   
    318. A(O   6,Zr  5,O  11)           67.9272         0.459703   
    319. A(Zr  2,Zr  5,O  11)           37.7706         0.322193   
    320. A(Zr  0,Zr  5,O  11)           38.1072         0.324179   
    321. A(O   6,Zr  5,O   8)           85.6096         0.481500   
    322. A(Zr  2,Zr  5,O  33)          116.0456         0.360206   
    323. A(Zr  2,Zr  5,O   8)           34.5621         0.335905   
    324. A(Zr  0,Zr  5,O   8)           89.1128         0.338008   
    325. A(Zr  3,O   6,Zr  5)          141.9368         0.465015   
    326. A(Zr  0,O   6,Zr  5)          109.8564         0.475858   
    327. A(Zr  0,O   6,Zr  3)          105.7709         0.457418   
    328. A(Zr  1,O   7,Zr  4)          109.4554         0.476497   
    329. A(Zr  2,O   7,Zr  4)          143.2490         0.472034   
    330. A(Zr  1,O   7,Zr  2)          105.5761         0.459336   
    331. A(Zr  1,O   8,Zr  2)          105.5189         0.458935   
    332. A(Zr  2,O   8,Zr  5)          110.8363         0.479855   
    333. A(Zr  1,O   8,Zr  5)          136.2785         0.458294   
    334. A(Zr  3,O   9,Zr  4)          110.4534         0.476697   
    335. A(Zr  0,O   9,Zr  4)          136.0926         0.454727   
    336. A(Zr  0,O   9,Zr  3)          105.9338         0.458891   
    337. A(Zr  3,O  10,Zr  4)          105.2279         0.433766   
    338. A(Zr  1,O  10,Zr  4)          104.0376         0.431195   
    339. A(Zr  1,O  10,Zr  3)          131.2161         0.426779   
    340. A(Zr  5,O  11,H  62)          121.6178         0.136751   
    341. A(Zr  2,O  11,H  62)           81.5982         0.135922   
    342. A(Zr  0,O  11,H  62)          114.4716         0.135761   
    343. A(Zr  2,O  11,Zr  5)          104.8879         0.431001   
    344. A(Zr  0,O  11,Zr  5)          104.3040         0.429824   
    345. A(Zr  0,O  11,Zr  2)          130.4958         0.423905   
    346. A(Zr  0,O  12,C  36)          129.9412         0.508606   
    347. A(Zr  0,O  13,C  37)          127.2283         0.502578   
    348. A(Zr  0,O  14,C  38)          139.8238         0.497688   
    349. A(C  38,O  14,H  66)           80.7069         0.143351   
    350. A(Zr  0,O  14,H  66)          116.3480         0.147545   
    351. A(Zr  0,O  15,C  39)          128.8054         0.475422   
    352. A(Zr  1,O  16,C  40)          130.0090         0.477014   
    353. A(Zr  1,O  17,C  41)          140.1531         0.496861   
    354. A(Zr  1,O  18,C  42)          126.7213         0.502507   
    355. A(Zr  1,O  19,C  43)          130.8782         0.508297   
    356. A(H  62,O  20,H  67)           53.1861         0.101540   
    357. A(C  44,O  20,H  67)           89.5321         0.142777   
    358. A(Zr  2,O  20,H  67)          141.2092         0.148776   
    359. A(C  44,O  20,H  62)          102.6723         0.176712   
    360. A(Zr  2,O  20,H  62)          105.8631         0.186497   
    361. A(Zr  2,O  20,C  44)          128.9657         0.507101   
    362. A(Zr  2,O  21,C  38)          138.9131         0.506408   
    363. A(C  38,O  21,H  62)           80.7490         0.164822   
    364. A(Zr  2,O  21,H  62)           99.3649         0.172372   
    365. A(Zr  2,O  22,C  42)          124.9259         0.500118   
    366. A(Zr  2,O  23,C  45)          134.7945         0.475978   
    367. A(Zr  3,O  24,C  46)          133.2526         0.478839   
    368. A(Zr  3,O  25,C  37)          125.3302         0.501521   
    369. A(Zr  3,O  26,C  41)          138.3179         0.504658   
    370. A(Zr  3,O  27,C  47)          127.8747         0.504219   
    371. A(Zr  4,O  28,C  47)          129.6327         0.506376   
    372. A(Zr  4,O  29,C  39)          136.9771         0.479628   
    373. A(Zr  4,O  30,C  43)          132.4559         0.509729   
    374. A(Zr  4,O  31,C  45)          139.2970         0.479521   
    375. A(Zr  5,O  32,C  46)          139.5959         0.478700   
    376. A(Zr  5,O  33,C  36)          132.5467         0.510207   
    377. A(Zr  5,O  34,C  40)          138.4946         0.476694   
    378. A(Zr  5,O  35,C  44)          131.0956         0.508687   
    379. A(O  12,C  36,O  33)          127.4679         0.465837   
    380. A(O  33,C  36,H  58)          116.2385         0.364725   
    381. A(O  12,C  36,H  58)          116.2906         0.364704   
    382. A(O  13,C  37,O  25)          126.6663         0.464143   
    383. A(O  25,C  37,H  51)          116.6594         0.363679   
    384. A(O  13,C  37,H  51)          116.6735         0.363584   
    385. A(O  14,C  38,O  21)          128.8726         0.468512   
    386. A(H  62,C  38,H  66)           49.0131         0.099054   
    387. A(H  50,C  38,H  66)           73.7726         0.127943   
    388. A(O  21,C  38,H  66)          120.1812         0.142238   
    389. A(O  14,C  38,H  66)           74.7134         0.142225   
    390. A(H  50,C  38,H  62)           94.1909         0.141441   
    391. A(O  21,C  38,H  62)           71.1682         0.160692   
    392. A(O  14,C  38,H  62)          104.9717         0.160674   
    393. A(O  21,C  38,H  50)          115.6399         0.366676   
    394. A(O  14,C  38,H  50)          115.4873         0.366607   
    395. A(O  15,C  39,O  29)          129.8052         0.465708   
    396. A(O  29,C  39,H  54)          115.1631         0.365282   
    397. A(O  15,C  39,H  54)          115.0284         0.365710   
    398. A(O  16,C  40,O  34)          129.8763         0.466200   
    399. A(O  34,C  40,H  56)          115.0644         0.365656   
    400. A(O  16,C  40,H  56)          115.0593         0.366004   
    401. A(O  17,C  41,O  26)          128.8763         0.468489   
    402. A(O  26,C  41,H  48)          115.5493         0.366701   
    403. A(O  17,C  41,H  48)          115.5684         0.366614   
    404. A(O  18,C  42,O  22)          126.5386         0.464003   
    405. A(O  22,C  42,H  49)          116.7081         0.363568   
    406. A(O  18,C  42,H  49)          116.7525         0.363511   
    407. A(O  30,C  43,H  52)          116.2042         0.364851   
    408. A(O  19,C  43,H  52)          116.1934         0.364887   
    409. A(O  19,C  43,O  30)          127.6023         0.466059   
    410. A(H  62,C  44,H  65)           46.7262         0.097002   
    411. A(H  59,C  44,H  65)           74.7203         0.127814   
    412. A(O  35,C  44,H  65)           94.2460         0.142045   
    413. A(O  20,C  44,H  65)           98.9157         0.142033   
    414. A(H  59,C  44,H  62)           95.2582         0.130535   
    415. A(O  35,C  44,H  62)          121.8369         0.145765   
    416. A(O  20,C  44,H  62)           52.2241         0.145752   
    417. A(O  35,C  44,H  59)          116.3249         0.364348   
    418. A(O  20,C  44,H  59)          116.2355         0.364286   
    419. A(O  20,C  44,O  35)          127.4388         0.465225   
    420. A(O  31,C  45,H  55)          114.9144         0.366380   
    421. A(O  23,C  45,H  55)          114.9995         0.366536   
    422. A(O  23,C  45,O  31)          130.0829         0.467178   
    423. A(O  32,C  46,H  57)          114.9881         0.366192   
    424. A(O  24,C  46,H  57)          115.0608         0.366425   
    425. A(O  24,C  46,O  32)          129.9492         0.467043   
    426. A(O  28,C  47,H  53)          116.3149         0.364052   
    427. A(O  27,C  47,H  53)          116.2944         0.364079   
    428. A(O  27,C  47,O  28)          127.3906         0.464678   
    429. A(H  62,H  50,H  66)           47.9980         0.091644   
    430. A(H  62,H  50,H  63)           51.0631         0.092281   
    431. A(C  38,H  50,H  62)           64.6172         0.111814   
    432. A(H  63,H  50,H  66)           68.8841         0.092386   
    433. A(C  38,H  50,H  66)           85.5894         0.112542   
    434. A(C  38,H  50,H  63)          111.8112         0.118215   
    435. A(C  36,H  58,H  65)           83.8562         0.110019   
    436. A(H  65,H  59,H  67)           68.7489         0.092132   
    437. A(C  44,H  59,H  65)           84.5716         0.112107   
    438. A(C  44,H  59,H  67)          107.2623         0.116306   
    439. A(H  65,Al 60,H  66)          155.0073         0.377924   
    440. A(H  64,Al 60,H  66)          101.3342         0.361657   
    441. A(H  62,Al 60,H  66)           95.3628         0.362298   
    442. A(Al 61,Al 60,H  66)          100.3935         0.430391   
    443. A(H  64,Al 60,H  65)          103.2620         0.361663   
    444. A(H  62,Al 60,H  65)           94.4590         0.362304   
    445. A(Al 61,Al 60,H  65)          101.5738         0.430399   
    446. A(H  62,Al 60,H  64)           76.8453         0.346916   
    447. A(Al 61,Al 60,H  64)           38.4310         0.411177   
    448. A(Al 61,Al 60,H  62)           38.4160         0.411935   
    449. A(H  64,Al 61,H  67)           97.7120         0.361582   
    450. A(H  63,Al 61,H  67)          158.6804         0.377783   
    451. A(H  62,Al 61,H  67)           98.7126         0.361533   
    452. A(Al 60,Al 61,H  67)          100.7719         0.430259   
    453. A(H  63,Al 61,H  64)           99.2002         0.361666   
    454. A(H  62,Al 61,H  64)           76.7702         0.346323   
    455. A(Al 60,Al 61,H  64)           38.4347         0.411214   
    456. A(H  62,Al 61,H  63)           97.7197         0.361617   
    457. A(Al 60,Al 61,H  63)          100.5439         0.430364   
    458. A(Al 60,Al 61,H  62)           38.3371         0.411155   
    459. A(O  11,H  62,C  44)           58.0808         0.096490   
    460. A(O  11,H  62,C  38)           56.1172         0.098418   
    461. A(O  11,H  62,O  21)           51.9044         0.098961   
    462. A(O  11,H  62,O  20)           54.1445         0.100576   
    463. A(O  11,H  62,Al 61)          152.8843         0.130055   
    464. A(O  11,H  62,Al 60)          103.7619         0.130155   
    465. A(C  44,H  62,H  50)          127.8285         0.093684   
    466. A(C  38,H  62,H  50)           21.1919         0.094890   
    467. A(O  21,H  62,H  50)           41.5093         0.095230   
    468. A(O  20,H  62,H  50)          106.7823         0.096240   
    469. A(H  50,H  62,Al 61)           97.4216         0.114677   
    470. A(H  50,H  62,Al 60)          106.4147         0.114739   
    471. A(C  38,H  62,C  44)          108.1615         0.099767   
    472. A(O  21,H  62,C  44)           87.4049         0.100388   
    473. A(O  20,H  62,C  44)           25.1036         0.102234   
    474. A(C  44,H  62,Al 61)          110.0963         0.135936   
    475. A(C  44,H  62,Al 60)          108.9570         0.136050   
    476. A(O  11,H  62,H  50)           77.1771         0.093097   
    477. A(O  21,H  62,C  38)           28.0829         0.103320   
    478. A(O  20,H  62,C  38)           90.2159         0.105641   
    479. A(C  38,H  62,Al 61)          114.9067         0.148021   
    480. A(C  38,H  62,Al 60)          111.3140         0.148163   
    481. A(O  20,H  62,O  21)           65.2730         0.106600   
    482. A(O  21,H  62,Al 61)          106.9354         0.151421   
    483. A(O  21,H  62,Al 60)          137.9124         0.151572   
    484. A(O  20,H  62,Al 61)          103.9992         0.161541   
    485. A(O  20,H  62,Al 60)          133.3006         0.161717   
    486. A(Al 60,H  62,Al 61)          103.2469         0.346899   
    487. A(H  50,H  63,Al 61)          111.8117         0.123841   
    488. A(Al 60,H  64,Al 61)          103.1343         0.346340   
    489. A(C  44,H  65,H  58)          102.3075         0.093047   
    490. A(H  58,H  65,H  59)          118.5494         0.091409   
    491. A(H  58,H  65,Al 60)           89.2817         0.114156   
    492. A(C  44,H  65,H  59)           20.7081         0.093452   
    493. A(C  44,H  65,Al 60)          107.5486         0.135481   
    494. A(H  59,H  65,Al 60)          117.7816         0.116672   
    495. A(O  14,H  66,C  38)           24.5797         0.096624   
    496. A(C  38,H  66,H  50)           20.6380         0.093514   
    497. A(C  38,H  66,Al 60)           98.4321         0.135445   
    498. A(O  14,H  66,H  50)           39.5340         0.093609   
    499. A(O  14,H  66,Al 60)          106.1007         0.136429   
    500. A(H  50,H  66,Al 60)          110.1734         0.117078   
    501. A(O  20,H  67,H  59)           40.8969         0.094334   
    502. A(O  20,H  67,Al 61)           84.0166         0.136113   
    503. A(H  59,H  67,Al 61)          117.8828         0.121687   
    504. D(Zr  5,Zr  2,Zr  1,Zr  4)    104.9291         0.010000   
    505. D(O   7,Zr  2,Zr  1,Zr  4)     -6.7702         0.010000   
    506. D(Zr  5,Zr  2,Zr  1,O   7)    111.6992         0.010000   
    507. D(Zr  4,Zr  3,Zr  0,O   6)   -112.8648         0.010000   
    508. D(O   6,Zr  3,Zr  0,Zr  5)      8.1504         0.010000   
    509. D(Zr  4,Zr  3,Zr  0,Zr  5)   -104.7144         0.010000   
    510. D(O   7,Zr  4,Zr  3,Zr  0)     70.2451         0.010000   
    511. D(Zr  3,Zr  4,Zr  1,O   7)   -111.9024         0.010000   
    512. D(Zr  1,Zr  4,Zr  3,Zr  0)    103.0711         0.010000   
    513. D(Zr  3,Zr  4,Zr  1,Zr  2)   -104.7168         0.010000   
    514. D(O   7,Zr  4,Zr  1,Zr  2)      7.1856         0.010000   
    515. D(Zr  1,Zr  4,Zr  3,O   6)     69.5614         0.010000   
    516. D(Zr  2,Zr  5,Zr  0,O   6)    113.3794         0.010000   
    517. D(O   6,Zr  5,Zr  0,Zr  3)     -8.6830         0.010000   
    518. D(Zr  2,Zr  5,Zr  0,Zr  3)    104.6965         0.010000   
    519. D(O   6,Zr  5,Zr  2,Zr  1)    -71.1393         0.010000   
    520. D(Zr  0,Zr  5,Zr  2,O   7)    -69.1196         0.010000   
    521. D(Zr  0,Zr  5,Zr  2,Zr  1)   -103.2375         0.010000   
    522. D(Zr  0,O   6,Zr  5,Zr  2)    -60.0538         0.010000   
    523. D(Zr  5,O   6,Zr  3,Zr  0)   -158.9305         0.010000   
    524. D(Zr  0,O   6,Zr  5,O   8)    -94.6768         0.010000   
    525. D(Zr  5,O   6,Zr  0,Zr  3)    166.3699         0.010000   
    526. D(Zr  3,O   6,Zr  5,Zr  0)    158.4177         0.010000   
    527. D(Zr  0,O   6,Zr  3,O   9)     32.0521         0.010000   
    528. D(Zr  0,O   6,Zr  3,Zr  4)     60.5030         0.010000   
    529. D(Zr  3,O   6,Zr  0,O   9)    -31.0600         0.010000   
    530. D(Zr  3,O   6,Zr  0,Zr  5)   -166.3699         0.010000   
    531. D(Zr  1,O   7,Zr  2,Zr  5)    -61.3716         0.010000   
    532. D(Zr  2,O   7,Zr  1,O   8)     32.0114         0.010000   
    533. D(Zr  4,O   7,Zr  1,Zr  2)   -168.7043         0.010000   
    534. D(Zr  2,O   7,Zr  1,Zr  4)    168.7043         0.010000   
    535. D(Zr  1,O   7,Zr  4,O   9)     96.0161         0.010000   
    536. D(Zr  2,O   7,Zr  4,Zr  1)   -161.6188         0.010000   
    537. D(Zr  1,O   7,Zr  4,Zr  3)     61.2972         0.010000   
    538. D(Zr  1,O   7,Zr  2,O   8)    -32.9110         0.010000   
    539. D(Zr  4,O   7,Zr  2,Zr  1)    162.0211         0.010000   
    540. D(Zr  1,O   8,Zr  5,Zr  2)   -144.3082         0.010000   
    541. D(Zr  2,O   8,Zr  5,Zr  0)     55.4742         0.010000   
    542. D(Zr  5,O   8,Zr  2,Zr  1)   -155.2605         0.010000   
    543. D(Zr  1,O   8,Zr  5,Zr  0)    -88.8339         0.010000   
    544. D(Zr  1,O   8,Zr  2,Zr  5)    155.2605         0.010000   
    545. D(Zr  5,O   8,Zr  1,Zr  2)    145.5351         0.010000   
    546. D(Zr  2,O   8,Zr  1,O   7)    -32.6994         0.010000   
    547. D(Zr  2,O   8,Zr  1,Zr  4)    -55.8026         0.010000   
    548. D(Zr  1,O   8,Zr  2,O   7)     32.1841         0.010000   
    549. D(Zr  3,O   9,Zr  0,Zr  5)     55.6918         0.010000   
    550. D(Zr  3,O   9,Zr  4,Zr  1)    -55.6085         0.010000   
    551. D(Zr  0,O   9,Zr  4,Zr  3)    144.0917         0.010000   
    552. D(Zr  4,O   9,Zr  0,Zr  3)   -145.1471         0.010000   
    553. D(Zr  0,O   9,Zr  3,Zr  4)   -154.9772         0.010000   
    554. D(Zr  0,O   9,Zr  3,O   6)    -31.2539         0.010000   
    555. D(Zr  0,O   9,Zr  4,Zr  1)     88.4832         0.010000   
    556. D(Zr  3,O   9,Zr  0,O   6)     31.9981         0.010000   
    557. D(Zr  4,O   9,Zr  3,Zr  0)    154.9772         0.010000   
    558. D(Zr  1,O  10,Zr  4,O   7)    -25.8694         0.010000   
    559. D(Zr  1,O  10,Zr  4,Zr  3)   -140.5302         0.010000   
    560. D(Zr  4,O  10,Zr  3,Zr  0)    -48.5199         0.010000   
    561. D(Zr  3,O  10,Zr  1,Zr  2)    -77.2939         0.010000   
    562. D(Zr  1,O  10,Zr  3,Zr  0)     76.4139         0.010000   
    563. D(Zr  1,O  10,Zr  3,Zr  4)    124.9338         0.010000   
    564. D(Zr  4,O  10,Zr  1,Zr  2)     48.0812         0.010000   
    565. D(Zr  3,O  10,Zr  4,Zr  1)    140.5302         0.010000   
    566. D(Zr  3,O  10,Zr  1,Zr  4)   -125.3751         0.010000   
    567. D(Zr  2,O  11,Zr  5,Zr  0)   -139.5729         0.010000   
    568. D(Zr  0,O  11,Zr  5,Zr  2)    139.5729         0.010000   
    569. D(Zr  5,O  11,Zr  2,Zr  1)     47.9616         0.010000   
    570. D(Zr  0,O  11,Zr  2,Zr  5)   -124.2777         0.010000   
    571. D(Zr  0,O  11,Zr  2,Zr  1)    -76.3161         0.010000   
    572. D(Zr  5,O  11,Zr  0,Zr  3)    -47.4549         0.010000   
    573. D(Zr  0,O  11,Zr  5,O   6)     24.5104         0.010000   
    574. D(Zr  2,O  11,Zr  0,Zr  5)    124.4999         0.010000   
    575. D(Zr  2,O  11,Zr  0,Zr  3)     77.0450         0.010000   
    576. D(C  36,O  12,Zr  0,Zr  5)    -16.1130         0.010000   
    577. D(C  36,O  12,Zr  0,Zr  3)     34.5443         0.010000   
    578. D(C  37,O  13,Zr  0,Zr  5)    -98.6281         0.010000   
    579. D(C  37,O  13,Zr  0,Zr  3)    -34.7038         0.010000   
    580. D(H  66,O  14,Zr  0,Zr  3)   -158.0144         0.010000   
    581. D(C  38,O  14,Zr  0,Zr  5)     36.1445         0.010000   
    582. D(C  38,O  14,Zr  0,Zr  3)    -50.1212         0.010000   
    583. D(C  39,O  15,Zr  0,Zr  5)    -33.9805         0.010000   
    584. D(C  39,O  15,Zr  0,Zr  3)    -75.3796         0.010000   
    585. D(C  40,O  16,Zr  1,Zr  4)     34.6706         0.010000   
    586. D(C  40,O  16,Zr  1,Zr  2)     74.3021         0.010000   
    587. D(C  41,O  17,Zr  1,Zr  4)    -29.0727         0.010000   
    588. D(C  41,O  17,Zr  1,Zr  2)     57.2774         0.010000   
    589. D(C  42,O  18,Zr  1,Zr  4)    100.2746         0.010000   
    590. D(C  42,O  18,Zr  1,Zr  2)     35.8169         0.010000   
    591. D(C  43,O  19,Zr  1,Zr  4)      9.3701         0.010000   
    592. D(C  43,O  19,Zr  1,Zr  2)    -40.6908         0.010000   
    593. D(H  62,O  20,Zr  2,Zr  1)   -146.8674         0.010000   
    594. D(C  44,O  20,Zr  2,Zr  5)     22.7424         0.010000   
    595. D(C  44,O  20,Zr  2,Zr  1)    -25.3241         0.010000   
    596. D(H  62,O  21,Zr  2,Zr  1)    142.7244         0.010000   
    597. D(C  38,O  21,Zr  2,Zr  5)    -30.0129         0.010000   
    598. D(C  38,O  21,Zr  2,Zr  1)     56.0942         0.010000   
    599. D(C  42,O  22,Zr  2,Zr  5)     96.3488         0.010000   
    600. D(C  42,O  22,Zr  2,Zr  1)     32.6624         0.010000   
    601. D(C  45,O  23,Zr  2,Zr  5)     34.9886         0.010000   
    602. D(C  45,O  23,Zr  2,Zr  1)     67.0486         0.010000   
    603. D(C  46,O  24,Zr  3,Zr  0)    -70.7132         0.010000   
    604. D(C  46,O  24,Zr  3,Zr  4)    -36.1377         0.010000   
    605. D(C  37,O  25,Zr  3,Zr  0)    -31.7311         0.010000   
    606. D(C  37,O  25,Zr  3,Zr  4)    -95.4227         0.010000   
    607. D(C  41,O  26,Zr  3,Zr  4)     29.5995         0.010000   
    608. D(C  41,O  26,Zr  3,Zr  0)    -55.9757         0.010000   
    609. D(C  47,O  27,Zr  3,Zr  4)    -27.0670         0.010000   
    610. D(C  47,O  27,Zr  3,Zr  0)     20.7565         0.010000   
    611. D(C  47,O  28,Zr  4,Zr  3)    -26.3936         0.010000   
    612. D(C  47,O  28,Zr  4,Zr  1)     23.9031         0.010000   
    613. D(C  39,O  29,Zr  4,Zr  3)      2.3896         0.010000   
    614. D(C  39,O  29,Zr  4,Zr  1)    -71.4225         0.010000   
    615. D(C  43,O  30,Zr  4,Zr  3)    -51.9029         0.010000   
    616. D(C  43,O  30,Zr  4,Zr  1)      8.5953         0.010000   
    617. D(C  45,O  31,Zr  4,Zr  3)     19.4295         0.010000   
    618. D(C  45,O  31,Zr  4,Zr  1)    -33.4859         0.010000   
    619. D(C  46,O  32,Zr  5,Zr  2)    -35.8675         0.010000   
    620. D(C  46,O  32,Zr  5,Zr  0)     24.7113         0.010000   
    621. D(C  36,O  33,Zr  5,Zr  0)    -12.5445         0.010000   
    622. D(C  36,O  33,Zr  5,Zr  2)     44.7814         0.010000   
    623. D(C  40,O  34,Zr  5,Zr  2)    -12.9334         0.010000   
    624. D(C  40,O  34,Zr  5,Zr  0)     56.9846         0.010000   
    625. D(C  44,O  35,Zr  5,Zr  2)     20.9085         0.010000   
    626. D(C  44,O  35,Zr  5,Zr  0)    -32.4425         0.010000   
    627. D(H  58,C  36,O  33,Zr  5)   -172.9613         0.046787   
    628. D(O  12,C  36,O  33,Zr  5)      6.3882         0.046787   
    629. D(H  58,C  36,O  12,Zr  0)   -165.8727         0.046752   
    630. D(O  33,C  36,O  12,Zr  0)     14.7781         0.046752   
    631. D(H  51,C  37,O  25,Zr  3)   -158.4533         0.045821   
    632. D(O  13,C  37,O  25,Zr  3)     21.2167         0.045821   
    633. D(H  51,C  37,O  13,Zr  0)   -153.5716         0.045667   
    634. D(O  25,C  37,O  13,Zr  0)     26.7584         0.045667   
    635. D(H  50,C  38,O  21,Zr  2)    179.1966         0.062927   
    636. D(O  14,C  38,O  21,H  62)    -94.3399         0.062927   
    637. D(O  14,C  38,O  21,Zr  2)     -0.6669         0.062927   
    638. D(H  50,C  38,O  14,Zr  0)    176.6038         0.062770   
    639. D(O  21,C  38,O  14,H  66)    116.6860         0.062770   
    640. D(O  21,C  38,O  14,Zr  0)     -3.5325         0.062770   
    641. D(H  54,C  39,O  29,Zr  4)   -147.2547         0.046337   
    642. D(O  15,C  39,O  29,Zr  4)     33.4492         0.046337   
    643. D(H  54,C  39,O  15,Zr  0)   -163.5451         0.047049   
    644. D(O  29,C  39,O  15,Zr  0)     15.7517         0.047049   
    645. D(H  56,C  40,O  34,Zr  5)    157.1334         0.046702   
    646. D(O  16,C  40,O  34,Zr  5)    -22.8166         0.046702   
    647. D(H  56,C  40,O  16,Zr  1)    161.6629         0.047284   
    648. D(O  34,C  40,O  16,Zr  1)    -18.3871         0.047284   
    649. D(H  48,C  41,O  26,Zr  3)   -173.6736         0.048491   
    650. D(O  17,C  41,O  26,Zr  3)      7.2572         0.048491   
    651. D(H  48,C  41,O  17,Zr  1)    173.2552         0.048341   
    652. D(O  26,C  41,O  17,Zr  1)     -7.6759         0.048341   
    653. D(H  49,C  42,O  22,Zr  2)    157.9910         0.045706   
    654. D(O  18,C  42,O  22,Zr  2)    -21.6762         0.045706   
    655. D(H  49,C  42,O  18,Zr  1)    152.7559         0.045614   
    656. D(O  22,C  42,O  18,Zr  1)    -27.5771         0.045614   
    657. D(H  52,C  43,O  30,Zr  4)    174.1948         0.046876   
    658. D(O  19,C  43,O  30,Zr  4)     -5.6659         0.046876   
    659. D(H  52,C  43,O  19,Zr  1)    172.5436         0.046936   
    660. D(O  30,C  43,O  19,Zr  1)     -7.5958         0.046936   
    661. D(H  59,C  44,O  35,Zr  5)    165.9185         0.055952   
    662. D(O  20,C  44,O  35,Zr  5)    -13.7538         0.055952   
    663. D(H  59,C  44,O  20,Zr  2)    161.8037         0.064194   
    664. D(O  35,C  44,O  20,H  62)    104.3091         0.064194   
    665. D(O  35,C  44,O  20,Zr  2)    -18.5237         0.064194   
    666. D(H  55,C  45,O  31,Zr  4)    171.9722         0.047465   
    667. D(O  23,C  45,O  31,Zr  4)     -7.3296         0.047465   
    668. D(H  55,C  45,O  23,Zr  2)    164.7943         0.047728   
    669. D(O  31,C  45,O  23,Zr  2)    -15.9044         0.047728   
    670. D(H  57,C  46,O  32,Zr  5)   -165.9256         0.047316   
    671. D(O  24,C  46,O  32,Zr  5)     13.5431         0.047316   
    672. D(H  57,C  46,O  24,Zr  3)   -162.2719         0.047710   
    673. D(O  32,C  46,O  24,Zr  3)     18.2597         0.047710   
    674. D(H  53,C  47,O  28,Zr  4)   -161.3681         0.046044   
    675. D(O  27,C  47,O  28,Zr  4)     18.5546         0.046044   
    676. D(H  53,C  47,O  27,Zr  3)   -159.2508         0.046088   
    677. D(O  28,C  47,O  27,Zr  3)     20.8264         0.046088   
    678. D(H  66,H  50,C  38,O  14)     63.7088         0.157942   
    679. D(H  63,H  50,C  38,O  21)    -51.0114         0.157942   
    680. D(H  63,H  50,C  38,O  14)    128.8709         0.157942   
    681. D(H  65,H  58,C  36,O  33)     79.1431         0.109304   
    682. D(H  65,H  58,C  36,O  12)   -100.2810         0.109304   
    683. D(H  65,H  59,C  44,O  20)     92.5491         0.141459   
    684. D(H  67,H  59,C  44,O  35)   -152.9062         0.141459   
    685. D(H  67,H  59,C  44,O  20)     26.8037         0.141459   
    686. D(H  63,Al 61,Al 60,H  62)     89.1352         0.010000   
    687. D(H  62,Al 61,Al 60,H  65)     82.5003         0.010000   
    688. D(H  62,Al 61,Al 60,H  64)    179.3134         0.010000   
    689. D(O  20,H  62,Al 61,Al 60)   -141.7051         0.010000   
    690. D(Al 60,H  62,Al 61,H  64)      0.4384         0.010000   
    691. D(O  20,H  62,Al 60,Al 61)    124.2864         0.010000   
    692. D(Al 61,H  62,Al 60,H  65)   -103.0343         0.010000   
    693. D(Al 61,H  62,Al 60,H  64)     -0.4383         0.010000   
    694. D(Al 60,H  62,H  50,H  63)     97.4469         0.010000   
    695. D(Al 60,H  62,H  50,C  38)   -106.7615         0.010000   
    696. D(Al 61,H  62,C  44,O  20)    -79.9929         0.010000   
    697. D(Al 60,H  62,C  44,O  35)     52.3525         0.010000   
    698. D(Al 60,H  62,C  44,O  20)    167.4459         0.010000   
    699. D(Al 61,H  62,C  38,O  14)   -154.3100         0.010000   
    700. D(Al 60,H  62,C  38,O  21)   -163.9407         0.010000   
    701. D(Al 60,H  62,C  38,O  14)    -37.4150         0.010000   
    702. D(Al 61,H  62,O  21,Zr  2)    110.2839         0.010000   
    703. D(Al 60,H  62,O  21,C  38)     22.6122         0.010000   
    704. D(Al 60,H  62,O  21,Zr  2)   -115.7276         0.010000   
    705. D(Al 61,H  62,H  50,C  38)    147.0215         0.010000   
    706. D(Al 61,H  62,O  20,Zr  2)   -115.1699         0.010000   
    707. D(Al 60,H  62,O  20,C  44)    -16.4077         0.010000   
    708. D(Al 60,H  62,O  20,Zr  2)    120.8124         0.010000   
    709. D(Al 60,H  62,Al 61,H  63)    -97.2552         0.010000   
    710. D(Al 61,H  62,O  11,Zr  0)   -130.2935         0.010000   
    711. D(Al 60,H  62,O  11,Zr  2)   -174.2571         0.010000   
    712. D(Al 60,H  62,O  11,Zr  0)     54.8985         0.010000   
    713. D(H  50,H  63,Al 61,H  62)    -13.8123         0.010000   
    714. D(H  50,H  63,Al 61,Al 60)    -52.5598         0.010000   
    715. D(Al 61,H  63,H  50,H  66)     62.1810         0.010000   
    716. D(Al 61,H  63,H  50,C  38)    -13.7348         0.010000   
    717. D(Al 60,H  64,Al 61,H  63)     95.4001         0.010000   
    718. D(Al 60,H  64,Al 61,H  62)     -0.4375         0.010000   
    719. D(Al 61,H  64,Al 60,H  65)     91.9821         0.010000   
    720. D(Al 61,H  64,Al 60,H  62)      0.4381         0.010000   
    721. D(C  44,H  65,Al 60,Al 61)    -51.6471         0.010000   
    722. D(H  59,H  65,Al 60,H  62)      6.0812         0.010000   
    723. D(H  59,H  65,Al 60,Al 61)    -32.0832         0.010000   
    724. D(C  44,H  65,H  59,H  67)    110.9031         0.010000   
    725. D(Al 60,H  65,H  59,H  67)     46.3604         0.010000   
    726. D(Al 60,H  65,H  59,C  44)    -64.5427         0.010000   
    727. D(H  59,H  65,H  58,C  36)    -41.1054         0.010000   
    728. D(Al 60,H  65,H  58,C  36)     80.4850         0.010000   
    729. D(H  59,H  65,C  44,O  20)   -114.8983         0.010000   
    730. D(Al 60,H  65,C  44,O  35)   -120.7624         0.010000   
    731. D(Al 60,H  65,C  44,O  20)      8.1911         0.010000   
    732. D(O  14,H  66,Al 60,Al 61)     82.0396         0.010000   
    733. D(H  50,H  66,Al 60,Al 61)     40.5562         0.010000   
    734. D(O  14,H  66,H  50,C  38)    -33.2473         0.010000   
    735. D(Al 60,H  66,H  50,H  63)    -57.5794         0.010000   
    736. D(Al 60,H  66,H  50,C  38)     57.8414         0.010000   
    737. D(H  50,H  66,C  38,O  14)   -122.9668         0.010000   
    738. D(Al 60,H  66,C  38,O  21)    -15.9366         0.010000   
    739. D(Al 60,H  66,C  38,O  14)    110.4822         0.010000   
    740. D(H  50,H  66,O  14,Zr  0)    169.2122         0.010000   
    741. D(H  50,H  66,Al 60,H  62)      2.0807         0.010000   
    742. D(Al 60,H  66,O  14,C  38)    -74.6845         0.010000   
    743. D(Al 60,H  66,O  14,Zr  0)     66.8458         0.010000   
    744. D(O  20,H  67,Al 61,Al 60)     72.8007         0.010000   
    745. D(H  59,H  67,Al 61,H  62)     10.1835         0.010000   
    746. D(H  59,H  67,Al 61,Al 60)     49.0501         0.010000   
    747. D(O  20,H  67,H  59,C  44)    -15.4746         0.010000   
    748. D(Al 61,H  67,H  59,H  65)    -54.6242         0.010000   
    749. D(Al 61,H  67,H  59,C  44)     22.2471         0.010000   
    750. D(H  59,H  67,O  20,Zr  2)   -174.1062         0.010000   
    751. D(Al 61,H  67,O  20,C  44)   -134.7147         0.010000   
    752. D(Al 61,H  67,O  20,Zr  2)     38.8337         0.010000   
    -----------------------------------------------------------------

Number of atoms                         .... 68
Number of degrees of freedom            .... 752


         *************************************************************
         *                GEOMETRY OPTIMIZATION CYCLE   1            *
         *************************************************************
---------------------------------
CARTESIAN COORDINATES (ANGSTROEM)
---------------------------------
  Zr    -0.122951    1.693267    1.735028
  Zr     0.406652   -2.043476   -1.773779
  Zr     1.897468   -1.665480    1.224876
  Zr    -1.617488    1.316744   -1.272503
  Zr     1.783053    1.074549   -1.655879
  Zr    -1.503856   -1.433283    1.606555
  O     -1.368382    0.401013    0.641116
  O      1.631975   -0.734140   -0.664103
  O      0.045229   -2.030370    0.346162
  O      0.230501    1.682479   -0.387314
  O     -0.059795    0.056787   -2.097354
  O      0.334185   -0.410596    2.066625
  O     -0.899091    1.372002    3.523587
  O     -1.655402    2.957700    1.612549
  O      1.642941    1.628982    2.696813
  O      0.919243    3.385011    1.134216
  O     -0.608052   -3.748356   -1.178022
  O     -1.366022   -1.979558   -2.728027
  O      1.957410   -3.286536   -1.662432
  O      1.145559   -1.720129   -3.579164
  O      1.450429   -2.586034    2.919032
  O      2.857345   -0.335993    2.346621
  O      2.225497   -3.545341    0.633471
  O      3.729318   -1.434752    0.276024
  O     -3.454144    1.066725   -0.357888
  O     -1.947488    3.193099   -0.683858
  O     -2.562890    0.005773   -2.436502
  O     -1.146560    2.235817   -2.969928
  O      1.146533    2.600458   -2.746281
  O      2.476897    2.586063   -0.438712
  O      2.276497    0.310637   -3.406900
  O      3.679206    0.415286   -1.175220
  O     -3.390152   -0.860376    0.987203
  O     -2.132250   -0.589194    3.273729
  O     -2.131397   -3.048783    0.472814
  O     -0.861253   -2.866965    2.803264
  C     -1.761159    0.480444    3.910879
  C     -2.078246    3.582571    0.551307
  C      2.667736    0.848905    2.832986
  C      1.964579    3.467529    0.368389
  C     -1.637362   -3.877012   -0.398012
  C     -2.348711   -1.164760   -2.946859
  C      2.370876   -3.922821   -0.604105
  C      1.907636   -0.768971   -4.027854
  C      0.318955   -3.106272    3.293097
  C      4.248337   -0.536923   -0.502443
  C     -3.969309    0.114030    0.355266
  C     -0.020514    2.807268   -3.283040
  H     -3.103648   -1.517268   -3.643587
  H      2.897060   -4.865582   -0.771337
  H      3.477626    1.242867    3.440214
  H     -2.600599    4.527972    0.714433
  H      2.279466   -0.889891   -5.045325
  H     -0.059174    3.542857   -4.088260
  H      2.497194    4.413494    0.417799
  H      5.325437   -0.597084   -0.617421
  H     -2.166108   -4.821566   -0.486142
  H     -5.050704    0.139413    0.443938
  H     -2.218762    0.643197    4.887062
  H      0.365524   -3.821777    4.115509
  Al     0.966506   -0.296437    5.875249
  Al     3.166653   -1.684408    5.541191
  H      1.909518   -0.988816    4.681665
  H      4.234826   -0.501456    5.356057
  H      2.215938   -1.001677    6.737982
  H     -0.149776   -1.448230    5.836111
  H      1.528503    1.191748    5.665968
  H      2.595106   -3.180896    5.639610

----------------------------
CARTESIAN COORDINATES (A.U.)
----------------------------
  NO LB      ZA    FRAG     MASS         X           Y           Z
   0 Zr   12.0000*   0    91.220   -0.232344    3.199811    3.278728
   1 Zr   12.0000*   0    91.220    0.768461   -3.861609   -3.351956
   2 Zr   12.0000*   0    91.220    3.585696   -3.147302    2.314680
   3 Zr   12.0000*   0    91.220   -3.056610    2.488286   -2.404682
   4 Zr   12.0000*   0    91.220    3.369482    2.030603   -3.129157
   5 Zr   12.0000*   0    91.220   -2.841877   -2.708513    3.035949
   6 O     8.0000    0    15.999   -2.585867    0.757804    1.211534
   7 O     8.0000    0    15.999    3.083986   -1.387323   -1.254972
   8 O     8.0000    0    15.999    0.085470   -3.836843    0.654152
   9 O     8.0000    0    15.999    0.435584    3.179425   -0.731917
  10 O     8.0000    0    15.999   -0.112995    0.107311   -3.963425
  11 O     8.0000    0    15.999    0.631518   -0.775914    3.905356
  12 O     8.0000    0    15.999   -1.699035    2.592708    6.658614
  13 O     8.0000    0    15.999   -3.128257    5.589244    3.047276
  14 O     8.0000    0    15.999    3.104709    3.078330    5.096239
  15 O     8.0000    0    15.999    1.737118    6.396743    2.143358
  16 O     8.0000    0    15.999   -1.149051   -7.083366   -2.226139
  17 O     8.0000    0    15.999   -2.581408   -3.740822   -5.155224
  18 O     8.0000    0    15.999    3.698968   -6.210654   -3.141540
  19 O     8.0000    0    15.999    2.164793   -3.250572   -6.763640
  20 O     8.0000    0    15.999    2.740913   -4.886895    5.516171
  21 O     8.0000    0    15.999    5.399600   -0.634934    4.434471
  22 O     8.0000    0    15.999    4.205580   -6.699724    1.197087
  23 O     8.0000    0    15.999    7.047390   -2.711288    0.521609
  24 O     8.0000    0    15.999   -6.527387    2.015817   -0.676311
  25 O     8.0000    0    15.999   -3.680219    6.034083   -1.292305
  26 O     8.0000    0    15.999   -4.843161    0.010909   -4.604321
  27 O     8.0000    0    15.999   -2.166685    4.225082   -5.612351
  28 O     8.0000    0    15.999    2.166634    4.914153   -5.189719
  29 O     8.0000    0    15.999    4.680657    4.886952   -0.829045
  30 O     8.0000    0    15.999    4.301957    0.587019   -6.438108
  31 O     8.0000    0    15.999    6.952692    0.784777   -2.220844
  32 O     8.0000    0    15.999   -6.406458   -1.625874    1.865542
  33 O     8.0000    0    15.999   -4.029368   -1.113416    6.186452
  34 O     8.0000    0    15.999   -4.027756   -5.761365    0.893489
  35 O     8.0000    0    15.999   -1.627533   -5.417778    5.297402
  36 C     6.0000    0    12.011   -3.328108    0.907908    7.390490
  37 C     6.0000    0    12.011   -3.927315    6.770079    1.041819
  38 C     6.0000    0    12.011    5.041290    1.604199    5.353568
  39 C     6.0000    0    12.011    3.712517    6.552680    0.696154
  40 C     6.0000    0    12.011   -3.094166   -7.326491   -0.752134
  41 C     6.0000    0    12.011   -4.438421   -2.201077   -5.568756
  42 C     6.0000    0    12.011    4.480307   -7.413057   -1.141593
  43 C     6.0000    0    12.011    3.604909   -1.453145   -7.611542
  44 C     6.0000    0    12.011    0.602738   -5.870004    6.223051
  45 C     6.0000    0    12.011    8.028194   -1.014637   -0.949480
  46 C     6.0000    0    12.011   -7.500908    0.215485    0.671355
  47 C     6.0000    0    12.011   -0.038765    5.304969   -6.204047
  48 H     1.0000    0     1.008   -5.865044   -2.867221   -6.885381
  49 H     1.0000    0     1.008    5.474650   -9.194618   -1.457615
  50 H     1.0000    0     1.008    6.571762    2.348679    6.501063
  51 H     1.0000    0     1.008   -4.914420    8.556627    1.350083
  52 H     1.0000    0     1.008    4.307566   -1.681650   -9.534283
  53 H     1.0000    0     1.008   -0.111823    6.695030   -7.725692
  54 H     1.0000    0     1.008    4.719013    8.340295    0.789526
  55 H     1.0000    0     1.008   10.063617   -1.128324   -1.166757
  56 H     1.0000    0     1.008   -4.093350   -9.111438   -0.918674
  57 H     1.0000    0     1.008   -9.544447    0.263452    0.838922
  58 H     1.0000    0     1.008   -4.192852    1.215466    9.235208
  59 H     1.0000    0     1.008    0.690740   -7.222111    7.777186
  60 Al   13.0000    0    26.982    1.826432   -0.560185   11.102611
  61 Al   13.0000    0    26.982    5.984107   -3.183070   10.471334
  62 H     1.0000    0     1.008    3.608466   -1.868591    8.847065
  63 H     1.0000    0     1.008    8.002661   -0.947615   10.121480
  64 H     1.0000    0     1.008    4.187516   -1.892895   12.732941
  65 H     1.0000    0     1.008   -0.283036   -2.736759   11.028651
  66 H     1.0000    0     1.008    2.888452    2.252078   10.707128
  67 H     1.0000    0     1.008    4.904039   -6.011023   10.657318
* core charge reduced due to ECP

--------------------------------
INTERNAL COORDINATES (ANGSTROEM)
--------------------------------
 Zr     0   0   0     0.000000000000     0.00000000     0.00000000
 Zr     1   0   0     5.153198342625     0.00000000     0.00000000
 Zr     2   1   0     3.370065985326    50.07926989     0.00000000
 Zr     1   2   3     3.379446111069    50.11077595   179.95933540
 Zr     2   1   3     3.410345422764    49.83156192   259.96801144
 Zr     1   2   3     3.420339487315    49.68952681   279.90534091
 O      6   1   2     2.077274220312    35.30809435   298.57056408
 O      5   2   1     2.068283887298    35.66566161    59.82617234
 O      3   2   1     2.082324178223    37.94273748    67.15221235
 O      4   1   2     2.081438870773    37.74954696   292.70796567
 O      5   2   1     2.151006100548    38.23579964   283.68108380
 O      6   1   2     2.153125624577    38.10718928    76.87503910
 O      1   2   3     1.975992278441   122.60090493   294.47199004
 O      1   2   3     1.990527115249   119.85759837   194.63609844
 O      1   2   3     2.011850040373   102.24736800    25.94411390
 O      1   2   3     2.075846828961   110.01625593   103.12910556
 O      2   1   3     2.071512850956   110.52566132    76.15230949
 O      2   1   3     2.014212129210   102.07093637   153.83238980
 O      2   1   3     1.990589779181   119.65642287   344.38763065
 O      2   1   3     1.977360233645   122.78629991   244.13701556
 O      3   2   1     1.979248848504   127.55642478   101.61279141
 O      3   2   1     1.986759280070   142.29469443   311.74655944
 O      3   2   1     1.997808928159    72.76400800   165.96005136
 O      3   2   1     2.075868353918    89.77792690   245.43452847
 O      4   1   2     2.066962640536    90.72475353   114.07807596
 O      4   1   2     1.994018600139    72.88026546   193.97815026
 O      4   1   2     1.991814286472   143.44804526    47.07173803
 O      4   1   2     1.986887167158   127.15245086   259.00169387
 O      5   2   1     1.980538550455   123.75670610   257.12239179
 O      5   2   1     2.060968649336   145.77420611    31.61786987
 O      5   2   1     1.973100149349    73.51742325   186.73364481
 O      5   2   1     2.064232781792    94.97864414   107.06687072
 O      6   1   2     2.066381230558    97.25981234   256.81609642
 O      6   1   2     1.971505720679    72.87560015   178.58820455
 O      6   1   2     2.070993493680   148.86559317   333.71612460
 O      6   1   2     1.974966925081   120.62714020   106.13296247
 C     34   6   1     1.299151251532   132.54674310   347.45554143
 C     26   4   1     1.301698831062   125.33022593   328.26890601
 C     22   3   2     1.294792115658   138.91310495    56.09416018
 C     16   1   2     1.298471633690   128.80535755   333.05931832
 C     17   2   1     1.297862411842   130.00903986    26.08328076
 C     27   4   1     1.294790954546   138.31792494   304.02434111
[...]
197:   2900.86   0.016086   81.29  0.001730  ( 0.024712  0.006633  0.032799)
198:   2905.38   0.006920   34.97  0.000743  ( 0.013257 -0.020683 -0.011822)
199:   2906.22   0.034713  175.43  0.003727  (-0.009801 -0.019059  0.057167)
200:   2907.20   0.012561   63.48  0.001348  (-0.005796 -0.004048  0.036033)
201:   2908.00   0.042098  212.75  0.004518  (-0.034814  0.053537  0.020962)
202:   2908.70   0.009315   47.07  0.000999  (-0.014017  0.028127 -0.003428)
203:   2912.36   0.017762   89.76  0.001903  ( 0.005609 -0.024358  0.035755)

* The epsilon (eps) is given for a Dirac delta lineshape.
** The dipole moment derivative (T) already includes vibrational overlap.

The first frequency considered to be a vibration is 9
The total number of vibrations considered is 195


--------------------------
THERMOCHEMISTRY AT 298.15K
--------------------------

Temperature         ...   298.15 K
Pressure            ...     1.00 atm
Total Mass          ...  1243.53 AMU
Quasi RRHO          ...     True
Cut-Off Frequency   ...     1.00 cm^-1

Throughout the following assumptions are being made:
  (1) The electronic state is orbitally nondegenerate
  (2) There are no thermally accessible electronically excited states
  (3) Hindered rotations indicated by low frequency modes are not
      treated as such but are treated as vibrations and this may
      cause some error
  (4) All equations used are the standard statistical mechanics
      equations for an ideal gas
  (5) All vibrations are strictly harmonic

freq.      14.55  E(vib)   ...       0.57 
freq.      22.72  E(vib)   ...       0.56 
freq.      25.30  E(vib)   ...       0.56 
freq.      33.09  E(vib)   ...       0.55 
freq.      40.66  E(vib)   ...       0.54 
freq.      47.26  E(vib)   ...       0.53 
freq.      50.92  E(vib)   ...       0.52 
freq.      63.19  E(vib)   ...       0.51 
freq.      76.26  E(vib)   ...       0.49 
freq.      78.75  E(vib)   ...       0.49 
freq.      91.39  E(vib)   ...       0.47 
freq.      95.31  E(vib)   ...       0.47 
freq.      98.27  E(vib)   ...       0.46 
freq.      99.15  E(vib)   ...       0.46 
freq.     102.87  E(vib)   ...       0.46 
freq.     105.00  E(vib)   ...       0.46 
freq.     107.01  E(vib)   ...       0.45 
freq.     110.38  E(vib)   ...       0.45 
freq.     112.25  E(vib)   ...       0.45 
freq.     114.95  E(vib)   ...       0.44 
freq.     118.30  E(vib)   ...       0.44 
freq.     129.59  E(vib)   ...       0.43 
freq.     143.21  E(vib)   ...       0.41 
freq.     144.60  E(vib)   ...       0.41 
freq.     148.19  E(vib)   ...       0.41 
freq.     151.78  E(vib)   ...       0.40 
freq.     152.00  E(vib)   ...       0.40 
freq.     154.03  E(vib)   ...       0.40 
freq.     157.13  E(vib)   ...       0.40 
freq.     160.13  E(vib)   ...       0.39 
freq.     163.33  E(vib)   ...       0.39 
freq.     166.15  E(vib)   ...       0.39 
freq.     166.88  E(vib)   ...       0.39 
freq.     168.54  E(vib)   ...       0.38 
freq.     170.94  E(vib)   ...       0.38 
freq.     172.53  E(vib)   ...       0.38 
freq.     184.78  E(vib)   ...       0.37 
freq.     188.21  E(vib)   ...       0.36 
freq.     188.64  E(vib)   ...       0.36 
freq.     192.29  E(vib)   ...       0.36 
freq.     194.08  E(vib)   ...       0.36 
freq.     196.22  E(vib)   ...       0.36 
freq.     198.85  E(vib)   ...       0.35 
freq.     202.95  E(vib)   ...       0.35 
freq.     209.46  E(vib)   ...       0.34 
freq.     210.75  E(vib)   ...       0.34 
freq.     213.29  E(vib)   ...       0.34 
freq.     230.34  E(vib)   ...       0.32 
freq.     232.41  E(vib)   ...       0.32 
freq.     233.43  E(vib)   ...       0.32 
freq.     241.44  E(vib)   ...       0.31 
freq.     243.79  E(vib)   ...       0.31 
freq.     259.70  E(vib)   ...       0.30 
freq.     260.68  E(vib)   ...       0.30 
freq.     263.01  E(vib)   ...       0.29 
freq.     263.82  E(vib)   ...       0.29 
freq.     265.30  E(vib)   ...       0.29 
freq.     267.26  E(vib)   ...       0.29 
freq.     270.27  E(vib)   ...       0.29 
freq.     273.64  E(vib)   ...       0.28 
freq.     274.08  E(vib)   ...       0.28 
freq.     275.51  E(vib)   ...       0.28 
freq.     277.80  E(vib)   ...       0.28 
freq.     278.99  E(vib)   ...       0.28 
freq.     282.17  E(vib)   ...       0.28 
freq.     287.69  E(vib)   ...       0.27 
freq.     289.43  E(vib)   ...       0.27 
freq.     291.86  E(vib)   ...       0.27 
freq.     294.29  E(vib)   ...       0.27 
freq.     295.01  E(vib)   ...       0.27 
freq.     303.21  E(vib)   ...       0.26 
freq.     307.27  E(vib)   ...       0.26 
freq.     307.47  E(vib)   ...       0.26 
freq.     310.10  E(vib)   ...       0.26 
freq.     312.55  E(vib)   ...       0.25 
freq.     315.04  E(vib)   ...       0.25 
freq.     316.35  E(vib)   ...       0.25 
freq.     319.12  E(vib)   ...       0.25 
freq.     320.67  E(vib)   ...       0.25 
freq.     325.30  E(vib)   ...       0.24 
freq.     329.77  E(vib)   ...       0.24 
freq.     338.78  E(vib)   ...       0.23 
freq.     341.62  E(vib)   ...       0.23 
freq.     350.57  E(vib)   ...       0.23 
freq.     352.71  E(vib)   ...       0.22 
freq.     358.61  E(vib)   ...       0.22 
freq.     360.62  E(vib)   ...       0.22 
freq.     371.69  E(vib)   ...       0.21 
freq.     387.84  E(vib)   ...       0.20 
freq.     394.96  E(vib)   ...       0.20 
freq.     400.27  E(vib)   ...       0.19 
freq.     402.61  E(vib)   ...       0.19 
freq.     404.35  E(vib)   ...       0.19 
freq.     406.49  E(vib)   ...       0.19 
freq.     415.63  E(vib)   ...       0.18 
freq.     418.37  E(vib)   ...       0.18 
freq.     420.90  E(vib)   ...       0.18 
freq.     421.69  E(vib)   ...       0.18 
freq.     449.03  E(vib)   ...       0.17 
freq.     460.30  E(vib)   ...       0.16 
freq.     468.46  E(vib)   ...       0.16 
freq.     478.75  E(vib)   ...       0.15 
freq.     484.61  E(vib)   ...       0.15 
freq.     522.23  E(vib)   ...       0.13 
freq.     537.44  E(vib)   ...       0.12 
freq.     597.48  E(vib)   ...       0.10 
freq.     625.74  E(vib)   ...       0.09 
freq.     659.29  E(vib)   ...       0.08 
freq.     682.37  E(vib)   ...       0.08 
freq.     685.45  E(vib)   ...       0.07 
freq.     690.19  E(vib)   ...       0.07 
freq.     692.59  E(vib)   ...       0.07 
freq.     700.67  E(vib)   ...       0.07 
freq.     719.56  E(vib)   ...       0.07 
freq.     733.30  E(vib)   ...       0.06 
freq.     733.85  E(vib)   ...       0.06 
freq.     734.02  E(vib)   ...       0.06 
freq.     735.05  E(vib)   ...       0.06 
freq.     735.99  E(vib)   ...       0.06 
freq.     738.06  E(vib)   ...       0.06 
freq.     738.73  E(vib)   ...       0.06 
freq.     738.98  E(vib)   ...       0.06 
freq.     739.36  E(vib)   ...       0.06 
freq.     739.78  E(vib)   ...       0.06 
freq.     741.41  E(vib)   ...       0.06 
freq.     742.42  E(vib)   ...       0.06 
freq.     797.81  E(vib)   ...       0.05 
freq.     998.56  E(vib)   ...       0.02 
freq.     998.96  E(vib)   ...       0.02 
freq.     999.28  E(vib)   ...       0.02 
freq.    1000.13  E(vib)   ...       0.02 
freq.    1001.17  E(vib)   ...       0.02 
freq.    1004.60  E(vib)   ...       0.02 
freq.    1005.31  E(vib)   ...       0.02 
freq.    1005.49  E(vib)   ...       0.02 
freq.    1005.71  E(vib)   ...       0.02 
freq.    1006.10  E(vib)   ...       0.02 
freq.    1006.56  E(vib)   ...       0.02 
freq.    1008.02  E(vib)   ...       0.02 
freq.    1288.32  E(vib)   ...       0.01 
freq.    1347.13  E(vib)   ...       0.01 
freq.    1352.19  E(vib)   ...       0.01 
freq.    1352.30  E(vib)   ...       0.01 
freq.    1353.17  E(vib)   ...       0.01 
freq.    1353.42  E(vib)   ...       0.01 
freq.    1354.24  E(vib)   ...       0.01 
freq.    1354.65  E(vib)   ...       0.01 
freq.    1355.58  E(vib)   ...       0.01 
freq.    1356.04  E(vib)   ...       0.01 
freq.    1356.66  E(vib)   ...       0.01 
freq.    1357.00  E(vib)   ...       0.01 
freq.    1357.49  E(vib)   ...       0.01 
freq.    1357.78  E(vib)   ...       0.01 
freq.    1360.46  E(vib)   ...       0.01 
freq.    1360.96  E(vib)   ...       0.01 
freq.    1361.80  E(vib)   ...       0.01 
freq.    1363.45  E(vib)   ...       0.01 
freq.    1364.39  E(vib)   ...       0.01 
freq.    1364.77  E(vib)   ...       0.01 
freq.    1365.47  E(vib)   ...       0.01 
freq.    1367.06  E(vib)   ...       0.01 
freq.    1367.72  E(vib)   ...       0.01 
freq.    1371.42  E(vib)   ...       0.01 
freq.    1372.00  E(vib)   ...       0.01 
freq.    1380.44  E(vib)   ...       0.01 
freq.    1422.26  E(vib)   ...       0.00 
freq.    1504.64  E(vib)   ...       0.00 
freq.    1536.93  E(vib)   ...       0.00 
freq.    1545.06  E(vib)   ...       0.00 
freq.    1562.37  E(vib)   ...       0.00 
freq.    1563.47  E(vib)   ...       0.00 
freq.    1567.38  E(vib)   ...       0.00 
freq.    1575.60  E(vib)   ...       0.00 
freq.    1576.50  E(vib)   ...       0.00 
freq.    1630.53  E(vib)   ...       0.00 
freq.    1632.10  E(vib)   ...       0.00 
freq.    1635.18  E(vib)   ...       0.00 
freq.    1637.24  E(vib)   ...       0.00 
freq.    1638.04  E(vib)   ...       0.00 
freq.    1884.17  E(vib)   ...       0.00 
freq.    1889.36  E(vib)   ...       0.00 
freq.    1905.06  E(vib)   ...       0.00 
freq.    1912.10  E(vib)   ...       0.00 
freq.    2882.50  E(vib)   ...       0.00 
freq.    2888.30  E(vib)   ...       0.00 
freq.    2888.52  E(vib)   ...       0.00 
freq.    2890.84  E(vib)   ...       0.00 
freq.    2894.65  E(vib)   ...       0.00 
freq.    2900.86  E(vib)   ...       0.00 
freq.    2905.38  E(vib)   ...       0.00 
freq.    2906.22  E(vib)   ...       0.00 
freq.    2907.20  E(vib)   ...       0.00 
freq.    2908.00  E(vib)   ...       0.00 
freq.    2908.70  E(vib)   ...       0.00 
freq.    2912.36  E(vib)   ...       0.00 

------------
INNER ENERGY
------------

The inner energy is: U= E(el) + E(ZPE) + E(vib) + E(rot) + E(trans)
    E(el)   - is the total energy from the electronic structure calculation
              = E(kin-el) + E(nuc-el) + E(el-el) + E(nuc-nuc)
    E(ZPE)  - the the zero temperature vibrational energy from the frequency calculation
    E(vib)  - the the finite temperature correction to E(ZPE) due to population
              of excited vibrational states
    E(rot)  - is the rotational thermal energy
    E(trans)- is the translational thermal energy

Summary of contributions to the inner energy U:
Electronic energy                ...  -3488.52595212 Eh
Zero point energy                ...      0.34890790 Eh     218.94 kcal/mol
Thermal vibrational correction   ...      0.05747518 Eh      36.07 kcal/mol
Thermal rotational correction    ...      0.00141627 Eh       0.89 kcal/mol
Thermal translational correction ...      0.00141627 Eh       0.89 kcal/mol
-----------------------------------------------------------------------
Total thermal energy                  -3488.11673650 Eh


Summary of corrections to the electronic energy:
(perhaps to be used in another calculation)
Total thermal correction                  0.06030772 Eh      37.84 kcal/mol
Non-thermal (ZPE) correction              0.34890790 Eh     218.94 kcal/mol
-----------------------------------------------------------------------
Total correction                          0.40921562 Eh     256.79 kcal/mol


--------
ENTHALPY
--------

The enthalpy is H = U + kB*T
                kB is Boltzmann's constant
Total thermal energy              ...  -3488.11673650 Eh 
Thermal Enthalpy correction       ...      0.00094421 Eh       0.59 kcal/mol
-----------------------------------------------------------------------
Total Enthalpy                    ...  -3488.11579229 Eh


Note: Only C1 symmetry has been detected, increase convergence thresholds 
      if your molecule has a higher symmetry. Symmetry factor of 1.0 is   
      used for the rotational entropy correction. 
 

Note: Rotational entropy computed according to Herzberg 
Infrared and Raman Spectra, Chapter V,1, Van Nostrand Reinhold, 1945 
Point Group:  C1, Symmetry Number:   1  
Rotational constants in cm-1:     0.001817     0.001460     0.001399 

Vibrational entropy computed according to the QRRHO of S. Grimme
Chem.Eur.J. 2012 18 9955 using a reference frequency of 100.0 cm-1


-------
ENTROPY
-------

The entropy contributions are T*S = T*(S(el)+S(vib)+S(rot)+S(trans))
     S(el)   - electronic entropy
     S(vib)  - vibrational entropy
     S(rot)  - rotational entropy
     S(trans)- translational entropy
The entropies will be listed as multiplied by the temperature to get
units of energy

Electronic entropy                ...      0.00000000 Eh      0.00 kcal/mol
Vibrational entropy               ...      0.10337652 Eh     64.87 kcal/mol
Rotational entropy                ...      0.01867497 Eh     11.72 kcal/mol
Translational entropy             ...      0.02244101 Eh     14.08 kcal/mol
-----------------------------------------------------------------------
Final entropy term                ...      0.14449249 Eh     90.67 kcal/mol

In case the symmetry of your molecule has not been determined correctly
or in case you have a reason to use a different symmetry number we print 
out the resulting rotational entropy values for sn=1,12:

 non-linear molecules -----------------------------------
|  sn= 1 | S(rot)=       0.01867497 Eh     11.72 kcal/mol|
|  sn= 2 | S(rot)=       0.01802051 Eh     11.31 kcal/mol|
|  sn= 3 | S(rot)=       0.01763768 Eh     11.07 kcal/mol|
|  sn= 4 | S(rot)=       0.01736605 Eh     10.90 kcal/mol|
|  sn= 5 | S(rot)=       0.01715536 Eh     10.77 kcal/mol|
|  sn= 6 | S(rot)=       0.01698322 Eh     10.66 kcal/mol|
|  sn= 7 | S(rot)=       0.01683767 Eh     10.57 kcal/mol|
|  sn= 8 | S(rot)=       0.01671160 Eh     10.49 kcal/mol|
|  sn= 9 | S(rot)=       0.01660039 Eh     10.42 kcal/mol|
|  sn=10 | S(rot)=       0.01650091 Eh     10.35 kcal/mol|
|  sn=11 | S(rot)=       0.01641092 Eh     10.30 kcal/mol|
|  sn=12 | S(rot)=       0.01632876 Eh     10.25 kcal/mol|
 linear molecules ---------------------------------------
|  Dinfh | S(rot)=       0.01153098 Eh      7.24 kcal/mol|
|  Cinfv | S(rot)=       0.01218544 Eh      7.65 kcal/mol|
 --------------------------------------------------------


-------------------
GIBBS FREE ENERGY
-------------------

The Gibbs free energy is G = H - T*S

Total enthalpy                    ...  -3488.11579229 Eh 
Total entropy correction          ...     -0.14449249 Eh    -90.67 kcal/mol
-----------------------------------------------------------------------
Final Gibbs free energy         ...  -3488.26028478 Eh

For completeness - the Gibbs free energy minus the electronic energy
G-E(el)                           ...      0.26566734 Eh    166.71 kcal/mol


Maximum memory used throughout the entire PROP-calculation: 139.2 MB

--------------------------------
SUGGESTED CITATIONS FOR THIS RUN
--------------------------------

Below you find a list of papers that are relevant to this ORCA run
We neither can nor want to force you to cite these papers, but we appreciate if you do
You receive ORCA, which is the product of decades of hard work by many enthusiastic individuals, for free
The only thing we kindly ask in return is that you cite our papers,
We deeply appreciate it, if you show your appreciation for ORCA by not just citing the generic ORCA reference.

Please note that relegating all ORCA citations to the supporting information does *not* help us.
SI sections are not indexed - citations you put there will not count into any citation statistics
But we need these citations in order to attract the funding resources that allow us to do what we are doing

Therefore, if you are a happy ORCA user, please consider citing a few of the papers listed below in the main body of your paper

In addition to the list printed below, the program has created the file run.bibtex that contains the list in bibtex format
You can import this file easily into all common literature databanks and citation aid programs


List of essential papers. We consider these as the minimum necessary citations

  1. Neese, F.
     Software update: the ORCA program system, version 6.0
     WIRES Comput. Molec. Sci. 2025 15(1), e70019
     doi.org/10.1002/wcms.7019

List of papers to cite with high priority. The work reported in these papers was absolutely
necessary for this run to complete.
Our perspective: the developers of density functionals and basis sets usually get cited in chemistry papers
Good! But without the algorithms to do something with them, the functionals or basis sets would not do anything.
Hence, in our opinion, the algorithm design and method developments papers are equally worthy of getting cited

  1. Neese, F.
     An improvement of the resolution of the identity approximation for the formation of the Coulomb matrix
     J. Comp. Chem. 2003 24(14), 1740-1747
     doi.org/10.1002/jcc.10318
  2. Grimme, S.; Antony, J.; Ehrlich, S.; Krieg, H.
     A consistent and accurate ab initio parametrization of density functional dispersion correction (DFT-D) for the 94 elements H-Pu
     J. Chem. Phys. 2010 132 , 154104
     doi.org/10.1063/1.3382344
  3. Grimme, S.; Ehrlich, S.; Goerigk, L.
     Effect of the damping function in dispersion corrected density functional theory
     J. Comput. Chem. 2011 32(7), 1456-1465
     doi.org/10.1002/jcc.21759
  4. Bykov, D.; Petrenko, T.; Izsak, R.; Kossmann, S.; Becker, U.; Valeev, E.; Neese, F.
     Efficient implementation of the analytic second derivatives of Hartree-Fock and hybrid DFT energies: a detailed analysis of different approximations
     Molec. Phys. 2015 113 , 1961-1977
     doi.org/10.1080/00268976.2015.1025114
  5. Helmich-Paris, B.
     A trust-region augmented Hessian implementation for restricted and unrestricted Hartree–Fock and Kohn–Sham methods
     J. Chem. Phys. 2021 154 , 164104
     doi.org/10.1063/5.0040798
  6. Neese, F.
     The SHARK Integral Generation and Digestion System
     J. Comp. Chem. 2022 44(3), 381
     doi.org/10.1002/jcc.26942

List of suggested additional citations. These are papers that are important in the 'surrounding' of 
of this run, or papers that preceded the highly important papers. If you like your results we are grateful for a citation.

  1. Neese, F.
     The ORCA program system
     WIRES Comput. Molec. Sci. 2012 2(1), 73-78
     doi.org/10.1002/wcms.81
  2. Neese, F.
     Software update: the ORCA program system, version 4.0
     WIRES Comput. Molec. Sci. 2018 8(1), 1-6
     doi.org/10.1002/wcms.1327
  3. Neese, F.; Wennmohs, F.; Becker, U.; Riplinger, C.
     The ORCA quantum chemistry program package
     J. Chem. Phys. 2020 152(22), 224108
     doi.org/10.1063/5.0004608
  4. Neese, F.
     Software update: The ORCA program system—Version 5.0
     WIRES Comput. Molec. Sci. 2022 12(1), e1606
     doi.org/10.1002/wcms.1606

List of optional additional citations

  1. Neese, F.
     Approximate second-order SCF convergence for spin unrestricted wavefunctions
     Chem. Phys. Lett. 2000 325(1-3), 93-98
     doi.org/10.1016/s0009-2614(00)00662-x

Timings for individual modules:

Sum of individual times          ...     6774.446 sec (= 112.907 min)
Startup calculation              ...      263.037 sec (=   4.384 min)   3.9 %
SCF iterations                   ...     2022.058 sec (=  33.701 min)  29.8 %
Property integrals               ...     1375.132 sec (=  22.919 min)  20.3 %
SCF Response                     ...     1157.694 sec (=  19.295 min)  17.1 %
Property calculations            ...     1247.199 sec (=  20.787 min)  18.4 %
SCF Gradient evaluation          ...      689.293 sec (=  11.488 min)  10.2 %
Geometry relaxation              ...       20.033 sec (=   0.334 min)   0.3 %
                             ****ORCA TERMINATED NORMALLY****
TOTAL RUN TIME: 0 days 1 hours 53 minutes 14 seconds 41 msec
