
                                 *****************
                                 * O   R   C   A *
                                 *****************

                                            #,                                       
                                            ###                                      
                                            ####                                     
                                            #####                                    
                                            ######                                   
                                           ########,                                 
                                     ,,################,,,,,                         
                               ,,#################################,,                 
                          ,,##########################################,,             
                       ,#########################################, ''#####,          
                    ,#############################################,,   '####,        
                  ,##################################################,,,,####,       
                ,###########''''           ''''###############################       
              ,#####''   ,,,,##########,,,,          '''####'''          '####       
            ,##' ,,,,###########################,,,                        '##       
           ' ,,###''''                  '''############,,,                           
         ,,##''                                '''############,,,,        ,,,,,,###''
      ,#''                                            '''#######################'''  
     '                                                          ''''####''''         
             ,#######,   #######,   ,#######,      ##                                
            ,#'     '#,  ##    ##  ,#'     '#,    #''#        ,####,    ,#,          
            ##       ##  ##   ,#'  ##            #'  '#       #'       ,# #          
            ##       ##  #######   ##           ,######,      #####,      #          
            '#,     ,#'  ##    ##  '#,     ,#' ,#      #,     #,   #      #          
             '#######'   ##     ##  '#######'  #'      '#     '####' #    #          



                #########################################################
                #                        -***-                          #
                #          Department of theory and spectroscopy        #
                #                                                       #
                #                      Frank Neese                      #
                #                                                       #
                #     Directorship, Architecture, Infrastructure        #
                #                    SHARK, DRIVERS                     #
                #        Core code/Algorithms in most modules           #
                #                                                       #
                #        Max Planck Institute fuer Kohlenforschung      #
                #                Kaiser Wilhelm Platz 1                 #
                #                 D-45470 Muelheim/Ruhr                 #
                #                      Germany                          #
                #                                                       #
                #                  All rights reserved                  #
                #                        -***-                          #
                #########################################################


                         Program Version 6.1.0  -  RELEASE   -
                                (GIT: $679e74b$)
                          ($2025-06-10 18:02:51 +0200$)


 With contributions from (in alphabetic order):
[Max-Planck-Institut fuer Kohlenforschung]                               
  Daniel Aravena         : Magnetic Suceptibility                        
  Michael Atanasov       : Ab Initio Ligand Field Theory (pilot matlab implementation)
  Alexander A. Auer      : GIAO ZORA, VPT2 properties, NMR spectrum      
  Ute Becker             : All parallelization in ORCA, NUMFREQ, NUMCALC 
  Giovanni Bistoni       : ED, misc. LED, open-shell LED, HFLD           
  Dmytro Bykov           : pre 5.0 version of the SCF Hessian            
  Marcos Casanova-Páez   : Triplet and SCS-CIS(D). UHF-(DLPNO)-IP/EA/STEOM-CCSD. UHF-CVS-IP/STEOM-CCSD   
  Vijay G. Chilkuri      : MRCI spin determinant printing, contributions to CSF-ICE 
  Pauline Colinet        : FMM embedding                                 
  Dipayan Datta          : RHF DLPNO-CCSD density                        
  Achintya Kumar Dutta   : EOM-CC, STEOM-CC                              
  Nicolas Foglia         : Exact transition moments, OPA infrastructure, MCD improvements    
  Dmitry Ganyushin       : Spin-Orbit,Spin-Spin,Magnetic field MRCI      
  Miquel Garcia-Rates    : C-PCM and meta-GGA Hessian, CCSD/C-PCM, Gaussian charge scheme 
  Tiago L. C. Gouveia    : GS-ROHF, GS-ROCIS                             
  Yang Guo               : DLPNO-NEVPT2, F12-NEVPT2, CIM, IAO-localization        
  Andreas Hansen         : Spin unrestricted coupled pair/coupled cluster methods 
  Ingolf Harden          : AUTO-CI MPn and infrastructure                
  Benjamin Helmich-Paris : MC-RPA, TRAH-(SCF,CASSCF), AVAS, COSX integrals, SCF dyn. polar., MC-PDFT, srDFT 
  Lee Huntington         : MR-EOM, pCC                                   
  Robert Izsak           : Overlap fitted RIJCOSX, COSX-SCS-MP3, EOM     
  Riya Kayal             : Wick's Theorem for AUTO-CI, AUTO-CI UHF-CCSDT 
  Emily Kempfer          : AUTO-CI RHF CISDT and CCSDT, approximate NEVPT4
  Christian Kollmar      : KDIIS, OOCD, Brueckner-CCSD(T), CCSD density, CASPT2, CASPT2-K, improved NEVPT2 
  Axel Koslowski         : Symmetry handling                             
  Simone Kossmann        : meta-GGA functionals, TD-DFT gradient, OOMP2, (MP2 Hessian; deprecated post 5.0) 
  Lucas Lang             : DCDCAS, Hyperfine gauge corrections, ICE-SOC+SSC
  Marvin Lechner         : AUTO-CI (C++ implementation), FIC-MRCC        
  Spencer Leger          : CASSCF response                               
  Dagmar Lenk            : GEPOL surface, SMD, ORCA-2-JSON               
  Dimitrios Liakos       : Extrapolation schemes; Compound Job, Property file
  Dimitrios Manganas     : Further ROCIS development; embedding schemes. LFT, Crystal Embedding 
  Dimitrios Pantazis     : SARC Basis sets                               
  Anastasios Papadopoulos: AUTO-CI, single reference methods and gradients 
  Taras Petrenko         : pre 6.0 DFT Hessian and TD-DFT gradient,  ECA, NRVS 
  Petra Pikulova         : Analytic Raman intensities                    
  Peter Pinski           : DLPNO-MP2, DLPNO-MP2 Gradient                 
  Shashank Vittal Rao    : ES-AILFT, MagRelax                            
  Christoph Reimann      : Effective Core Potentials                     
  Marius Retegan         : Local ZFS, SOC                                
  Christoph Riplinger    : Optimizer, TS searches, QM/MM, DLPNO-CCSD(T), (RO)-DLPNO pert. Triples 
  Michael Roemelt        : Original ROCIS implementation, recursive CI coupling coefficients
  Masaaki Saitow         : Open-shell DLPNO-CCSD energy and density      
  Barbara Sandhoefer     : DKH picture change effects                    
  Yorick L. A. Schmerwitz: GMF and freeze-and-release deltaSCF, NEB S-IDPP initial path                    
  Kantharuban Sivalingam : CASSCF convergence/infrastructure, NEVPT2, NEVPT3, NEVPT4(SD), FIC-MRCI and CEPA variants
  Bernardo de Souza      : ESD, SOC TD-DFT                               
  Georgi L. Stoychev     : AutoAux, RI-MP2 NMR, DLPNO-MP2 response, X2C  
  Van Anh Tran           : RI-MP2 g-tensors                              
  Willem Van den Heuvel  : Paramagnetic NMR                              
  Zikuan Wang            : NOTCH, Electric field optimization            
  Frank Wennmohs         : Technical directorship and infrastructure     
  Hang Xu                : AUTO-CI-Response properties                   
                                                                         
[FACCTs GmbH]                                                            
  Markus Bursch, Nicolas Foglia, Miquel Garcia-Rates, Ingolf Harden, Hagen Neugebauer, Anastasios Papadopoulos, 
  Christoph Riplinger, Bernardo de Souza, Georgi L. Stoychev                                                    
                                                                 
  APM, various basis sets, CI-OPT, improved COSX, DLPNO-Multilevel,           
  DOCKER, DRACO, updates on ESD, Fragmentator, GOAT, IRC, LR-CPCM, L-BFGS, MBIS, meta-GGA TD-DFT gradient, ML-optimized integration grids, 
  MM, NACMEs, nearIR, NEB, NEB-TS, NL-DFT gradient (VV10), 2- and 3-layer-ONIOM, interface openCOSMO-RS, QMMM,   
  Crystal-QMMM, RESP, rigid body optimization, SF, symmetry and pop. for TD-DFT, various functionals, SOLVATOR                                   
                                                                         
[Other institutions]                                                     
  V. Asgeirsson          : NEB                                           
  Christoph Bannwarth    : sTDA-DFT, sTD-DFT, PBEh-3c, B97-3c, D3        
  Giovanni Bistoni       : ETS/NOCV, ADLD/ADEX, COVALED                  
  Martin Brehm           : Molecular dynamics                            
  Ronald Cardenas        : ETS/NOCV                                      
  Martina Colucci        : COVALED                                       
  Sebastian Ehlert       : rSCAN, r2SCAN, r2SCAN-3c, D4, dhf basis sets  
  Marvin Friede          : D4 for Fr, Ra, Ac-Lr                          
  Lars Goerigk           : TD-DFT with DH, B97 family of functionals     
  Stefan Grimme          : VdW corrections, initial TS optimization, DFT functionals, gCP, sTDA/sTD-DF 
  Waldemar Hujo          : DFT-NL                                        
  H. Jonsson             : NEB                                           
  Holger Kruse           : gCP                                           
  Marcel Mueller         : wB97X-3c, vDZP basis set                      
  Hagen Neugebauer       : wr2SCAN, Native XTB                           
  Gianluca Regni         : ADLD/ADEX                                     
  Tobias Risthaus        : pre 6.0 range-separated hybrid DFT and stability analysis
  Lukas Wittmann         : regularized MP2, r2SCAN double-hybrids, wr2SCAN        
                                                                         
We gratefully acknowledge several colleagues who have allowed us to      
interface, adapt or use parts of their codes:                            
  Ed Valeev, F. Pavosevic, A. Kumar             : LibInt (2-el integral package), F12 methods 
  Garnet Chan, S. Sharma, J. Yang, R. Olivares  : DMRG                   
  Ulf Ekstrom                                   : XCFun DFT Library      
  Mihaly Kallay                                 : mrcc  (arbitrary order and MRCC methods)
  Frank Weinhold                                : gennbo (NPA and NBO analysis)           
  Simon Mueller                                 : openCOSMO-RS                            
  Christopher J. Cramer and Donald G. Truhlar   : smd solvation model                     
  S Lehtola, MJT Oliveira, MAL Marques          : LibXC Library                           
  Liviu Ungur et al                             : ANISO software                          


 Your calculation uses the libint2 library for the computation of 2-el integrals
 For citations please refer to: http://libint.valeyev.net

 Your ORCA version has been built with support for libXC version: 7.0.0
 For citations please refer to: https://libxc.gitlab.io

 This ORCA versions uses:
   CBLAS   interface :  Fast vector & matrix operations
   LAPACKE interface :  Fast linear algebra routines
   SCALAPACK package :  Parallel linear algebra routines
   Shared memory     :  Shared parallel matrices
   BLAS/LAPACK       :  OpenBLAS 0.3.29  USE64BITINT DYNAMIC_ARCH NO_AFFINITY Bulldozer SINGLE_THREADED
        Core in use  :  Bulldozer
   Copyright (c) 2011-2014, The OpenBLAS Project


  ***********************************
  * Starting time: Fri Aug 15 10:29:07 2025
  * Host name:     chromium03
  * Process ID:    241086
  * Working dir.:  /local/scratch/mehlhorn/61936
  ***********************************



***************************************
The coordinates will be read from file: start.xyz
***************************************


Your calculation utilizes the geometrical counterpoise correction gCP
Please cite in your paper:
H.Kruse, S. Grimme J.Chem.Phys., 136, (2012), 154101 
   

Your calculation utilizes the atom-pairwise dispersion correction
with the Becke-Johnson damping scheme (D3BJ)


Warning: RI is on but no J-basis has been assigned. Assigning Def2/J (nothing to worry about!)
================================================================================

----- Orbital basis set information -----
Your calculation utilizes the basis: def2-SV(P)
   F. Weigend and R. Ahlrichs, Phys. Chem. Chem. Phys. 7, 3297 (2005).

----- AuxJ basis set information -----
Your calculation utilizes the auxiliary basis: def2/J
   H-Rn: F. Weigend, Phys. Chem. Chem. Phys. 8, 1057 (2006).
   Fr-Lr: K. Eichkorn, F. Weigend, O. Treutler, R. Ahlrichs; Theor. Chem. Acc. 97, 119 (1997).

================================================================================
                                        WARNINGS
                       Please study these warnings very carefully!
================================================================================


WARNING: Gradients are needed
  ===> : At least TightSCF should be used for SCF convergence

WARNING: Geometry Optimization
  ===> : Switching off AutoStart
         For restart on a previous wavefunction, please use MOREAD

================================================================================
                                       INPUT FILE
================================================================================
NAME = run.inp
|  1> # Geometry optimization for (AlH3)n cluster
|  2> 
|  3> %pal nprocs 24  end
|  4> 
|  5> %geom MaxIter 500 end
|  6> 
|  7> 
|  8> ! PBE def2-SV(P)
|  9> ! RKS	# closed shell for AlH3
| 10> ! D3    #  dispersion correction
| 11> ! gCP(DFT/SV(P))
| 12> ! Freq 	# Frequency analysis to check the stabiltity of the structures
| 13> 
| 14> ! NoPop # population analysis not necessary	
| 15> 
| 16> ! RI
| 17> ! DEFGRID2
| 18> ! NormalSCF
| 19> ! SloppyOpt
| 20> 
| 21> ! SmallPrint
| 22> 
| 23> 
| 24> * xyzFile 0 1 start.xyz # only maingroup elements H and Al so there should be no net spin
| 25> 
| 26>                          ****END OF INPUT****
================================================================================

                       *****************************
                       * Geometry Optimization Run *
                       *****************************

Geometry optimization settings:
Update method            Update   .... BFGS
Choice of coordinates    CoordSys .... (2022) Redundant Internals
Initial Hessian          InHess   .... Almloef's Model
Max. no of cycles        MaxIter  .... 500

Convergence Tolerances:
Energy Change            TolE     ....  8.0000e-05 Eh
Max. Gradient            TolMAXG  ....  5.0000e-03 Eh/bohr
RMS Gradient             TolRMSG  ....  1.0000e-03 Eh/bohr
Max. Displacement        TolMAXD  ....  3.0000e-02 bohr
RMS Displacement         TolRMSD  ....  2.0000e-02 bohr
Strict Convergence                .... False

------------------------------------------------------------------------------
                        ORCA OPTIMIZATION COORDINATE SETUP
------------------------------------------------------------------------------

The optimization will be done in redundant internal coordinates (2022)
Making redundant internal coordinates   ...  (2022 redundants) done
Evaluating the initial hessian          ...  (Almloef) done
Evaluating the coordinates              ...  done
Calculating the B-matrix                .... done
Calculating the G-matrix                .... done
The number of degrees of freedom        ....   51

    -----------------------------------------------------------------
                    Redundant Internal Coordinates


    -----------------------------------------------------------------
         Definition                    Initial Value    Approx d2E/dq
    -----------------------------------------------------------------
      1. B(Al  1,Al  0)                  2.0686         2.536518   
      2. B(H   2,Al  0)                  1.7084         0.260226   
      3. B(H   2,Al  1)                  1.7079         0.260736   
      4. B(H   3,Al  1)                  1.5995         0.388294   
      5. B(H   4,Al  1)                  1.7084         0.260280   
      6. B(H   4,Al  0)                  1.7077         0.260952   
      7. B(H   5,Al  0)                  1.6003         0.387190   
      8. B(H   6,Al  0)                  1.6004         0.386937   
      9. B(H   7,Al  1)                  1.6001         0.387411   
     10. A(H   2,Al  0,H   5)          110.5729         0.354926   
     11. A(Al  1,Al  0,H   5)          126.3115         0.632094   
     12. A(H   4,Al  0,H   6)          110.5532         0.355054   
     13. A(H   4,Al  0,H   5)          110.5741         0.355094   
     14. A(Al  1,Al  0,H   4)           52.7466         0.585694   
     15. A(H   2,Al  0,H   4)          105.4601         0.332206   
     16. A(Al  1,Al  0,H   2)           52.7229         0.585381   
     17. A(H   5,Al  0,H   6)          109.0923         0.379908   
     18. A(H   2,Al  0,H   6)          110.5573         0.354886   
     19. A(Al  1,Al  0,H   6)          124.5963         0.632014   
     20. A(H   4,Al  1,H   7)          110.5367         0.354972   
     21. A(H   2,Al  1,H   3)          110.5609         0.355215   
     22. A(H   3,Al  1,H   4)          110.5514         0.355110   
     23. A(Al  0,Al  1,H   2)           52.7464         0.585601   
     24. A(H   2,Al  1,H   4)          105.4527         0.332172   
     25. A(Al  0,Al  1,H   4)           52.7156         0.585404   
     26. A(Al  0,Al  1,H   3)          124.5946         0.632444   
     27. A(Al  0,Al  1,H   7)          126.2405         0.632164   
     28. A(H   2,Al  1,H   7)          110.5392         0.355078   
     29. A(H   3,Al  1,H   7)          109.1650         0.380176   
     30. A(Al  0,H   2,Al  1)           74.5306         0.332160   
     31. A(Al  0,H   4,Al  1)           74.5378         0.332217   
     32. D(H   4,Al  1,Al  0,H   2)   -178.7212         0.010000   
     33. D(H   3,Al  1,Al  0,H   4)    -90.6221         0.010000   
     34. D(H   3,Al  1,Al  0,H   2)     90.6567         0.010000   
     35. D(H   2,Al  1,Al  0,H   6)    -90.6343         0.010000   
     36. D(H   3,Al  1,Al  0,H   5)   -179.9924         0.010000   
     37. D(H   3,Al  1,Al  0,H   6)      0.0224         0.010000   
     38. D(H   2,Al  1,Al  0,H   5)     89.3509         0.010000   
     39. D(H   2,Al  1,Al  0,H   4)    178.7212         0.010000   
     40. D(Al  0,H   2,Al  1,H   7)    120.5437         0.010000   
     41. D(Al  0,H   2,Al  1,H   4)      1.0556         0.010000   
     42. D(Al  0,H   2,Al  1,H   3)   -118.4615         0.010000   
     43. D(Al  1,H   2,Al  0,H   6)    118.4656         0.010000   
     44. D(Al  1,H   2,Al  0,H   5)   -120.6109         0.010000   
     45. D(Al  1,H   2,Al  0,H   4)     -1.0560         0.010000   
     46. D(Al  1,H   4,Al  0,H   2)      1.0557         0.010000   
     47. D(Al  0,H   4,Al  1,H   7)   -120.5458         0.010000   
     48. D(Al  0,H   4,Al  1,H   3)    118.4673         0.010000   
     49. D(Al  0,H   4,Al  1,H   2)     -1.0560         0.010000   
     50. D(Al  1,H   4,Al  0,H   6)   -118.4687         0.010000   
     51. D(Al  1,H   4,Al  0,H   5)    120.6098         0.010000   
    -----------------------------------------------------------------

Number of atoms                         .... 8
Number of degrees of freedom            .... 51


         *************************************************************
         *                GEOMETRY OPTIMIZATION CYCLE   1            *
         *************************************************************
---------------------------------
CARTESIAN COORDINATES (ANGSTROEM)
---------------------------------
  Al     0.000000   -0.000000    2.068600
  Al     0.000000    0.000000    0.000000
  H      1.358660   -0.045440    1.033860
  H     -0.059090   -1.315350   -0.908130
  H     -1.357130    0.075740    1.034880
  H      0.057700    1.288210    3.016230
  H     -0.058610   -1.316130    2.977310
  H      0.057230    1.289280   -0.945940

----------------------------
CARTESIAN COORDINATES (A.U.)
----------------------------
  NO LB      ZA    FRAG     MASS         X           Y           Z
   0 Al   13.0000    0    26.982    0.000000   -0.000000    3.909087
   1 Al   13.0000    0    26.982    0.000000    0.000000    0.000000
   2 H     1.0000    0     1.008    2.567495   -0.085869    1.953712
   3 H     1.0000    0     1.008   -0.111664   -2.485651   -1.716117
   4 H     1.0000    0     1.008   -2.564604    0.143128    1.955640
   5 H     1.0000    0     1.008    0.109037    2.434364    5.699849
   6 H     1.0000    0     1.008   -0.110757   -2.487125    5.626301
   7 H     1.0000    0     1.008    0.108149    2.436386   -1.787568

--------------------------------
INTERNAL COORDINATES (ANGSTROEM)
--------------------------------
 Al     0   0   0     0.000000000000     0.00000000     0.00000000
 Al     1   0   0     2.068600000000     0.00000000     0.00000000
 H      2   1   0     1.707890010744    52.74644099     0.00000000
 H      2   1   3     1.599480336703   124.59456454    90.65666491
 H      1   2   3     1.707663732384    52.74656846   178.72122351
 H      1   2   3     1.600255264325   126.31145359    89.35091558
 H      1   2   3     1.600433432886   124.59625477   269.36571185
 H      2   1   3     1.600100207768   126.24046790   270.62611338

---------------------------
INTERNAL COORDINATES (A.U.)
---------------------------
 Al     0   0   0     0.000000000000     0.00000000     0.00000000
 Al     1   0   0     3.909087480630     0.00000000     0.00000000
 H      2   1   0     3.227444387166    52.74644099     0.00000000
 H      2   1   3     3.022579792961   124.59456454    90.65666491
 H      1   2   3     3.227016783036    52.74656846   178.72122351
 H      1   2   3     3.024044193940   126.31145359    89.35091558
 H      1   2   3     3.024380883726   124.59625477   269.36571185
 H      2   1   3     3.023751179512   126.24046790   270.62611338

---------------------
BASIS SET INFORMATION
---------------------
There are 2 groups of distinct atoms

 Group   1 Type Al  : 10s7p1d contracted to 4s3p1d pattern {5311/511/1}
 Group   2 Type H   : 4s contracted to 2s pattern {31}

Atom   0Al   basis set group =>   1
Atom   1Al   basis set group =>   1
Atom   2H    basis set group =>   2
Atom   3H    basis set group =>   2
Atom   4H    basis set group =>   2
Atom   5H    basis set group =>   2
Atom   6H    basis set group =>   2
Atom   7H    basis set group =>   2
---------------------------------
AUXILIARY/J BASIS SET INFORMATION
---------------------------------
There are 2 groups of distinct atoms

 Group   1 Type Al  : 14s5p5d2f1g contracted to 8s4p3d1f1g pattern {71111111/2111/311/2/1}
 Group   2 Type H   : 5s2p1d contracted to 3s1p1d pattern {311/2/1}

Atom   0Al   basis set group =>   1
Atom   1Al   basis set group =>   1
Atom   2H    basis set group =>   2
Atom   3H    basis set group =>   2
Atom   4H    basis set group =>   2
Atom   5H    basis set group =>   2
Atom   6H    basis set group =>   2
Atom   7H    basis set group =>   2


           ************************************************************
           *        Program running with 24 parallel MPI-processes    *
           *              working on a common directory               *
           ************************************************************
------------------------------------------------------------------------------
                             ORCA STARTUP CALCULATIONS
                           -- RI-GTO INTEGRALS CHOSEN --
------------------------------------------------------------------------------
------------------------------------------------------------------------------
                   ___                                                        
                  /   \      - P O W E R E D   B Y -                         
                 /     \                                                     
                 |  |  |   _    _      __       _____    __    __             
                 |  |  |  | |  | |    /  \     |  _  \  |  |  /  |          
                  \  \/   | |  | |   /    \    | | | |  |  | /  /          
                 / \  \   | |__| |  /  /\  \   | |_| |  |  |/  /          
                |  |  |   |  __  | /  /__\  \  |    /   |      \           
                |  |  |   | |  | | |   __   |  |    \   |  |\   \          
                \     /   | |  | | |  |  |  |  | |\  \  |  | \   \       
                 \___/    |_|  |_| |__|  |__|  |_| \__\ |__|  \__/        
                                                                              
                      - O R C A' S   B I G   F R I E N D -                    
                                      &                                       
                       - I N T E G R A L  F E E D E R -                       
                                                                              
 v1 FN, 2020, v2 2021, v3 2022-2024                                           
------------------------------------------------------------------------------


----------------------
SHARK INTEGRAL PACKAGE
----------------------

Number of atoms                             ...      8
Number of basis functions                   ...     48
Number of shells                            ...     28
Maximum angular momentum                    ...      2
Integral batch strategy                     ... SHARK/LIBINT Hybrid
RI-J (if used) integral strategy            ... SPLIT-RIJ (Revised 2003 algorithm where possible)
Printlevel                                  ...      1
Contraction scheme used                     ... SEGMENTED contraction
Prescreening option                         ... SCHWARTZ
   Thresh                                   ... 1.000e-10
   Tcut                                     ... 1.000e-11
   Tpresel                                  ... 1.000e-11 
Coulomb Range Separation                    ... NOT USED
Exchange Range Separation                   ... NOT USED
Multipole approximations                    ... NOT USED
Finite Nucleus Model                        ... NOT USED
CABS basis                                  ... NOT available
Auxiliary Coulomb fitting basis             ... AVAILABLE
   # of basis functions in Aux-J            ...    168
   # of shells in Aux-J                     ...     64
   Maximum angular momentum in Aux-J        ...      4
Auxiliary J/K fitting basis                 ... NOT available
Auxiliary Correlation fitting basis         ... NOT available
Auxiliary 'external' fitting basis          ... NOT available

Checking pre-screening integrals            ... done (  0.0 sec) Dimension = 28
   => SHARK Basis and OBASIS are compatible. Storing Pre-screening
Shell pair information
Shell pair cut-off parameter TPreSel        ...   1.0e-11
Total number of shell pairs                 ...       406
Shell pairs after pre-screening             ...       405
Total number of primitive shell pairs       ...      1894
Primitive shell pairs kept                  ...      1531
          la=0 lb=0:    209 shell pairs
          la=1 lb=0:    120 shell pairs
          la=1 lb=1:     21 shell pairs
          la=2 lb=0:     40 shell pairs
          la=2 lb=1:     12 shell pairs
          la=2 lb=2:      3 shell pairs

Checking whether 4 symmetric matrices of dimension 48 fit in memory
:Max Core in MB      =   4096.00
 MB in use           =      3.77
 MB left             =   4092.23
 MB needed           =      0.04
 Data fit in memory  = YES
Calculating RI/J V-Matrix + Cholesky decomp.... done (  0.1 sec)
Calculating Nuclear repulsion               ... done (  0.0 sec) ENN=     87.613124514475 Eh

Diagonalization of the overlap matrix:
Smallest eigenvalue                        ... 6.427e-03
Time for diagonalization                   ...    0.025 sec
Threshold for overlap eigenvalues          ... 1.000e-07
Number of eigenvalues below threshold      ... 0
Time for construction of square roots      ...    0.001 sec
Total time needed                          ...    0.031 sec

-------------------
DFT GRID GENERATION
-------------------

General Integration Accuracy     IntAcc      ... 4.388
Radial Grid Type                 RadialGrid  ... OptM3 with GC (2021)
Angular Grid (max. ang.)         AngularGrid ... 4 (Lebedev-302)
Angular grid pruning method      GridPruning ... 4 (adaptive)
Weight generation scheme         WeightScheme... mBecke (2022)
Basis function cutoff            BFCut       ... 1.0000e-10
Integration weight cutoff        WCut        ... 1.0000e-14
Partially contracted basis set               ... off
Rotationally invariant grid construction     ... off
Angular grids for H and He will be reduced by one unit

Total number of grid points                  ...    34270
Total number of batches                      ...      540
Average number of points per batch           ...       63
Average number of grid points per atom       ...     4284
Grids setup in   0.5 sec
Initializing property integral containers    ... done (  0.0 sec)

SHARK setup successfully completed in   0.9 seconds

Maximum memory used throughout the entire STARTUP-calculation: 10.1 MB


           ************************************************************
           *        Program running with 24 parallel MPI-processes    *
           *              working on a common directory               *
           ************************************************************
-------------------------------------------------------------------------------
                                 ORCA GUESS
                   Start orbitals & Density for SCF / CASSCF
-------------------------------------------------------------------------------

------------
SCF SETTINGS
------------
Hamiltonian:
 Density Functional     Method          .... DFT(GTOs)
 Exchange Functional    Exchange        .... PBE
   PBE kappa parameter   XKappa         ....  0.804000
   PBE mue parameter    XMuePBE         ....  0.219520
 Correlation Functional Correlation     .... PBE
   PBE beta parameter  CBetaPBE         ....  0.066725
 LDA part of GGA corr.  LDAOpt          .... PW91-LDA
 Gradients option       PostSCFGGA      .... off
   NL short-range parameter             ....  6.400000
 RI-approximation to the Coulomb term is turned on
   Number of AuxJ basis functions       .... 168


General Settings:
 Integral files         IntName         .... run
 Hartree-Fock type      HFTyp           .... RHF
 Total Charge           Charge          ....    0
 Multiplicity           Mult            ....    1
 Number of Electrons    NEL             ....   32
 Basis Dimension        Dim             ....   48
 Nuclear Repulsion      ENuc            ....     87.6131245145 Eh

Convergence Acceleration:
 AO-DIIS                CNVDIIS         .... on
   Start iteration      DIISMaxIt       ....    12
   Startup error        DIISStart       ....  0.200000
   # of expansion vecs  DIISMaxEq       ....     5
   Bias factor          DIISBfac        ....   1.050
   Max. coefficient     DIISMaxC        ....  10.000
 MO-DIIS                CNVKDIIS        .... off
 Trust-Rad. Augm. Hess. CNVTRAH         .... auto
   Auto Start mean grad. ratio tolernc. ....  1.125000
   Auto Start start iteration           ....    50
   Auto Start num. interpolation iter.  ....    10
   Max. Number of Micro iterations      ....    24
   Max. Number of Macro iterations      .... Maxiter - #DIIS iter
   Number of Davidson start vectors     ....     2
   Converg. threshold    (grad. norm)   ....   5.000e-05
   Grad. Scal. Fac. for Micro threshold ....   0.100
   Minimum threshold for Micro iter.    ....   1.000e-02
   NR start threshold (gradient norm)   ....   1.000e-04
   Initial trust radius                 ....   0.400
   Minimum AH scaling param. (alpha)    ....   1.000
   Maximum AH scaling param. (alpha)    .... 1000.000
   Quad. conv. algorithm                .... NR
   White noise on init. David. guess    .... on
   Maximum white noise                  ....   0.010
   Pseudo random numbers                .... off
   Inactive MOs                         .... canonical
   Orbital update algorithm             .... Taylor
   Preconditioner                       .... Diag
   Full preconditioner red. dimension   ....   250
 SOSCF                 CNVSOSCF           .... on
   Start iteration     SOSCFMaxIt         ....   150
   Startup grad/error  SOSCFStart         ....  0.003300
   Hessian update      SOSCFHessUp        .... L-BFGS
   Autom. constraints  SOSCFAutoConstrain .... off
 Level Shifting         CNVShift        .... on
   Level shift para.    LevelShift      ....    0.2500
   Turn off err/grad.   ShiftErr        ....    0.0010
 Zerner damping         CNVZerner       .... off
 Static damping         CNVDamp         .... on
   Fraction old density DampFac         ....    0.7000
   Max. Damping (<1)    DampMax         ....    0.9800
   Min. Damping (>=0)   DampMin         ....    0.0000
   Turn off err/grad.   DampErr         ....    0.1000

SCF Procedure:
 Maximum # iterations   MaxIter         ....   125
 SCF integral mode      SCFMode         .... Direct
   Integral package                     .... SHARK and LIBINT hybrid scheme
 Reset frequency        DirectResetFreq ....    20
 Integral Threshold     Thresh          ....  1.000e-10 Eh
 Primitive CutOff       TCut            ....  1.000e-11 Eh

Convergence Tolerance:
 Convergence Check Mode ConvCheckMode   .... Total+1el-Energy
 Convergence forced     ConvForced      .... 0
 Energy Change          TolE            ....  1.000e-06 Eh
 1-El. energy change                    ....  1.000e-03 Eh
 Orbital Gradient       TolG            ....  5.000e-05
 Orbital Rotation angle TolX            ....  5.000e-05
 DIIS Error             TolErr          ....  1.000e-05

------------------------------
INITIAL GUESS: MODEL POTENTIAL
------------------------------
Loading Hartree-Fock densities                     ... done
Calculating cut-offs                               ... done
Initializing the effective Hamiltonian             ... done
Setting up the integral package (SHARK)            ... done
Starting the Coulomb interaction                   ... done (   0.0 sec)
Making the grid                                    ... done (   0.1 sec)
Mapping shells                                     ... done
Starting the XC term evaluation                    ... done (   0.0 sec)
  promolecular density results
     # of electrons  =     31.997950220
     EX              =    -37.842758514
     EC              =     -1.100938553
     EX+EC           =    -38.943697067
Transforming the Hamiltonian                       ... done (   0.0 sec)
Diagonalizing the Hamiltonian                      ... done (   0.0 sec)
Back transforming the eigenvectors                 ... done (   0.0 sec)
Now organizing SCF variables                       ... done
                      ------------------
                      INITIAL GUESS DONE (   0.2 sec)
                      ------------------
             **** ENERGY FILE WAS UPDATED (run.en.tmp) ****
Finished Guess after   0.8 sec
Maximum memory used throughout the entire GUESS-calculation: 5.9 MB


           ************************************************************
           *        Program running with 24 parallel MPI-processes    *
           *              working on a common directory               *
           ************************************************************

-------------------------------------------------------------------------------------------
                                      ORCA LEAN-SCF
                              memory conserving SCF solver
-------------------------------------------------------------------------------------------

----------------------------------------D-I-I-S--------------------------------------------
Iteration    Energy (Eh)           Delta-E    RMSDP     MaxDP     DIISErr   Damp  Time(sec)
-------------------------------------------------------------------------------------------
               ***  Starting incremental Fock matrix formation  ***
    1    -487.8849716107280301     0.00e+00  2.05e-02  3.33e-02  6.30e-02  0.700   0.1
    2    -487.8936884394772733    -8.72e-03  2.02e-02  2.80e-02  4.30e-02  0.700   0.1
                               ***Turning on AO-DIIS***
    3    -487.8991957459579680    -5.51e-03  1.20e-02  1.43e-02  2.54e-02  0.700   0.1
    4    -487.9023887647676929    -3.19e-03  2.38e-02  2.83e-02  1.64e-02  0.000   0.1
                              *** Initializing SOSCF ***
---------------------------------------S-O-S-C-F--------------------------------------
Iteration    Energy (Eh)           Delta-E    RMSDP     MaxDP     MaxGrad    Time(sec)
--------------------------------------------------------------------------------------
    5    -487.9086805651683107    -6.29e-03  2.51e-03  3.50e-03  1.34e-03     0.1
               *** Restarting incremental Fock matrix formation ***
    6    -487.9087025729021434    -2.20e-05  1.79e-03  2.56e-03  4.80e-04     0.1
    7    -487.9087042069273821    -1.63e-06  5.83e-04  8.26e-04  3.60e-04     0.1
    8    -487.9087055156377346    -1.31e-06  2.03e-04  4.02e-04  6.35e-05     0.1
    9    -487.9087055659616681    -5.03e-08  8.31e-05  1.29e-04  3.42e-05     0.1
                 **** Energy Check signals convergence ****

               *****************************************************
               *                     SUCCESS                       *
               *           SCF CONVERGED AFTER   9 CYCLES          *
               *****************************************************

             **** ENERGY FILE WAS UPDATED (run.en.tmp) ****

----------------
TOTAL SCF ENERGY
----------------

Total Energy       :       -487.90870558766005 Eh          -13276.67085 eV

Components:
Nuclear Repulsion  :         87.61312451447523 Eh            2384.07432 eV
Electronic Energy  :       -575.52183010213525 Eh          -15660.74517 eV
One Electron Energy:       -851.07175449797944 Eh          -23158.83981 eV
Two Electron Energy:        275.54992439584419 Eh            7498.09464 eV

Virial components:
Potential Energy   :       -974.59890109047319 Eh          -26520.18436 eV
Kinetic Energy     :        486.69019550281320 Eh           13243.51351 eV
Virial Ratio       :          2.00250366680099

DFT components:
N(Alpha)           :       16.000008776562 electrons
N(Beta)            :       16.000008776562 electrons
N(Total)           :       32.000017553125 electrons
E(X)               :      -38.115206974793 Eh       
E(C)               :       -1.099846396837 Eh       
E(XC)              :      -39.215053371630 Eh       

---------------
SCF CONVERGENCE
---------------

  Last Energy change         ...    5.0324e-08  Tolerance :   1.0000e-06
  Last MAX-Density change    ...    1.2884e-04  Tolerance :   1.0000e-05
  Last RMS-Density change    ...    8.3110e-05  Tolerance :   1.0000e-06
  Last DIIS Error            ...    1.3399e-03  Tolerance :   1.0000e-05
  Last Orbital Gradient      ...    3.4248e-05  Tolerance :   5.0000e-05
  Last Orbital Rotation      ...    4.8852e-05  Tolerance :   5.0000e-05


----------------
ORBITAL ENERGIES
----------------

  NO   OCC          E(Eh)            E(eV) 
   0   2.0000     -55.383856     -1507.0713 
   1   2.0000     -55.383632     -1507.0652 
   2   2.0000      -3.951426      -107.5238 
   3   2.0000      -3.950099      -107.4877 
   4   2.0000      -2.560675       -69.6795 
   5   2.0000      -2.558387       -69.6172 
   6   2.0000      -2.557538       -69.5941 
   7   2.0000      -2.553616       -69.4874 
   8   2.0000      -2.551965       -69.4425 
   9   2.0000      -2.551216       -69.4221 
  10   2.0000      -0.509872       -13.8743 
  11   2.0000      -0.382236       -10.4012 
  12   2.0000      -0.345073        -9.3899 
  13   2.0000      -0.295673        -8.0457 
  14   2.0000      -0.281813        -7.6685 
  15   2.0000      -0.255317        -6.9475 
  16   0.0000      -0.076773        -2.0891 
  17   0.0000      -0.056951        -1.5497 
  18   0.0000      -0.052223        -1.4211 
  19   0.0000       0.021262         0.5786 
  20   0.0000       0.025452         0.6926 
  21   0.0000       0.035350         0.9619 
  22   0.0000       0.077113         2.0983 
  23   0.0000       0.102746         2.7959 
  24   0.0000       0.111698         3.0395 
  25   0.0000       0.172198         4.6857 
  26   0.0000       0.205904         5.6029 
*Only the first 10 virtual orbitals were printed.
-------
TIMINGS
-------

Total SCF time: 0 days 0 hours 0 min 1 sec 

Total time                  ....       1.580 sec
Sum of individual times     ....       1.400 sec  ( 88.6%)

SCF preparation             ....       0.625 sec  ( 39.6%)
Fock matrix formation       ....       0.559 sec  ( 35.4%)
  Startup                   ....       0.007 sec  (  1.3% of F)
  Split-RI-J                ....       0.142 sec  ( 25.4% of F)
  XC integration            ....       0.371 sec  ( 66.4% of F)
    XC Preparation          ....       0.000 sec  (  0.0% of XC)
    Basis function eval.    ....       0.059 sec  ( 15.9% of XC)
    Density eval.           ....       0.023 sec  (  6.2% of XC)
    XC-Functional eval.     ....       0.018 sec  (  4.9% of XC)
    XC-Potential eval.      ....       0.023 sec  (  6.3% of XC)
Diagonalization             ....       0.000 sec  (  0.0%)
Density matrix formation    ....       0.041 sec  (  2.6%)
Total Energy calculation    ....       0.020 sec  (  1.3%)
Population analysis         ....       0.000 sec  (  0.0%)
Orbital Transformation      ....       0.019 sec  (  1.2%)
Orbital Orthonormalization  ....       0.000 sec  (  0.0%)
DIIS solution               ....       0.081 sec  (  5.1%)
SOSCF solution              ....       0.054 sec  (  3.4%)
Finished LeanSCF after   1.6 sec

Maximum memory used throughout the entire LEANSCF-calculation: 4.6 MB


           ************************************************************
           *        Program running with 24 parallel MPI-processes    *
           *              working on a common directory               *
           ************************************************************

------------------------------------------------------------------------------
                         ORCA PROPERTY INTEGRAL CALCULATIONS
------------------------------------------------------------------------------

GBWName                                   ... run.gbw
Number of atoms                           ...      8
Number of basis functions                 ...     48
Max core memory                           ...   4096 MB

Dipole integrals                          ... YES
Quadrupole integrals                      ...  NO
Linear momentum integrals                 ...  NO
Angular momentum integrals                ...  NO
Higher moments length integrals           ...  NO
Higher moments velocity integrals         ...  NO
Kinetic energy integrals                  ...  NO
GIAO right hand sides                     ...  NO
GIAO dipole derivative integrals          ...  NO
SOC integrals                             ...  NO
EPR diamagnetic integrals (GIAO)          ...  NO
EPR gauge integrals                       ...  NO
Field gradient integrals                  ...  NO (   0 nuclei)
Spin-dipole/Fermi contact integrals       ...  NO (   0 nuclei)
Contact density integrals                 ...  NO (   0 nuclei)
Nucleus-orbit integrals                   ...  NO (   0 nuclei)
Geometric perturbations                   ...  NO (   8 nuclei)

Choice of electric origin   ... Center of mass
Position of electric origin ... ( -0.0000, -0.0008,  1.9546) 
Choice of magnetic origin   ... GIAO
Position of magnetic origin ... (  0.0000,  0.0000,  0.0000) 

Calculating integrals                     ... Electric Dipole (Length)     done (  0.0 sec)

Property integrals calculated in   0.0 sec

Maximum memory used throughout the entire PROPINT-calculation: 6.1 MB


-------------------------------------------------------------------------------
                          DFT DISPERSION CORRECTION                            
                                                                               
                              DFTD3 V3.1  Rev 1                                
                          USING Becke-Johnson damping                          
-------------------------------------------------------------------------------
The PBE functional is recognized
Active option DFTDOPT                   ...         4   

molecular C6(AA) [au] = 1235.572544 


            DFT-D V3
 parameters
 s6 scaling factor         :     1.0000 
 a1 scaling factor         :     0.4289 
 s8 scaling factor         :     0.7875 
 a2 scaling factor         :     4.4407 
 ad hoc parameters k1-k3   :    16.0000     1.3333    -4.0000 

 Edisp/kcal,au: -2.923478710592  -0.004658859379 
 E6   /kcal   :  -1.864891925 
 E8   /kcal   :  -1.058586786 
 % E8         :  36.209833926 

-------------------------   ----------------
Dispersion correction           -0.004658859
-------------------------   ----------------

------------------   -----------------
gCP correction             0.027215978
------------------   -----------------

-------------------------   --------------------
FINAL SINGLE POINT ENERGY      -487.886148469239
-------------------------   --------------------



           ************************************************************
           *        Program running with 24 parallel MPI-processes    *
           *              working on a common directory               *
           ************************************************************
------------------------------------------------------------------------------
                         ORCA SCF GRADIENT CALCULATION
------------------------------------------------------------------------------

Nuc. rep. gradient        (SHARK) ... done (  0.0 sec)
HCore & Overlap gradient  (SHARK) ... done (  0.0 sec)
Split-RIJ-J gradient      (SHARK) ... done (  0.2 sec)
XC gradient                       ... done (  0.1 sec)
Dispersion correction             ... done (  0.1 sec)

-------------------
DISPERSION GRADIENT
-------------------

   1   Al  :    0.000000013    0.000000027    0.000151015
   2   Al  :   -0.000000000    0.000000198   -0.000150965
   3   H   :    0.000073605   -0.000002262   -0.000000059
   4   H   :   -0.000002816   -0.000062764   -0.000103527
   5   H   :   -0.000073498    0.000004301    0.000000013
   6   H   :    0.000002752    0.000061555    0.000104459
   7   H   :   -0.000002795   -0.000062663    0.000103460
   8   H   :    0.000002739    0.000061609   -0.000104394

Difference to translation invariance:
           :    0.0000000000    0.0000000000    0.0000000000

Difference to rotation invariance:
           :   -0.0000000000    0.0000000000    0.0000000000

Norm of the Dispersion gradient    ...    0.0003393411
RMS gradient                       ...    0.0000692677
MAX gradient                       ...    0.0001510151
gCP correction                   ... done

------------------
CARTESIAN GRADIENT
------------------

   1   Al  :   -0.000076629    0.000364340   -0.152199576
   2   Al  :    0.000072726    0.000169956    0.151997664
   3   H   :    0.007844551   -0.000550547   -0.000069901
   4   H   :    0.000392407    0.008677044   -0.004029812
   5   H   :   -0.007831323    0.000150201    0.000075014
   6   H   :   -0.000392878   -0.008650109    0.003896832
   7   H   :    0.000378901    0.008496893    0.004182634
   8   H   :   -0.000387755   -0.008657778   -0.003852856

Difference to translation invariance:
           :   -0.0000000000   -0.0000000000    0.0000000000

Difference to rotation invariance:
           :    0.0000003110    0.0000002933    0.0000251284

Norm of the Cartesian gradient     ...    0.2162244483
RMS gradient                       ...    0.0441366307
MAX gradient                       ...    0.1521995758

-------
TIMINGS
-------

Total SCF gradient time     ....        0.544 sec

Densities                   ....       0.006 sec  (  1.1%)
One electron gradient       ....       0.021 sec  (  3.9%)
RI-J Coulomb gradient       ....       0.246 sec  ( 45.2%)
XC gradient                 ....       0.123 sec  ( 22.6%)

Maximum memory used throughout the entire SCFGRAD-calculation: 25.8 MB
------------------------------------------------------------------------------
                         ORCA GEOMETRY RELAXATION STEP
------------------------------------------------------------------------------

Reading the OPT-File                    .... done
Getting information on internals        .... done
Copying old internal coords+grads       .... done
Making the new internal coordinates     .... (2022 redundants) done
Validating the new internal coordinates .... (2022 redundants) done
Calculating the B-matrix                .... done
Calculating the G,G- and P matrices     .... done
Transforming gradient to internals      .... done
Projecting the internal gradient        .... done
Number of atoms                         ....   8
Number of internal coordinates          ....  51
Current Energy                          ....  -487.886148469 Eh
Current gradient norm                   ....     0.216224448 Eh/bohr
Maximum allowed component of the step   ....  0.300
Current trust radius                    ....  0.300
Evaluating the initial hessian          ....  (Almloef) done
Projecting the Hessian                  .... done
Forming the augmented Hessian           .... done
Diagonalizing the augmented Hessian     .... done
Last element of RFO vector              ....  0.994308299
Lowest eigenvalues of augmented Hessian:
 -0.009803631  0.043236084  0.064373149  0.105023886  0.138266118
Length of the computed step             ....  0.107150976
The final length of the internal step   ....  0.107150976
Converting the step to Cartesian space:
 Initial RMS(Int)=    0.0150041378
Transforming coordinates:
 Iter   0:  RMS(Cart)=    0.0185911172 RMS(Int)=    0.0149923465
done
Storing new coordinates                 .... done

                                .--------------------.
          ----------------------|Geometry convergence|-------------------------
          Item                value                   Tolerance       Converged
          ---------------------------------------------------------------------
          RMS gradient        0.0162737847            0.0010000000      NO
          MAX gradient        0.0881527263            0.0050000000      NO
          RMS step            0.0150041378            0.0200000000      YES
          MAX step            0.0529091497            0.0300000000      NO
          -------------------------------------------------------------------------
          ........................................................
          Max(Bonds)      0.0280      Max(Angles)    1.86
          Max(Dihed)        1.08      Max(Improp)    0.00
          ---------------------------------------------------------------------

The optimization has not yet converged - more geometry cycles are needed


    ---------------------------------------------------------------------------
                         Redundant Internal Coordinates
                            (Angstroem and degrees)

        Definition                    Value    dE/dq     Step     New-Value
    ----------------------------------------------------------------------------
     1. B(Al  1,Al  0)                2.0686 -0.088153  0.0280    2.0966   
     2. B(H   2,Al  0)                1.7084 -0.013770 -0.0006    1.7078   
     3. B(H   2,Al  1)                1.7079 -0.013854 -0.0005    1.7074   
     4. B(H   3,Al  1)                1.5995 -0.004862  0.0065    1.6059   
     5. B(H   4,Al  1)                1.7084 -0.013798 -0.0006    1.7078   
     6. B(H   4,Al  0)                1.7077 -0.013871 -0.0004    1.7072   
     7. B(H   5,Al  0)                1.6003 -0.004670  0.0062    1.6065   
     8. B(H   6,Al  0)                1.6004 -0.004627  0.0062    1.6066   
     9. B(H   7,Al  1)                1.6001 -0.004712  0.0063    1.6064   
    10. A(H   2,Al  0,H   5)          110.57 -0.004545   -0.21    110.36   
    11. A(Al  1,Al  0,H   5)          126.31  0.004711   -0.92    125.39   
    12. A(H   4,Al  0,H   6)          110.55 -0.004344   -0.17    110.38   
    13. A(H   4,Al  0,H   5)          110.57 -0.004520   -0.21    110.36   
    14. A(Al  1,Al  0,H   4)           52.75  0.013922   -0.61     52.14   
    15. A(H   2,Al  0,H   4)          105.46  0.027798   -1.21    104.25   
    16. A(Al  1,Al  0,H   2)           52.72  0.013878   -0.60     52.12   
    17. A(H   5,Al  0,H   6)          109.09 -0.009223    1.86    110.95   
    18. A(H   2,Al  0,H   6)          110.56 -0.004283   -0.17    110.38   
    19. A(Al  1,Al  0,H   6)          124.60  0.004511   -0.94    123.66   
    20. A(H   4,Al  1,H   7)          110.54 -0.004527   -0.21    110.33   
    21. A(H   2,Al  1,H   3)          110.56 -0.004323   -0.17    110.39   
    22. A(H   3,Al  1,H   4)          110.55 -0.004318   -0.17    110.38   
    23. A(Al  0,Al  1,H   2)           52.75  0.013926   -0.61     52.14   
    24. A(H   2,Al  1,H   4)          105.45  0.027798   -1.21    104.24   
    25. A(Al  0,Al  1,H   4)           52.72  0.013874   -0.60     52.12   
    26. A(Al  0,Al  1,H   3)          124.59  0.004496   -0.94    123.66   
    27. A(Al  0,Al  1,H   7)          126.24  0.004690   -0.91    125.33   
    28. A(H   2,Al  1,H   7)          110.54 -0.004529   -0.21    110.33   
    29. A(H   3,Al  1,H   7)          109.16 -0.009186    1.85    111.02   
    30. A(Al  0,H   2,Al  1)           74.53 -0.027804    1.21     75.74   
    31. A(Al  0,H   4,Al  1)           74.54 -0.027796    1.21     75.74   
    32. D(H   4,Al  1,Al  0,H   2)   -178.72 -0.000186    0.10   -178.62   
    33. D(H   3,Al  1,Al  0,H   4)    -90.62  0.000108   -0.05    -90.67   
    34. D(H   3,Al  1,Al  0,H   2)     90.66 -0.000078    0.05     90.71   
    35. D(H   2,Al  1,Al  0,H   6)    -90.63  0.000066   -0.05    -90.68   
    36. D(H   3,Al  1,Al  0,H   5)   -179.99 -0.000020    0.00   -179.99   
    37. D(H   3,Al  1,Al  0,H   6)      0.02 -0.000012   -0.00      0.02   
    38. D(H   2,Al  1,Al  0,H   5)     89.35  0.000058   -0.05     89.30   
    39. D(H   2,Al  1,Al  0,H   4)    178.72  0.000186   -0.10    178.62   
    40. D(Al  0,H   2,Al  1,H   7)    120.54  0.008699   -1.00    119.54   
    41. D(Al  0,H   2,Al  1,H   4)      1.06  0.000183    0.07      1.13   
    42. D(Al  0,H   2,Al  1,H   3)   -118.46 -0.008710    1.07   -117.39   
    43. D(Al  1,H   2,Al  0,H   6)    118.47  0.008700   -1.07    117.39   
    44. D(Al  1,H   2,Al  0,H   5)   -120.61 -0.008733    1.01   -119.60   
    45. D(Al  1,H   2,Al  0,H   4)     -1.06 -0.000183   -0.07     -1.13   
    46. D(Al  1,H   4,Al  0,H   2)      1.06  0.000183    0.07      1.13   
    47. D(Al  0,H   4,Al  1,H   7)   -120.55 -0.008698    1.00   -119.54   
    48. D(Al  0,H   4,Al  1,H   3)    118.47  0.008703   -1.07    117.39   
    49. D(Al  0,H   4,Al  1,H   2)     -1.06 -0.000183   -0.07     -1.13   
    50. D(Al  1,H   4,Al  0,H   6)   -118.47 -0.008740    1.08   -117.39   
    51. D(Al  1,H   4,Al  0,H   5)    120.61  0.008717   -1.01    119.60   
    ----------------------------------------------------------------------------

Geometry step timings:
Preparation and reading OPT file:      0.000 s ( 0.608 %)
Internal coordinates            :      0.000 s ( 0.624 %)
B/P matrices and projection     :      0.001 s ( 8.631 %)
Hessian update/contruction      :      0.000 s ( 5.092 %)
Making the step                 :      0.005 s (73.259 %)
Converting the step to Cartesian:      0.000 s ( 2.098 %)
Storing new data                :      0.000 s ( 0.897 %)
Checking convergence            :      0.000 s ( 0.737 %)
Final printing                  :      0.001 s ( 8.038 %)
Total time                      :      0.006 s

Time for energy+gradient        :      7.832 s
Time for complete geometry iter :      8.600 s

         *************************************************************
         *                GEOMETRY OPTIMIZATION CYCLE   2            *
         *************************************************************
---------------------------------
CARTESIAN COORDINATES (ANGSTROEM)
---------------------------------
  Al     0.000015   -0.000315    2.082644
  Al    -0.000046   -0.000285   -0.013949
  H      1.347221   -0.044166    1.033994
  H     -0.060032   -1.335649   -0.904038
  H     -1.345667    0.076018    1.034829
  H      0.058578    1.307973    3.013090
  H     -0.059437   -1.336301    2.973030
  H      0.058128    1.309035   -0.942791

----------------------------
CARTESIAN COORDINATES (A.U.)
----------------------------
  NO LB      ZA    FRAG     MASS         X           Y           Z
   0 Al   13.0000    0    26.982    0.000028   -0.000596    3.935628
   1 Al   13.0000    0    26.982   -0.000087   -0.000538   -0.026359
   2 H     1.0000    0     1.008    2.545878   -0.083462    1.953966
   3 H     1.0000    0     1.008   -0.113445   -2.524010   -1.708384
   4 H     1.0000    0     1.008   -2.542942    0.143652    1.955544
   5 H     1.0000    0     1.008    0.110697    2.471711    5.693916
   6 H     1.0000    0     1.008   -0.112320   -2.525242    5.618212
   7 H     1.0000    0     1.008    0.109847    2.473717   -1.781618

--------------------------------
INTERNAL COORDINATES (ANGSTROEM)
--------------------------------
 Al     0   0   0     0.000000000000     0.00000000     0.00000000
 Al     1   0   0     2.096593066783     0.00000000     0.00000000
 H      2   1   0     1.707406520658    52.13623272     0.00000000
 H      2   1   3     1.605943436345   123.65808722    90.70604072
 H      1   2   3     1.707220913126    52.13678994   178.61891382
 H      1   2   3     1.606480079277   125.39234255    89.30305779
 H      1   2   3     1.606604331445   123.65661239   269.31578715
 H      2   1   3     1.606377840605   125.32633824   270.68031604

---------------------------
INTERNAL COORDINATES (A.U.)
---------------------------
 Al     0   0   0     0.000000000000     0.00000000     0.00000000
 Al     1   0   0     3.961986710497     0.00000000     0.00000000
 H      2   1   0     3.226530723315    52.13623272     0.00000000
 H      2   1   3     3.034793281261   123.65808722    90.70604072
 H      1   2   3     3.226179975911    52.13678994   178.61891382
 H      1   2   3     3.035807389434   125.39234255    89.30305779
 H      1   2   3     3.036042192002   123.65661239   269.31578715
 H      2   1   3     3.035614186343   125.32633824   270.68031604



           ************************************************************
           *        Program running with 24 parallel MPI-processes    *
           *              working on a common directory               *
           ************************************************************
------------------------------------------------------------------------------
                   ___                                                        
                  /   \      - P O W E R E D   B Y -                         
                 /     \                                                     
                 |  |  |   _    _      __       _____    __    __             
                 |  |  |  | |  | |    /  \     |  _  \  |  |  /  |          
                  \  \/   | |  | |   /    \    | | | |  |  | /  /          
                 / \  \   | |__| |  /  /\  \   | |_| |  |  |/  /          
                |  |  |   |  __  | /  /__\  \  |    /   |      \           
                |  |  |   | |  | | |   __   |  |    \   |  |\   \          
                \     /   | |  | | |  |  |  |  | |\  \  |  | \   \       
                 \___/    |_|  |_| |__|  |__|  |_| \__\ |__|  \__/        
                                                                              
                      - O R C A' S   B I G   F R I E N D -                    
                                      &                                       
                       - I N T E G R A L  F E E D E R -                       
                                                                              
 v1 FN, 2020, v2 2021, v3 2022-2024                                           
------------------------------------------------------------------------------


----------------------
SHARK INTEGRAL PACKAGE
----------------------

Number of atoms                             ...      8
Number of basis functions                   ...     48
Number of shells                            ...     28
Maximum angular momentum                    ...      2
Integral batch strategy                     ... SHARK/LIBINT Hybrid
RI-J (if used) integral strategy            ... SPLIT-RIJ (Revised 2003 algorithm where possible)
Printlevel                                  ...      1
Contraction scheme used                     ... SEGMENTED contraction
Prescreening option                         ... SCHWARTZ
   Thresh                                   ... 1.000e-10
   Tcut                                     ... 1.000e-11
   Tpresel                                  ... 1.000e-11 
Coulomb Range Separation                    ... NOT USED
Exchange Range Separation                   ... NOT USED
Multipole approximations                    ... NOT USED
Finite Nucleus Model                        ... NOT USED
CABS basis                                  ... NOT available
Auxiliary Coulomb fitting basis             ... AVAILABLE
   # of basis functions in Aux-J            ...    168
   # of shells in Aux-J                     ...     64
   Maximum angular momentum in Aux-J        ...      4
Auxiliary J/K fitting basis                 ... NOT available
Auxiliary Correlation fitting basis         ... NOT available
Auxiliary 'external' fitting basis          ... NOT available

Checking pre-screening integrals            ... done (  0.0 sec) Dimension = 28
   => SHARK Basis and OBASIS are compatible. Storing Pre-screening
Shell pair information
Shell pair cut-off parameter TPreSel        ...   1.0e-11
Total number of shell pairs                 ...       406
Shell pairs after pre-screening             ...       405
Total number of primitive shell pairs       ...      1894
Primitive shell pairs kept                  ...      1531
          la=0 lb=0:    209 shell pairs
          la=1 lb=0:    120 shell pairs
          la=1 lb=1:     21 shell pairs
          la=2 lb=0:     40 shell pairs
          la=2 lb=1:     12 shell pairs
          la=2 lb=2:      3 shell pairs

Checking whether 4 symmetric matrices of dimension 48 fit in memory
:Max Core in MB      =   4096.00
 MB in use           =      3.79
 MB left             =   4092.21
 MB needed           =      0.04
 Data fit in memory  = YES
Calculating RI/J V-Matrix + Cholesky decomp.... done (  0.0 sec)
Calculating Nuclear repulsion               ... done (  0.0 sec) ENN=     86.923369302466 Eh

Diagonalization of the overlap matrix:
Smallest eigenvalue                        ... 6.731e-03
Time for diagonalization                   ...    0.001 sec
Threshold for overlap eigenvalues          ... 1.000e-07
Number of eigenvalues below threshold      ... 0
Time for construction of square roots      ...    0.000 sec
Total time needed                          ...    0.003 sec

-------------------
DFT GRID GENERATION
-------------------

General Integration Accuracy     IntAcc      ... 4.388
Radial Grid Type                 RadialGrid  ... OptM3 with GC (2021)
Angular Grid (max. ang.)         AngularGrid ... 4 (Lebedev-302)
Angular grid pruning method      GridPruning ... 4 (adaptive)
Weight generation scheme         WeightScheme... mBecke (2022)
Basis function cutoff            BFCut       ... 1.0000e-10
Integration weight cutoff        WCut        ... 1.0000e-14
Partially contracted basis set               ... off
Rotationally invariant grid construction     ... off
Angular grids for H and He will be reduced by one unit

Total number of grid points                  ...    34272
Total number of batches                      ...      539
Average number of points per batch           ...       63
Average number of grid points per atom       ...     4284
Grids setup in   0.4 sec
Initializing property integral containers    ... done (  0.0 sec)

SHARK setup successfully completed in   0.6 seconds

Maximum memory used throughout the entire STARTUP-calculation: 10.1 MB


           ************************************************************
           *        Program running with 24 parallel MPI-processes    *
           *              working on a common directory               *
           ************************************************************
Occupation numbers will be reassigned to an Aufbau configuration
             **** ENERGY FILE WAS UPDATED (run.en.tmp) ****
Finished Guess after   0.6 sec
Maximum memory used throughout the entire GUESS-calculation: 6.0 MB


           ************************************************************
           *        Program running with 24 parallel MPI-processes    *
           *              working on a common directory               *
           ************************************************************
----------------------------------------D-I-I-S--------------------------------------------
Iteration    Energy (Eh)           Delta-E    RMSDP     MaxDP     DIISErr   Damp  Time(sec)
-------------------------------------------------------------------------------------------
               ***  Starting incremental Fock matrix formation  ***
    1    -487.9177572226373059     0.00e+00  8.27e-04  1.34e-03  5.66e-03  0.700   0.1
    2    -487.9177757252840593    -1.85e-05  7.64e-04  1.38e-03  3.97e-03  0.700   0.1
                               ***Turning on AO-DIIS***
                              *** Initializing SOSCF ***
---------------------------------------S-O-S-C-F--------------------------------------
Iteration    Energy (Eh)           Delta-E    RMSDP     MaxDP     MaxGrad    Time(sec)
--------------------------------------------------------------------------------------
    3    -487.9177892844322741    -1.36e-05  1.86e-03  3.75e-03  2.78e-03     0.1
               *** Restarting incremental Fock matrix formation ***
    4    -487.9178199595904744    -3.07e-05  2.45e-04  3.16e-04  1.31e-04     0.1
    5    -487.9178201111820954    -1.52e-07  1.17e-04  1.70e-04  4.82e-05     0.1
                 **** Energy Check signals convergence ****

               *****************************************************
               *                     SUCCESS                       *
               *           SCF CONVERGED AFTER   5 CYCLES          *
               *****************************************************

             **** ENERGY FILE WAS UPDATED (run.en.tmp) ****

----------------
TOTAL SCF ENERGY
----------------

Total Energy       :       -487.91782012916565 Eh          -13276.91887 eV

Components:
Nuclear Repulsion  :         86.92336930246630 Eh            2365.30513 eV
Electronic Energy  :       -574.84118943163207 Eh          -15642.22400 eV
One Electron Energy:       -849.72894447409294 Eh          -23122.30009 eV
Two Electron Energy:        274.88775504246092 Eh            7480.07609 eV

Virial components:
Potential Energy   :       -974.56020310524036 Eh          -26519.13133 eV
Kinetic Energy     :        486.64238297607471 Eh           13242.21246 eV
Virial Ratio       :          2.00262089205073

DFT components:
N(Alpha)           :       16.000009658294 electrons
N(Beta)            :       16.000009658294 electrons
N(Total)           :       32.000019316587 electrons
E(X)               :      -38.108159312304 Eh       
E(C)               :       -1.099027948713 Eh       
E(XC)              :      -39.207187261018 Eh       

---------------
SCF CONVERGENCE
---------------

  Last Energy change         ...    1.5159e-07  Tolerance :   1.0000e-06
  Last MAX-Density change    ...    1.7015e-04  Tolerance :   1.0000e-05
  Last RMS-Density change    ...    1.1657e-04  Tolerance :   1.0000e-06
  Last DIIS Error            ...    2.7803e-03  Tolerance :   1.0000e-05
  Last Orbital Gradient      ...    4.8216e-05  Tolerance :   5.0000e-05
  Last Orbital Rotation      ...    9.6284e-05  Tolerance :   5.0000e-05


Total SCF time: 0 days 0 hours 0 min 1 sec 
Finished LeanSCF after   1.1 sec

Maximum memory used throughout the entire LEANSCF-calculation: 4.7 MB


           ************************************************************
           *        Program running with 24 parallel MPI-processes    *
           *              working on a common directory               *
           ************************************************************

------------------------------------------------------------------------------
                         ORCA PROPERTY INTEGRAL CALCULATIONS
------------------------------------------------------------------------------

GBWName                                   ... run.gbw
Number of atoms                           ...      8
Number of basis functions                 ...     48
Max core memory                           ...   4096 MB

Dipole integrals                          ... YES
Quadrupole integrals                      ...  NO
Linear momentum integrals                 ...  NO
Angular momentum integrals                ...  NO
Higher moments length integrals           ...  NO
Higher moments velocity integrals         ...  NO
Kinetic energy integrals                  ...  NO
GIAO right hand sides                     ...  NO
GIAO dipole derivative integrals          ...  NO
SOC integrals                             ...  NO
EPR diamagnetic integrals (GIAO)          ...  NO
EPR gauge integrals                       ...  NO
Field gradient integrals                  ...  NO (   0 nuclei)
Spin-dipole/Fermi contact integrals       ...  NO (   0 nuclei)
Contact density integrals                 ...  NO (   0 nuclei)
Nucleus-orbit integrals                   ...  NO (   0 nuclei)
Geometric perturbations                   ...  NO (   8 nuclei)

Choice of electric origin   ... Center of mass
Position of electric origin ... ( -0.0001, -0.0012,  1.9547) 
Choice of magnetic origin   ... GIAO
Position of magnetic origin ... (  0.0000,  0.0000,  0.0000) 

Calculating integrals                     ... Electric Dipole (Length)     done (  0.0 sec)

Property integrals calculated in   0.0 sec

Maximum memory used throughout the entire PROPINT-calculation: 6.1 MB


-------------------------------------------------------------------------------
                          DFT DISPERSION CORRECTION                            
                                                                               
                              DFTD3 V3.1  Rev 1                                
                          USING Becke-Johnson damping                          
-------------------------------------------------------------------------------
-------------------------   ----------------
Dispersion correction           -0.004647399
-------------------------   ----------------

------------------   -----------------
gCP correction             0.026991095
------------------   -----------------

-------------------------   --------------------
FINAL SINGLE POINT ENERGY      -487.895476432376
-------------------------   --------------------



           ************************************************************
           *        Program running with 24 parallel MPI-processes    *
           *              working on a common directory               *
           ************************************************************
------------------------------------------------------------------------------
                         ORCA SCF GRADIENT CALCULATION
------------------------------------------------------------------------------

Nuc. rep. gradient        (SHARK) ... done (  0.0 sec)
HCore & Overlap gradient  (SHARK) ... done (  0.0 sec)
Split-RIJ-J gradient      (SHARK) ... done (  0.2 sec)
XC gradient                       ... done (  0.1 sec)
Dispersion correction             ... done (  0.1 sec)

-------------------
DISPERSION GRADIENT
-------------------

   1   Al  :    0.000000016    0.000000018    0.000153348
   2   Al  :   -0.000000006    0.000000160   -0.000153313
   3   H   :    0.000072838   -0.000002185   -0.000000047
   4   H   :   -0.000002844   -0.000063337   -0.000103487
   5   H   :   -0.000072729    0.000004311    0.000000010
   6   H   :    0.000002779    0.000062121    0.000104381
   7   H   :   -0.000002817   -0.000063260    0.000103426
   8   H   :    0.000002764    0.000062173   -0.000104319

Difference to translation invariance:
           :    0.0000000000    0.0000000000    0.0000000000

Difference to rotation invariance:
           :    0.0000000000   -0.0000000000    0.0000000000

Norm of the Dispersion gradient    ...    0.0003414568
RMS gradient                       ...    0.0000696996
MAX gradient                       ...    0.0001533485
gCP correction                   ... done

------------------
CARTESIAN GRADIENT
------------------

   1   Al  :   -0.000057919    0.000343565   -0.140984538
   2   Al  :    0.000062173    0.000195997    0.140837426
   3   H   :    0.006887862   -0.000486877   -0.000050212
   4   H   :    0.000294208    0.006502581   -0.004445828
   5   H   :   -0.006880400    0.000131879    0.000056581
   6   H   :   -0.000298269   -0.006536885    0.004321215
   7   H   :    0.000287368    0.006383881    0.004550429
   8   H   :   -0.000295023   -0.006534142   -0.004285074

Difference to translation invariance:
           :    0.0000000000   -0.0000000000    0.0000000000

Difference to rotation invariance:
           :    0.0000001802    0.0000002483    0.0000275685

Norm of the Cartesian gradient     ...    0.2001333100
RMS gradient                       ...    0.0408520408
MAX gradient                       ...    0.1409845377

-------
TIMINGS
-------

Total SCF gradient time     ....        0.458 sec

Densities                   ....       0.000 sec  (  0.1%)
One electron gradient       ....       0.020 sec  (  4.5%)
RI-J Coulomb gradient       ....       0.193 sec  ( 42.2%)
XC gradient                 ....       0.112 sec  ( 24.5%)

Maximum memory used throughout the entire SCFGRAD-calculation: 25.8 MB
------------------------------------------------------------------------------
                         ORCA GEOMETRY RELAXATION STEP
------------------------------------------------------------------------------

Reading the OPT-File                    .... done
Getting information on internals        .... done
Copying old internal coords+grads       .... done
Making the new internal coordinates     .... (2022 redundants) done
Validating the new internal coordinates .... (2022 redundants) done
Calculating the B-matrix                .... done
Calculating the G,G- and P matrices     .... done
Transforming gradient to internals      .... done
Projecting the internal gradient        .... done
Number of atoms                         ....   8
Number of internal coordinates          ....  51
Current Energy                          ....  -487.895476432 Eh
Current gradient norm                   ....     0.200133310 Eh/bohr
Maximum allowed component of the step   ....  0.300
Current trust radius                    ....  0.300
Updating the Hessian (BFGS)             .... done
Forming the augmented Hessian           .... done
Diagonalizing the augmented Hessian     .... done
Last element of RFO vector              ....  0.856728893
Lowest eigenvalues of augmented Hessian:
 -0.053267408  0.043226506  0.064372975  0.105023787  0.120226136
Length of the computed step             ....  0.602018923
Warning: the length of the step is outside the trust region - taking restricted step instead
The input lambda is                     ....     0.042166
   iter:   5  x=   -0.009965  g=   60.199400 f(x)=     1.653670
   iter:  10  x=   -0.190853  g=    0.705811 f(x)=     0.006548
The output lambda is                    ....    -0.191375 (14 iterations)
The final length of the internal step   ....  0.300000000
Converting the step to Cartesian space:
 Initial RMS(Int)=    0.0420084025
Transforming coordinates:
 Iter   0:  RMS(Cart)=    0.0453816070 RMS(Int)=    0.0419389895
done
Storing new coordinates                 .... done
The predicted energy change is          ....    -0.022871184
Previously predicted energy change      ....    -0.004958095
Actually observed energy change         ....    -0.009327963
Ratio of predicted to observed change   ....     1.881360326
New trust radius                        ....     0.200000000

                                .--------------------.
          ----------------------|Geometry convergence|-------------------------
          Item                value                   Tolerance       Converged
          ---------------------------------------------------------------------
          Energy change      -0.0093279631            0.0000800000      NO
          RMS gradient        0.0148623500            0.0010000000      NO
          MAX gradient        0.0807240906            0.0050000000      NO
          RMS step            0.0420084025            0.0200000000      NO
          MAX step            0.1833748993            0.0300000000      NO
          -------------------------------------------------------------------------
          ........................................................
          Max(Bonds)      0.0970      Max(Angles)    4.30
          Max(Dihed)        2.57      Max(Improp)    0.00
          ---------------------------------------------------------------------

The optimization has not yet converged - more geometry cycles are needed


    ---------------------------------------------------------------------------
                         Redundant Internal Coordinates
                            (Angstroem and degrees)

        Definition                    Value    dE/dq     Step     New-Value
    ----------------------------------------------------------------------------
     1. B(Al  1,Al  0)                2.0966 -0.080724  0.0970    2.1936   
     2. B(H   2,Al  0)                1.7078 -0.013015  0.0072    1.7150   
     3. B(H   2,Al  1)                1.7074 -0.013078  0.0075    1.7149   
     4. B(H   3,Al  1)                1.6059 -0.002954  0.0113    1.6172   
     5. B(H   4,Al  1)                1.7078 -0.013035  0.0073    1.7150   
     6. B(H   4,Al  0)                1.7072 -0.013091  0.0076    1.7148   
[...]
     12       0.000000   0.000000   0.000000   0.000000   0.000000   0.000000
     13       0.000000   0.000000   0.000000   0.000000   0.000000   0.000000
     14       0.000000   0.000000   0.000000   0.000000   0.000000   0.000000
     15       0.000000   0.000000   0.000000   0.000000   0.000000   0.000000
     16       0.000000   0.000000   0.000000   0.000000   0.000000   0.000000
     17       0.000000   0.000000   0.000000   0.000000   0.000000   0.000000
     18       0.000000   0.000000   0.000000   0.000000   0.000000   0.000000
     19       0.000000   0.000000   0.000000   0.000000   0.000000   0.000000
     20       0.000000   0.000000   0.000000   0.000000   0.000000   0.000000
     21       0.000000   0.000000   0.000000   0.000000   0.000000   0.000000
     22       0.000000   0.000000   0.000000   0.000000   0.000000   0.000000
     23       0.000000   0.000000   0.000000   0.000000   0.000000   0.000000
                  6          7          8          9         10         11    
      0       0.000143  -0.000115   0.001117   0.003190  -0.060227   0.032427
      1       0.003083  -0.000406  -0.000018   0.058104   0.003267  -0.001435
      2      -0.002283  -0.373864  -0.000045   0.000120   0.000041  -0.000008
      3       0.000145   0.000073  -0.001122  -0.003183   0.060205   0.032463
      4       0.003057  -0.000528   0.000017  -0.058104  -0.003269  -0.001433
      5       0.002291   0.373863   0.000024   0.000099  -0.000028   0.000000
      6       0.013102   0.153493   0.000005   0.000012  -0.000094   0.114869
      7       0.307792  -0.017493  -0.000006  -0.000068  -0.000043  -0.021005
      8       0.000061  -0.000155   0.001502   0.001836  -0.127103  -0.000030
      9      -0.008543   0.000072  -0.494519   0.012648  -0.495999  -0.482312
     10      -0.190022  -0.004625   0.022141   0.169550   0.023889   0.021580
     11       0.410285   0.385587  -0.000054  -0.467968  -0.004660   0.000013
     12       0.014321  -0.154299  -0.000017  -0.000000   0.000032   0.116221
     13       0.307419  -0.003165   0.000046  -0.000142   0.000011   0.009986
     14       0.000045   0.000157  -0.001490  -0.000668   0.127152   0.000050
     15      -0.008914   0.001591  -0.504364  -0.012479   0.482733  -0.501809
     16      -0.199942   0.027431   0.022293  -0.181707  -0.023316   0.022329
     17       0.400683  -0.432364   0.000456   0.464244   0.004551   0.000122
     18      -0.008685  -0.000308   0.494632  -0.012929   0.496318  -0.481951
     19      -0.189910  -0.004490  -0.022034  -0.169200  -0.023827   0.021498
     20      -0.410658  -0.385573  -0.000211  -0.467860  -0.004805   0.000189
     21      -0.008988   0.000561   0.504405   0.012581  -0.482404  -0.502002
     22      -0.199687   0.027337  -0.022405   0.181586   0.023357   0.022367
     23      -0.400619   0.432366   0.000369   0.464549   0.004537  -0.000141
                 12         13         14         15         16         17    
      0       0.000003   0.000019   0.001268   0.001292  -0.030340   0.010702
      1       0.000312  -0.000535  -0.000098   0.029344   0.001348  -0.000477
      2      -0.033620   0.036569  -0.000843  -0.000143  -0.000019   0.000030
      3      -0.000010   0.000010   0.001278   0.001292  -0.030339  -0.010709
      4      -0.000291  -0.000516  -0.000090   0.029349   0.001349   0.000480
      5      -0.033564  -0.036621   0.000808   0.000158  -0.000028   0.000024
      6       0.000020  -0.019158   0.021963  -0.023075   0.701825   0.000828
      7      -0.000342   0.017736   0.612652  -0.635464  -0.021143  -0.000214
      8       0.005973   0.000010   0.000172  -0.000148   0.000618   0.689820
      9      -0.009482  -0.016323  -0.263414  -0.003448   0.054434  -0.106825
     10      -0.218066  -0.224655   0.016767  -0.073187  -0.002388   0.004749
     11       0.449836   0.444810  -0.009900   0.206092  -0.000036   0.000048
     12       0.000021   0.019141  -0.033372  -0.033630   0.700816  -0.000666
     13       0.000305  -0.012735  -0.610319  -0.637107  -0.041227   0.000147
     14       0.006000  -0.000002  -0.000094  -0.000083   0.000780  -0.691307
     15      -0.010029   0.015843   0.234988  -0.002763   0.056382   0.107439
     16      -0.228654   0.235869  -0.015588  -0.076153  -0.002455  -0.004829
     17       0.443331  -0.439982   0.009361   0.199429  -0.000038  -0.000001
     18       0.009798  -0.016320  -0.263291  -0.003518   0.054396   0.106863
     19       0.218127  -0.224085   0.016946  -0.073090  -0.002434  -0.004776
     20       0.450542  -0.444221   0.010469  -0.206156  -0.000040  -0.000005
     21       0.009878   0.016047   0.234975  -0.002735   0.056410  -0.107452
     22       0.228054   0.236002  -0.015439  -0.076094  -0.002538   0.004841
     23       0.442698   0.440774  -0.009071  -0.199543  -0.000024   0.000020
                 18         19         20         21         22         23    
      0      -0.000051   0.000018   0.000018   0.000009  -0.001444   0.001496
      1      -0.000211   0.000207   0.000470   0.000279  -0.032425   0.033638
      2       0.025136  -0.010800  -0.014042  -0.016680  -0.000519   0.000508
      3      -0.000007  -0.000004  -0.000029   0.000024   0.001488   0.001465
      4       0.000204   0.000203  -0.000621   0.000513   0.033259   0.032806
      5       0.025134   0.010805  -0.014661   0.016132  -0.000651  -0.000541
      6       0.000775  -0.706334   0.000128  -0.006707   0.000024   0.000287
      7       0.000136   0.026324  -0.000008   0.000419   0.000064   0.005476
      8      -0.705954   0.000664  -0.039412  -0.000740  -0.000247  -0.000104
      9      -0.001092   0.000395   0.020970  -0.020054  -0.020019  -0.019695
     10      -0.027383   0.009740   0.468548  -0.448216  -0.447126  -0.440572
     11       0.015873   0.001691   0.213398  -0.209499  -0.217454  -0.210972
     12       0.000610   0.705990  -0.000131   0.006719  -0.000023   0.000250
     13       0.000058  -0.036633  -0.000006  -0.000183   0.000074   0.005466
     14      -0.704453  -0.000824  -0.039388  -0.000740  -0.000291  -0.000078
     15      -0.001290  -0.000406   0.019464   0.020288   0.019704  -0.020171
     16      -0.027877  -0.010080   0.436154   0.454625   0.441207  -0.452091
     17       0.016502  -0.000956   0.211189   0.225951   0.227769  -0.230317
     18       0.001149   0.000548  -0.019977  -0.020534   0.019549  -0.020152
     19       0.027374   0.009727  -0.449535  -0.462188   0.439754  -0.453956
     20       0.015893  -0.001684   0.204206   0.215455  -0.213596   0.217124
     21       0.001414  -0.000571  -0.020166   0.019408  -0.020403  -0.019785
     22       0.027886  -0.010062  -0.451112   0.434334  -0.456294  -0.442877
     23       0.016508   0.000955   0.218331  -0.215749   0.235135   0.225235


-----------
IR SPECTRUM
-----------

 Mode   freq       eps      Int      T**2         TX        TY        TZ
       cm**-1   L/(mol*cm) km/mol    a.u.
----------------------------------------------------------------------------
  6:    194.36   0.001928    9.74  0.003095  ( 0.002531  0.055574  0.000051)
  7:    355.70   0.000002    0.01  0.000002  (-0.000059 -0.001291 -0.000002)
  8:    401.98   0.000000    0.00  0.000000  (-0.000015 -0.000002 -0.000081)
  9:    449.85   0.000001    0.00  0.000001  ( 0.000015 -0.000008  0.000804)
 10:    461.85   0.000000    0.00  0.000000  (-0.000054 -0.000010  0.000049)
 11:    598.80   0.041246  208.44  0.021495  ( 0.146461 -0.006669 -0.000020)
 12:    666.10   0.110192  556.86  0.051624  (-0.000031  0.000065 -0.227209)
 13:    705.03   0.000018    0.09  0.000008  ( 0.000029 -0.002820 -0.000167)
 14:    709.33   0.000065    0.33  0.000029  ( 0.005337 -0.000407 -0.000129)
 15:    788.65   0.039905  201.66  0.015790  ( 0.005517  0.125537  0.000046)
 16:   1268.07   0.062074  313.70  0.015276  (-0.123473  0.005505 -0.000230)
 17:   1341.47   0.000000    0.00  0.000000  (-0.000015  0.000009  0.000230)
 18:   1404.26   0.196033  990.67  0.043564  (-0.000092 -0.000035  0.208720)
 19:   1474.53   0.000003    0.02  0.000001  ( 0.000026  0.000806  0.000023)
 20:   1879.18   0.024397  123.29  0.004051  (-0.000020 -0.000245 -0.063650)
 21:   1884.09   0.000017    0.09  0.000003  ( 0.000053  0.001182 -0.001212)
 22:   1898.15   0.000040    0.20  0.000007  ( 0.000068  0.001362 -0.002168)
 23:   1905.65   0.071302  360.33  0.011676  ( 0.004813  0.107950 -0.000089)

* The epsilon (eps) is given for a Dirac delta lineshape.
** The dipole moment derivative (T) already includes vibrational overlap.

The first frequency considered to be a vibration is 6
The total number of vibrations considered is 18


--------------------------
THERMOCHEMISTRY AT 298.15K
--------------------------

Temperature         ...   298.15 K
Pressure            ...     1.00 atm
Total Mass          ...    60.01 AMU
Quasi RRHO          ...     True
Cut-Off Frequency   ...     1.00 cm^-1

Throughout the following assumptions are being made:
  (1) The electronic state is orbitally nondegenerate
  (2) There are no thermally accessible electronically excited states
  (3) Hindered rotations indicated by low frequency modes are not
      treated as such but are treated as vibrations and this may
      cause some error
  (4) All equations used are the standard statistical mechanics
      equations for an ideal gas
  (5) All vibrations are strictly harmonic

freq.     194.36  E(vib)   ...       0.36 
freq.     355.70  E(vib)   ...       0.22 
freq.     401.98  E(vib)   ...       0.19 
freq.     449.85  E(vib)   ...       0.17 
freq.     461.85  E(vib)   ...       0.16 
freq.     598.80  E(vib)   ...       0.10 
freq.     666.10  E(vib)   ...       0.08 
freq.     705.03  E(vib)   ...       0.07 
freq.     709.33  E(vib)   ...       0.07 
freq.     788.65  E(vib)   ...       0.05 
freq.    1268.07  E(vib)   ...       0.01 
freq.    1341.47  E(vib)   ...       0.01 
freq.    1404.26  E(vib)   ...       0.00 
freq.    1474.53  E(vib)   ...       0.00 
freq.    1879.18  E(vib)   ...       0.00 
freq.    1884.09  E(vib)   ...       0.00 
freq.    1898.15  E(vib)   ...       0.00 
freq.    1905.65  E(vib)   ...       0.00 

------------
INNER ENERGY
------------

The inner energy is: U= E(el) + E(ZPE) + E(vib) + E(rot) + E(trans)
    E(el)   - is the total energy from the electronic structure calculation
              = E(kin-el) + E(nuc-el) + E(el-el) + E(nuc-nuc)
    E(ZPE)  - the the zero temperature vibrational energy from the frequency calculation
    E(vib)  - the the finite temperature correction to E(ZPE) due to population
              of excited vibrational states
    E(rot)  - is the rotational thermal energy
    E(trans)- is the translational thermal energy

Summary of contributions to the inner energy U:
Electronic energy                ...   -487.95923174 Eh
Zero point energy                ...      0.04188877 Eh      26.29 kcal/mol
Thermal vibrational correction   ...      0.00237780 Eh       1.49 kcal/mol
Thermal rotational correction    ...      0.00141627 Eh       0.89 kcal/mol
Thermal translational correction ...      0.00141627 Eh       0.89 kcal/mol
-----------------------------------------------------------------------
Total thermal energy                   -487.91213263 Eh


Summary of corrections to the electronic energy:
(perhaps to be used in another calculation)
Total thermal correction                  0.00521034 Eh       3.27 kcal/mol
Non-thermal (ZPE) correction              0.04188877 Eh      26.29 kcal/mol
-----------------------------------------------------------------------
Total correction                          0.04709911 Eh      29.56 kcal/mol


--------
ENTHALPY
--------

The enthalpy is H = U + kB*T
                kB is Boltzmann's constant
Total thermal energy              ...   -487.91213263 Eh 
Thermal Enthalpy correction       ...      0.00094421 Eh       0.59 kcal/mol
-----------------------------------------------------------------------
Total Enthalpy                    ...   -487.91118842 Eh


Note: Only C1 symmetry has been detected, increase convergence thresholds 
      if your molecule has a higher symmetry. Symmetry factor of 1.0 is   
      used for the rotational entropy correction. 
 

Note: Rotational entropy computed according to Herzberg 
Infrared and Raman Spectra, Chapter V,1, Van Nostrand Reinhold, 1945 
Point Group:  C1, Symmetry Number:   1  
Rotational constants in cm-1:     1.494331     0.147377     0.140443 

Vibrational entropy computed according to the QRRHO of S. Grimme
Chem.Eur.J. 2012 18 9955 using a reference frequency of 100.0 cm-1


-------
ENTROPY
-------

The entropy contributions are T*S = T*(S(el)+S(vib)+S(rot)+S(trans))
     S(el)   - electronic entropy
     S(vib)  - vibrational entropy
     S(rot)  - rotational entropy
     S(trans)- translational entropy
The entropies will be listed as multiplied by the temperature to get
units of energy

Electronic entropy                ...      0.00000000 Eh      0.00 kcal/mol
Vibrational entropy               ...      0.00358970 Eh      2.25 kcal/mol
Rotational entropy                ...      0.01115181 Eh      7.00 kcal/mol
Translational entropy             ...      0.01814806 Eh     11.39 kcal/mol
-----------------------------------------------------------------------
Final entropy term                ...      0.03288957 Eh     20.64 kcal/mol

In case the symmetry of your molecule has not been determined correctly
or in case you have a reason to use a different symmetry number we print 
out the resulting rotational entropy values for sn=1,12:

 non-linear molecules -----------------------------------
|  sn= 1 | S(rot)=       0.01115181 Eh      7.00 kcal/mol|
|  sn= 2 | S(rot)=       0.01049735 Eh      6.59 kcal/mol|
|  sn= 3 | S(rot)=       0.01011452 Eh      6.35 kcal/mol|
|  sn= 4 | S(rot)=       0.00984290 Eh      6.18 kcal/mol|
|  sn= 5 | S(rot)=       0.00963221 Eh      6.04 kcal/mol|
|  sn= 6 | S(rot)=       0.00946007 Eh      5.94 kcal/mol|
|  sn= 7 | S(rot)=       0.00931452 Eh      5.84 kcal/mol|
|  sn= 8 | S(rot)=       0.00918844 Eh      5.77 kcal/mol|
|  sn= 9 | S(rot)=       0.00907723 Eh      5.70 kcal/mol|
|  sn=10 | S(rot)=       0.00897775 Eh      5.63 kcal/mol|
|  sn=11 | S(rot)=       0.00888776 Eh      5.58 kcal/mol|
|  sn=12 | S(rot)=       0.00880561 Eh      5.53 kcal/mol|
 linear molecules ---------------------------------------
|  Dinfh | S(rot)=       0.00717919 Eh      4.50 kcal/mol|
|  Cinfv | S(rot)=       0.00783364 Eh      4.92 kcal/mol|
 --------------------------------------------------------


-------------------
GIBBS FREE ENERGY
-------------------

The Gibbs free energy is G = H - T*S

Total enthalpy                    ...   -487.91118842 Eh 
Total entropy correction          ...     -0.03288957 Eh    -20.64 kcal/mol
-----------------------------------------------------------------------
Final Gibbs free energy         ...   -487.94407799 Eh

For completeness - the Gibbs free energy minus the electronic energy
G-E(el)                           ...      0.01515374 Eh      9.51 kcal/mol


Maximum memory used throughout the entire PROP-calculation: 25.9 MB

--------------------------------
SUGGESTED CITATIONS FOR THIS RUN
--------------------------------

Below you find a list of papers that are relevant to this ORCA run
We neither can nor want to force you to cite these papers, but we appreciate if you do
You receive ORCA, which is the product of decades of hard work by many enthusiastic individuals, for free
The only thing we kindly ask in return is that you cite our papers,
We deeply appreciate it, if you show your appreciation for ORCA by not just citing the generic ORCA reference.

Please note that relegating all ORCA citations to the supporting information does *not* help us.
SI sections are not indexed - citations you put there will not count into any citation statistics
But we need these citations in order to attract the funding resources that allow us to do what we are doing

Therefore, if you are a happy ORCA user, please consider citing a few of the papers listed below in the main body of your paper

In addition to the list printed below, the program has created the file run.bibtex that contains the list in bibtex format
You can import this file easily into all common literature databanks and citation aid programs


List of essential papers. We consider these as the minimum necessary citations

  1. Neese, F.
     Software update: the ORCA program system, version 6.0
     WIRES Comput. Molec. Sci. 2025 15(1), e70019
     doi.org/10.1002/wcms.7019

List of papers to cite with high priority. The work reported in these papers was absolutely
necessary for this run to complete.
Our perspective: the developers of density functionals and basis sets usually get cited in chemistry papers
Good! But without the algorithms to do something with them, the functionals or basis sets would not do anything.
Hence, in our opinion, the algorithm design and method developments papers are equally worthy of getting cited

  1. Neese, F.
     An improvement of the resolution of the identity approximation for the formation of the Coulomb matrix
     J. Comp. Chem. 2003 24(14), 1740-1747
     doi.org/10.1002/jcc.10318
  2. Grimme, S.; Antony, J.; Ehrlich, S.; Krieg, H.
     A consistent and accurate ab initio parametrization of density functional dispersion correction (DFT-D) for the 94 elements H-Pu
     J. Chem. Phys. 2010 132 , 154104
     doi.org/10.1063/1.3382344
  3. Grimme, S.; Ehrlich, S.; Goerigk, L.
     Effect of the damping function in dispersion corrected density functional theory
     J. Comput. Chem. 2011 32(7), 1456-1465
     doi.org/10.1002/jcc.21759
  4. Bykov, D.; Petrenko, T.; Izsak, R.; Kossmann, S.; Becker, U.; Valeev, E.; Neese, F.
     Efficient implementation of the analytic second derivatives of Hartree-Fock and hybrid DFT energies: a detailed analysis of different approximations
     Molec. Phys. 2015 113 , 1961-1977
     doi.org/10.1080/00268976.2015.1025114
  5. Neese, F.
     The SHARK Integral Generation and Digestion System
     J. Comp. Chem. 2022 44(3), 381
     doi.org/10.1002/jcc.26942

List of suggested additional citations. These are papers that are important in the 'surrounding' of 
of this run, or papers that preceded the highly important papers. If you like your results we are grateful for a citation.

  1. Neese, F.
     The ORCA program system
     WIRES Comput. Molec. Sci. 2012 2(1), 73-78
     doi.org/10.1002/wcms.81
  2. Neese, F.
     Software update: the ORCA program system, version 4.0
     WIRES Comput. Molec. Sci. 2018 8(1), 1-6
     doi.org/10.1002/wcms.1327
  3. Neese, F.; Wennmohs, F.; Becker, U.; Riplinger, C.
     The ORCA quantum chemistry program package
     J. Chem. Phys. 2020 152(22), 224108
     doi.org/10.1063/5.0004608
  4. Neese, F.
     Software update: The ORCA program system—Version 5.0
     WIRES Comput. Molec. Sci. 2022 12(1), e1606
     doi.org/10.1002/wcms.1606

List of optional additional citations

  1. Neese, F.
     Approximate second-order SCF convergence for spin unrestricted wavefunctions
     Chem. Phys. Lett. 2000 325(1-3), 93-98
     doi.org/10.1016/s0009-2614(00)00662-x

Timings for individual modules:

Sum of individual times          ...       56.015 sec (=   0.934 min)
Startup calculation              ...       12.945 sec (=   0.216 min)  23.1 %
SCF iterations                   ...       20.669 sec (=   0.344 min)  36.9 %
Property integrals               ...        8.177 sec (=   0.136 min)  14.6 %
SCF Response                     ...        1.267 sec (=   0.021 min)   2.3 %
Property calculations            ...        2.266 sec (=   0.038 min)   4.0 %
SCF Gradient evaluation          ...       10.598 sec (=   0.177 min)  18.9 %
Geometry relaxation              ...        0.093 sec (=   0.002 min)   0.2 %
                             ****ORCA TERMINATED NORMALLY****
TOTAL RUN TIME: 0 days 0 hours 1 minutes 4 seconds 104 msec
