
                                 *****************
                                 * O   R   C   A *
                                 *****************

                                            #,                                       
                                            ###                                      
                                            ####                                     
                                            #####                                    
                                            ######                                   
                                           ########,                                 
                                     ,,################,,,,,                         
                               ,,#################################,,                 
                          ,,##########################################,,             
                       ,#########################################, ''#####,          
                    ,#############################################,,   '####,        
                  ,##################################################,,,,####,       
                ,###########''''           ''''###############################       
              ,#####''   ,,,,##########,,,,          '''####'''          '####       
            ,##' ,,,,###########################,,,                        '##       
           ' ,,###''''                  '''############,,,                           
         ,,##''                                '''############,,,,        ,,,,,,###''
      ,#''                                            '''#######################'''  
     '                                                          ''''####''''         
             ,#######,   #######,   ,#######,      ##                                
            ,#'     '#,  ##    ##  ,#'     '#,    #''#        ,####,    ,#,          
            ##       ##  ##   ,#'  ##            #'  '#       #'       ,# #          
            ##       ##  #######   ##           ,######,      #####,      #          
            '#,     ,#'  ##    ##  '#,     ,#' ,#      #,     #,   #      #          
             '#######'   ##     ##  '#######'  #'      '#     '####' #    #          



                #########################################################
                #                        -***-                          #
                #          Department of theory and spectroscopy        #
                #                                                       #
                #                      Frank Neese                      #
                #                                                       #
                #     Directorship, Architecture, Infrastructure        #
                #                    SHARK, DRIVERS                     #
                #        Core code/Algorithms in most modules           #
                #                                                       #
                #        Max Planck Institute fuer Kohlenforschung      #
                #                Kaiser Wilhelm Platz 1                 #
                #                 D-45470 Muelheim/Ruhr                 #
                #                      Germany                          #
                #                                                       #
                #                  All rights reserved                  #
                #                        -***-                          #
                #########################################################


                         Program Version 6.1.0  -  RELEASE   -
                                (GIT: $679e74b$)
                          ($2025-06-10 18:02:51 +0200$)


 With contributions from (in alphabetic order):
[Max-Planck-Institut fuer Kohlenforschung]                               
  Daniel Aravena         : Magnetic Suceptibility                        
  Michael Atanasov       : Ab Initio Ligand Field Theory (pilot matlab implementation)
  Alexander A. Auer      : GIAO ZORA, VPT2 properties, NMR spectrum      
  Ute Becker             : All parallelization in ORCA, NUMFREQ, NUMCALC 
  Giovanni Bistoni       : ED, misc. LED, open-shell LED, HFLD           
  Dmytro Bykov           : pre 5.0 version of the SCF Hessian            
  Marcos Casanova-Páez   : Triplet and SCS-CIS(D). UHF-(DLPNO)-IP/EA/STEOM-CCSD. UHF-CVS-IP/STEOM-CCSD   
  Vijay G. Chilkuri      : MRCI spin determinant printing, contributions to CSF-ICE 
  Pauline Colinet        : FMM embedding                                 
  Dipayan Datta          : RHF DLPNO-CCSD density                        
  Achintya Kumar Dutta   : EOM-CC, STEOM-CC                              
  Nicolas Foglia         : Exact transition moments, OPA infrastructure, MCD improvements    
  Dmitry Ganyushin       : Spin-Orbit,Spin-Spin,Magnetic field MRCI      
  Miquel Garcia-Rates    : C-PCM and meta-GGA Hessian, CCSD/C-PCM, Gaussian charge scheme 
  Tiago L. C. Gouveia    : GS-ROHF, GS-ROCIS                             
  Yang Guo               : DLPNO-NEVPT2, F12-NEVPT2, CIM, IAO-localization        
  Andreas Hansen         : Spin unrestricted coupled pair/coupled cluster methods 
  Ingolf Harden          : AUTO-CI MPn and infrastructure                
  Benjamin Helmich-Paris : MC-RPA, TRAH-(SCF,CASSCF), AVAS, COSX integrals, SCF dyn. polar., MC-PDFT, srDFT 
  Lee Huntington         : MR-EOM, pCC                                   
  Robert Izsak           : Overlap fitted RIJCOSX, COSX-SCS-MP3, EOM     
  Riya Kayal             : Wick's Theorem for AUTO-CI, AUTO-CI UHF-CCSDT 
  Emily Kempfer          : AUTO-CI RHF CISDT and CCSDT, approximate NEVPT4
  Christian Kollmar      : KDIIS, OOCD, Brueckner-CCSD(T), CCSD density, CASPT2, CASPT2-K, improved NEVPT2 
  Axel Koslowski         : Symmetry handling                             
  Simone Kossmann        : meta-GGA functionals, TD-DFT gradient, OOMP2, (MP2 Hessian; deprecated post 5.0) 
  Lucas Lang             : DCDCAS, Hyperfine gauge corrections, ICE-SOC+SSC
  Marvin Lechner         : AUTO-CI (C++ implementation), FIC-MRCC        
  Spencer Leger          : CASSCF response                               
  Dagmar Lenk            : GEPOL surface, SMD, ORCA-2-JSON               
  Dimitrios Liakos       : Extrapolation schemes; Compound Job, Property file
  Dimitrios Manganas     : Further ROCIS development; embedding schemes. LFT, Crystal Embedding 
  Dimitrios Pantazis     : SARC Basis sets                               
  Anastasios Papadopoulos: AUTO-CI, single reference methods and gradients 
  Taras Petrenko         : pre 6.0 DFT Hessian and TD-DFT gradient,  ECA, NRVS 
  Petra Pikulova         : Analytic Raman intensities                    
  Peter Pinski           : DLPNO-MP2, DLPNO-MP2 Gradient                 
  Shashank Vittal Rao    : ES-AILFT, MagRelax                            
  Christoph Reimann      : Effective Core Potentials                     
  Marius Retegan         : Local ZFS, SOC                                
  Christoph Riplinger    : Optimizer, TS searches, QM/MM, DLPNO-CCSD(T), (RO)-DLPNO pert. Triples 
  Michael Roemelt        : Original ROCIS implementation, recursive CI coupling coefficients
  Masaaki Saitow         : Open-shell DLPNO-CCSD energy and density      
  Barbara Sandhoefer     : DKH picture change effects                    
  Yorick L. A. Schmerwitz: GMF and freeze-and-release deltaSCF, NEB S-IDPP initial path                    
  Kantharuban Sivalingam : CASSCF convergence/infrastructure, NEVPT2, NEVPT3, NEVPT4(SD), FIC-MRCI and CEPA variants
  Bernardo de Souza      : ESD, SOC TD-DFT                               
  Georgi L. Stoychev     : AutoAux, RI-MP2 NMR, DLPNO-MP2 response, X2C  
  Van Anh Tran           : RI-MP2 g-tensors                              
  Willem Van den Heuvel  : Paramagnetic NMR                              
  Zikuan Wang            : NOTCH, Electric field optimization            
  Frank Wennmohs         : Technical directorship and infrastructure     
  Hang Xu                : AUTO-CI-Response properties                   
                                                                         
[FACCTs GmbH]                                                            
  Markus Bursch, Nicolas Foglia, Miquel Garcia-Rates, Ingolf Harden, Hagen Neugebauer, Anastasios Papadopoulos, 
  Christoph Riplinger, Bernardo de Souza, Georgi L. Stoychev                                                    
                                                                 
  APM, various basis sets, CI-OPT, improved COSX, DLPNO-Multilevel,           
  DOCKER, DRACO, updates on ESD, Fragmentator, GOAT, IRC, LR-CPCM, L-BFGS, MBIS, meta-GGA TD-DFT gradient, ML-optimized integration grids, 
  MM, NACMEs, nearIR, NEB, NEB-TS, NL-DFT gradient (VV10), 2- and 3-layer-ONIOM, interface openCOSMO-RS, QMMM,   
  Crystal-QMMM, RESP, rigid body optimization, SF, symmetry and pop. for TD-DFT, various functionals, SOLVATOR                                   
                                                                         
[Other institutions]                                                     
  V. Asgeirsson          : NEB                                           
  Christoph Bannwarth    : sTDA-DFT, sTD-DFT, PBEh-3c, B97-3c, D3        
  Giovanni Bistoni       : ETS/NOCV, ADLD/ADEX, COVALED                  
  Martin Brehm           : Molecular dynamics                            
  Ronald Cardenas        : ETS/NOCV                                      
  Martina Colucci        : COVALED                                       
  Sebastian Ehlert       : rSCAN, r2SCAN, r2SCAN-3c, D4, dhf basis sets  
  Marvin Friede          : D4 for Fr, Ra, Ac-Lr                          
  Lars Goerigk           : TD-DFT with DH, B97 family of functionals     
  Stefan Grimme          : VdW corrections, initial TS optimization, DFT functionals, gCP, sTDA/sTD-DF 
  Waldemar Hujo          : DFT-NL                                        
  H. Jonsson             : NEB                                           
  Holger Kruse           : gCP                                           
  Marcel Mueller         : wB97X-3c, vDZP basis set                      
  Hagen Neugebauer       : wr2SCAN, Native XTB                           
  Gianluca Regni         : ADLD/ADEX                                     
  Tobias Risthaus        : pre 6.0 range-separated hybrid DFT and stability analysis
  Lukas Wittmann         : regularized MP2, r2SCAN double-hybrids, wr2SCAN        
                                                                         
We gratefully acknowledge several colleagues who have allowed us to      
interface, adapt or use parts of their codes:                            
  Ed Valeev, F. Pavosevic, A. Kumar             : LibInt (2-el integral package), F12 methods 
  Garnet Chan, S. Sharma, J. Yang, R. Olivares  : DMRG                   
  Ulf Ekstrom                                   : XCFun DFT Library      
  Mihaly Kallay                                 : mrcc  (arbitrary order and MRCC methods)
  Frank Weinhold                                : gennbo (NPA and NBO analysis)           
  Simon Mueller                                 : openCOSMO-RS                            
  Christopher J. Cramer and Donald G. Truhlar   : smd solvation model                     
  S Lehtola, MJT Oliveira, MAL Marques          : LibXC Library                           
  Liviu Ungur et al                             : ANISO software                          


 Your calculation uses the libint2 library for the computation of 2-el integrals
 For citations please refer to: http://libint.valeyev.net

 Your ORCA version has been built with support for libXC version: 7.0.0
 For citations please refer to: https://libxc.gitlab.io

 This ORCA versions uses:
   CBLAS   interface :  Fast vector & matrix operations
   LAPACKE interface :  Fast linear algebra routines
   SCALAPACK package :  Parallel linear algebra routines
   Shared memory     :  Shared parallel matrices
   BLAS/LAPACK       :  OpenBLAS 0.3.29  USE64BITINT DYNAMIC_ARCH NO_AFFINITY Zen SINGLE_THREADED
        Core in use  :  Zen
   Copyright (c) 2011-2014, The OpenBLAS Project


  ***********************************
  * Starting time: Wed Jun 25 11:37:05 2025
  * Host name:     gadolinium01
  * Process ID:    2160560
  * Working dir.:  /local/scratch/mehlhorn/61315
  ***********************************

================================================================================

----- Orbital basis set information -----
Your calculation utilizes the basis: def2-SVP
   F. Weigend and R. Ahlrichs, Phys. Chem. Chem. Phys. 7, 3297 (2005).

The basis set includes element-specific modifications.

----- AuxJ basis set information -----
Your calculation utilizes the auxiliary basis: def2/J
   H-Rn: F. Weigend, Phys. Chem. Chem. Phys. 8, 1057 (2006).
   Fr-Lr: K. Eichkorn, F. Weigend, O. Treutler, R. Ahlrichs; Theor. Chem. Acc. 97, 119 (1997).

The basis set includes element-specific modifications.

================================================================================
                                        WARNINGS
                       Please study these warnings very carefully!
================================================================================

WARNING: Frozen-Core approximation turned on, but there are no core electrons.
  ===> : Turning off frozen-core approximation


WARNING: ROHF and Conv is not properly working
  ===> : Setting Mode to Direct


WARNING: Found SCFConvIgnored == true
  ===> : Will try to continue after any unconverged SCF -
         no matter how far from convergence the wavefunction might be.

         Please be very careful with your results!


WARNING: TRAH-SCF with ROHF wave function is not implemented yet
  ===> : Turning TRAH off


================================================================================
                                       INPUT FILE
================================================================================
NAME = run_atom40.inp
|  1> # input to generate an atomic fitting density for Zr
|  2> # this file is used internally by ORCA
|  3> #
|  4> # atomic ground state (Mult=3): 1s2 2s2 2p6 3s2 3p6 4s2 3d10 4p6 4d2 5s2 
|  5> #
|  6> ! ROHF def2-SVP def2/J Conv LeanSCF AODIIS SOSCF NoMulliken NoLoewdin NoMayer NoPrintMOs 
|  7> 
|  8> %output print[p_atomdensfit] 2 end
|  9> 
| 10> %scf
| 11>   guess     HCore
| 12>   maxiter    1000
| 13>   maxdisk  500000
| 14>   diismaxeq     8
| 15>   soscfstart 1e-4
| 16>   lshift  0.300000
| 17>   ignoreconv true
| 18> 
| 19>   hftyp        rohf
| 20>   rohf_case    sahf
| 21>   rohf_numop   3
| 22>   rohf_norb[1] 5,1
| 23>   rohf_nel[1]  2,2
| 24> 
| 25> end
| 26> 
| 27> %basis
| 28>   NewECP 40
| 29>     N_core 28
| 30>     lmax f
| 31>     s 4
| 32>       1       8.2000000000    150.2675911000  2
| 33>       2       4.0897278000     18.9762165000  2
| 34>       3       7.5400000000     21.0937760000  2
| 35>       4       3.7700000000      3.0806943000  2
| 36>     p 4
| 37>       1       7.1100000000     99.6221237000  2
| 38>       2       3.5967980000     14.1687333000  2
| 39>       3       7.5400000000     21.0937760000  2
| 40>       4       3.7700000000      3.0806943000  2
| 41>     d 4
| 42>       1       5.3500000000     35.0451235000  2
| 43>       2       2.4918215000      6.1112595000  2
| 44>       3       7.5400000000     21.0937760000  2
| 45>       4       3.7700000000      3.0806943000  2
| 46>     f 2
| 47>       1       7.5400000000    -21.0937760000  2
| 48>       2       3.7700000000     -3.0806943000  2
| 49>   end
| 50>   NewGTO 40
| 51>     s 3 
| 52>      1       5.8737890000      0.9717450200
| 53>      2       4.2872700000     -1.7058213661
| 54>      3       1.4641370000     -0.2454443851
| 55>     s 1 
| 56>      1       0.8372768234      1.0000000000
| 57>     s 1 
| 58>      1       0.3684980651      1.0000000000
| 59>     s 1 
| 60>      1       0.0778068591      1.0000000000
| 61>     s 1 
| 62>      1       0.0302730883      1.0000000000
| 63>     p 4 
| 64>      1       2.8742240000     -0.4817495790
| 65>      2       2.1199010000      0.4740935833
| 66>      3       0.7884582111      0.6081158782
| 67>      4       0.3633257985      0.3701379789
| 68>     p 1 
| 69>      1       0.1495176202      1.0000000000
| 70>     p 1 
| 71>      1       0.0300000000      1.0000000000
| 72>     d 4 
| 73>      1       4.2898623878     -0.0135480233
| 74>      2       1.3615557498      0.2184527100
| 75>      3       0.5693755069      0.4665574703
| 76>      4       0.2267494868      0.4743138206
| 77>     d 1 
| 78>      1       0.0830110316      1.0000000000
| 79>   end
| 80>   NewAuxGTO 40
| 81>     S 1
| 82>      1 1310.72 1.0
| 83>     S 1
| 84>      1  655.36 1.0
| 85>     S 1
| 86>      1  327.68 1.0
| 87>     S 1
| 88>      1  163.84 1.0
| 89>     S 1
| 90>      1   81.82 1.0
| 91>     S 1
| 92>      1   40.96 1.0
| 93>     S 1
| 94>      1   20.48 1.0
| 95>     S 1
| 96>      1   10.24 1.0
| 97>     S 1
| 98>      1    5.12 1.0
| 99>     S 1
|100>      1    2.56 1.0
|101>     S 1
|102>      1    1.28 1.0
|103>     S 1
|104>      1    0.64 1.0
|105>     S 1
|106>      1    0.32 1.0
|107>     S 1
|108>      1    0.16 1.0
|109>     S 1
|110>      1    0.08 1.0
|111>     S 1
|112>      1    0.04 1.0
|113>     S 1
|114>      1    0.02 1.0
|115>     S 1
|116>      1    0.01 1.0
|117>   end
|118> end
|119> 
|120> * xyz 0 3
|121> 40  0.0 0.0 0.0
|122> *
|123> 
|124> 
|125>                          ****END OF INPUT****
================================================================================

                       ****************************
                       * Single Point Calculation *
                       ****************************

---------------------------------
CARTESIAN COORDINATES (ANGSTROEM)
---------------------------------
  Zr     0.000000    0.000000    0.000000

----------------------------
CARTESIAN COORDINATES (A.U.)
----------------------------
  NO LB      ZA    FRAG     MASS         X           Y           Z
   0 Zr   12.0000*   0    91.220    0.000000    0.000000    0.000000
* core charge reduced due to ECP

--------------------------------
INTERNAL COORDINATES (ANGSTROEM)
--------------------------------
 Zr     0   0   0     0.000000000000     0.00000000     0.00000000

---------------------------
INTERNAL COORDINATES (A.U.)
---------------------------
 Zr     0   0   0     0.000000000000     0.00000000     0.00000000

---------------------
BASIS SET INFORMATION
---------------------
There are 1 groups of distinct atoms

 Group   1 Type Zr  : 7s6p5d contracted to 5s3p2d pattern {31111/411/41}

Atom   0Zr   basis set group =>   1
---------------------------------
AUXILIARY/J BASIS SET INFORMATION
---------------------------------
There are 1 groups of distinct atoms

 Group   1 Type Zr  : 18s contracted to 18s pattern {111111111111111111}

Atom   0Zr   basis set group =>   1
-------------------------
ECP PARAMETER INFORMATION
-------------------------

 Group 1, Type Zr ECP (replacing 28 core electrons, lmax=3)

Atom   0Zr   ECP group =>   1

------------------------------------------------------------------------------
                             ORCA STARTUP CALCULATIONS
------------------------------------------------------------------------------
------------------------------------------------------------------------------
                   ___                                                        
                  /   \      - P O W E R E D   B Y -                         
                 /     \                                                     
                 |  |  |   _    _      __       _____    __    __             
                 |  |  |  | |  | |    /  \     |  _  \  |  |  /  |          
                  \  \/   | |  | |   /    \    | | | |  |  | /  /          
                 / \  \   | |__| |  /  /\  \   | |_| |  |  |/  /          
                |  |  |   |  __  | /  /__\  \  |    /   |      \           
                |  |  |   | |  | | |   __   |  |    \   |  |\   \          
                \     /   | |  | | |  |  |  |  | |\  \  |  | \   \       
                 \___/    |_|  |_| |__|  |__|  |_| \__\ |__|  \__/        
                                                                              
                      - O R C A' S   B I G   F R I E N D -                    
                                      &                                       
                       - I N T E G R A L  F E E D E R -                       
                                                                              
 v1 FN, 2020, v2 2021, v3 2022-2024                                           
------------------------------------------------------------------------------


----------------------
SHARK INTEGRAL PACKAGE
----------------------

Number of atoms                             ...      1
Number of basis functions                   ...     24
Number of shells                            ...     10
Maximum angular momentum                    ...      2
Integral batch strategy                     ... SHARK/LIBINT Hybrid
RI-J (if used) integral strategy            ... SPLIT-RIJ (Revised 2003 algorithm where possible)
Printlevel                                  ...      1
Contraction scheme used                     ... SEGMENTED contraction
Prescreening option                         ... SCHWARTZ
   Thresh                                   ... 1.000e-10
   Tcut                                     ... 1.000e-11
   Tpresel                                  ... 1.000e-11 
Coulomb Range Separation                    ... NOT USED
Exchange Range Separation                   ... NOT USED
Multipole approximations                    ... NOT USED
Finite Nucleus Model                        ... NOT USED
CABS basis                                  ... NOT available
Auxiliary Coulomb fitting basis             ... AVAILABLE
   # of basis functions in Aux-J            ...     18
   # of shells in Aux-J                     ...     18
   Maximum angular momentum in Aux-J        ...      0
Auxiliary J/K fitting basis                 ... NOT available
Auxiliary Correlation fitting basis         ... NOT available
Auxiliary 'external' fitting basis          ... NOT available

Checking pre-screening integrals            ... done (  0.0 sec) Dimension = 10
   => SHARK Basis and OBASIS are compatible. Storing Pre-screening
Shell pair information
Shell pair cut-off parameter TPreSel        ...   1.0e-11
Total number of shell pairs                 ...        55
Shell pairs after pre-screening             ...        55
Total number of primitive shell pairs       ...       186
Primitive shell pairs kept                  ...       186
          la=0 lb=0:     15 shell pairs
          la=1 lb=0:     15 shell pairs
          la=1 lb=1:      6 shell pairs
          la=2 lb=0:     10 shell pairs
          la=2 lb=1:      6 shell pairs
          la=2 lb=2:      3 shell pairs

Checking whether 4 symmetric matrices of dimension 24 fit in memory
:Max Core in MB      =   4096.00
 MB in use           =      1.24
 MB left             =   4094.76
 MB needed           =      0.01
 Data fit in memory  = YES
Calculating RI/J V-Matrix + Cholesky decomp.... done (  0.0 sec)
Calculating Nuclear repulsion               ... done (  0.0 sec) ENN=      0.000000000000 Eh

Diagonalization of the overlap matrix:
Smallest eigenvalue                        ... 2.348e-02
Time for diagonalization                   ...    0.013 sec
Threshold for overlap eigenvalues          ... 1.000e-07
Number of eigenvalues below threshold      ... 0
Time for construction of square roots      ...    0.000 sec
Total time needed                          ...    0.013 sec

-------------------
DFT GRID GENERATION
-------------------

General Integration Accuracy     IntAcc      ... 4.388
Radial Grid Type                 RadialGrid  ... OptM3 with GC (2021)
Angular Grid (max. ang.)         AngularGrid ... 4 (Lebedev-302)
Angular grid pruning method      GridPruning ... 4 (adaptive)
Weight generation scheme         WeightScheme... mBecke (2022)
Basis function cutoff            BFCut       ... 1.0000e-10
Integration weight cutoff        WCut        ... 1.0000e-14
Partially contracted basis set               ... off
Rotationally invariant grid construction     ... off
Angular grids for H and He will be reduced by one unit

Total number of grid points                  ...    11810
Total number of batches                      ...      185
Average number of points per batch           ...       63
Average number of grid points per atom       ...    11810
Grids setup in   0.5 sec
Initializing property integral containers    ... done (  0.0 sec)

SHARK setup successfully completed in   0.7 seconds

Maximum memory used throughout the entire STARTUP-calculation: 6.3 MB
-------------------------------------------------------------------------------
                                 ORCA GUESS
                   Start orbitals & Density for SCF / CASSCF
-------------------------------------------------------------------------------

------------
SCF SETTINGS
------------
Hamiltonian:
 Ab initio Hamiltonian  Method          .... Hartree-Fock(GTOs)


General Settings:
 Integral files         IntName         .... run_atom40
 Hartree-Fock type      HFTyp           .... ROHF
 Total Charge           Charge          ....    0
 Multiplicity           Mult            ....    3
 Number of Electrons    NEL             ....   12
 Basis Dimension        Dim             ....   24
 Nuclear Repulsion      ENuc            ....      0.0000000000 Eh

Convergence Acceleration:
 AO-DIIS                CNVDIIS         .... on
   Start iteration      DIISMaxIt       ....    12
   Startup error        DIISStart       ....  0.200000
   # of expansion vecs  DIISMaxEq       ....     8
   Bias factor          DIISBfac        ....   1.050
   Max. coefficient     DIISMaxC        ....  10.000
 MO-DIIS                CNVKDIIS        .... off
 Trust-Rad. Augm. Hess. CNVTRAH         .... off
 SOSCF                 CNVSOSCF           .... on
   Start iteration     SOSCFMaxIt         ....   150
   Startup grad/error  SOSCFStart         ....  0.000100
   Hessian update      SOSCFHessUp        .... L-BFGS
   Autom. constraints  SOSCFAutoConstrain .... off
 Level Shifting         CNVShift        .... on
   Level shift para.    LevelShift      ....    0.3000
   Turn off err/grad.   ShiftErr        ....    0.0010
 Zerner damping         CNVZerner       .... off
 Static damping         CNVDamp         .... on
   Fraction old density DampFac         ....    0.7000
   Max. Damping (<1)    DampMax         ....    0.9800
   Min. Damping (>=0)   DampMin         ....    0.0000
   Turn off err/grad.   DampErr         ....    0.1000

SCF Procedure:
 Maximum # iterations   MaxIter         ....  1000
 SCF integral mode      SCFMode         .... Direct
   Integral package                     .... SHARK and LIBINT hybrid scheme
 Reset frequency        DirectResetFreq ....    20
 Integral Threshold     Thresh          ....  1.000e-10 Eh
 Primitive CutOff       TCut            ....  1.000e-11 Eh

Convergence Tolerance:
 Convergence Check Mode ConvCheckMode   .... Total+1el-Energy
 Convergence forced     ConvForced      .... -1
 Energy Change          TolE            ....  1.000e-06 Eh
 1-El. energy change                    ....  1.000e-03 Eh
 Orbital Gradient       TolG            ....  5.000e-05
 Orbital Rotation angle TolX            ....  5.000e-05
 DIIS Error             TolErr          ....  1.000e-06


--------------------
INITIAL GUESS: HCORE
--------------------

Orthogonalizing HCORE                      ... done
Diagonalizing the Hamiltonian (no sym.)    ... done
Back transforming and storing orbitals     ... done
AVERAGE-CONFIGURATION (SAHF) CASE FOUND

-------------------
FINAL ROHF SETTINGS
-------------------
Number of operators             ... 3
  operator   0:   4 orbitals   8 electrons n(mue)= 2.000
  operator   1:   5 orbitals   2 electrons n(mue)= 0.400
  operator   2:   1 orbitals   2 electrons n(mue)= 2.000
Vector coupling coefficients a and b (Zerner convention):
   1.000    1.000    1.000           1.000    1.000    1.000 
   1.000    0.625    1.000           1.000    1.250    1.000 
   1.000    1.000    1.000           1.000    1.000    1.000 


   => ROHF data were saved in the ROHF file

Making the density                         ... done

                      -----------------
                      INTIAL GUESS DONE 
                      -----------------

             **** ENERGY FILE WAS UPDATED (run_atom40.en.tmp) ****
Finished Guess after   0.1 sec
Maximum memory used throughout the entire GUESS-calculation: 3.7 MB

-------------------------------------------------------------------------------------------
                                      ORCA LEAN-SCF
                              memory conserving SCF solver
-------------------------------------------------------------------------------------------

----------------------------------------D-I-I-S--------------------------------------------
Iteration    Energy (Eh)           Delta-E    RMSDP     MaxDP     DIISErr   Damp  Time(sec)
-------------------------------------------------------------------------------------------
               ***  Starting incremental Fock matrix formation  ***
    1    -43.9763458202006916     0.00e+00  1.52e-01  2.41e+00  7.28e-01  0.700   0.1
    2    -44.4639565913747390    -4.88e-01  1.10e-01  1.68e+00  4.02e-01  0.700   0.0
                               ***Turning on AO-DIIS***
    3    -44.9757239984671173    -5.12e-01  7.71e-02  1.18e+00  5.83e-02  0.700   0.0
    4    -45.3142177332734519    -3.38e-01  1.80e-01  2.75e+00  4.51e-02  0.000   0.0
    5    -46.0560984658415435    -7.42e-01  4.91e-03  5.36e-02  1.47e-01  0.000   0.0
    6    -45.9877236959192146     6.84e-02  5.10e-06  6.22e-05  1.91e-01  0.700   0.0
    7    -45.9876355498090419     8.81e-05  7.83e-06  9.56e-05  1.91e-01  0.700   0.0
    8    -45.9874999465706438     1.36e-04  9.09e-06  1.11e-04  1.91e-01  0.700   0.0
    9    -45.9873424476576886     1.57e-04  2.25e-04  3.63e-03  1.91e-01  0.700   0.0
   10    -45.9859783372775723     1.36e-03  2.81e-04  2.85e-03  1.93e-01  0.700   0.0
   11    -45.9818594441001238     4.12e-03  7.12e-04  8.59e-03  1.99e-01  0.700   0.0
   12    -45.9685292628072233     1.33e-02  1.20e-01  1.60e+00  2.16e-01  0.700   0.0
   13    -45.8068983586696632     1.62e-01  6.27e-02  1.18e+00  3.99e-02  0.700   0.0
   14    -45.8530244108449097    -4.61e-02  1.52e-01  2.75e+00  8.05e-02  0.000   0.0
   15    -46.1891650751951559    -3.36e-01  8.63e-03  1.38e-01  5.63e-02  0.000   0.0
   16    -46.2063861262107238    -1.72e-02  1.20e-02  1.50e-01  4.63e-02  0.000   0.0
   17    -46.2252363604281200    -1.89e-02  9.77e-03  1.46e-01  2.99e-02  0.000   0.0
   18    -46.2354602197520634    -1.02e-02  5.87e-02  1.01e+00  1.72e-02  0.000   0.0
   19    -45.8665304906402937     3.69e-01  6.75e-02  9.99e-01  1.03e-01  0.000   0.0
   20    -45.8657308860886630     8.00e-04  1.75e-02  3.01e-01  1.03e-01  0.700   0.0
               *** Restarting incremental Fock matrix formation ***
                             ****Resetting DIIS****
   21    -45.9594613997793786    -9.37e-02  1.76e-02  3.00e-01  4.05e-02  0.700   0.0
   22    -45.9147505488608374     4.47e-02  3.98e-02  7.00e-01  7.25e-02  0.000   0.0
   23    -45.9333437292099944    -1.86e-02  2.69e-04  4.67e-03  7.64e-02  0.000   0.0
   24    -45.9319619826704795     1.38e-03  6.98e-04  1.22e-02  7.73e-02  0.000   0.0
   25    -45.9282957820593793     3.67e-03  1.09e-03  1.92e-02  7.96e-02  0.000   0.0
   26    -45.9223138729262885     5.98e-03  4.73e-04  8.53e-03  8.31e-02  0.000   0.0
   27    -45.9196221772432551     2.69e-03  7.90e-05  1.35e-03  8.46e-02  0.000   0.0
   28    -45.9192936186060336     3.29e-04  6.73e-05  1.07e-03  8.48e-02  0.000   0.0
   29    -45.9189134219109860     3.80e-04  1.57e-02  2.75e-01  8.49e-02  0.000   0.0
   30    -45.9806775425661485    -6.18e-02  7.29e-03  9.52e-02  2.77e-02  0.000   0.0
   31    -45.9918042952017956    -1.11e-02  4.97e-03  8.28e-02  1.53e-02  0.000   0.0
   32    -45.9970237645672881    -5.22e-03  4.45e-03  7.78e-02  1.36e-02  0.000   0.0
   33    -46.0011364937526892    -4.11e-03  7.53e-03  1.33e-01  1.23e-02  0.000   0.0
   34    -46.0069529770049215    -5.82e-03  1.75e-02  3.18e-01  1.01e-02  0.000   0.0
   35    -46.0149282805970401    -7.98e-03  8.65e-03  1.50e-01  4.96e-03  0.000   0.0
   36    -46.0164170763278335    -1.49e-03  1.04e-03  1.36e-02  2.55e-03  0.000   0.0
   37    -46.0166108203948596    -1.94e-04  1.91e-03  3.19e-02  2.26e-03  0.000   0.0
   38    -46.0168690203703648    -2.58e-04  2.61e-03  3.94e-02  1.47e-03  0.000   0.0
   39    -46.0170730255952805    -2.04e-04  1.11e-03  1.44e-02  5.93e-04  0.000   0.0
   40    -46.0171055091822865    -3.25e-05  2.96e-04  4.21e-03  4.06e-04  0.000   0.0
               *** Restarting incremental Fock matrix formation ***
                             ****Resetting DIIS****
   41    -46.0171086262650562    -3.12e-06  6.48e-05  1.08e-03  3.62e-04  0.000   0.0
   42    -46.0171092423730386    -6.16e-07  1.52e-04  2.51e-03  3.14e-04  0.000   0.0
                 **** Energy Check signals convergence ****

               *****************************************************
               *                     SUCCESS                       *
               *           SCF CONVERGED AFTER  42 CYCLES          *
               *****************************************************

             **** ENERGY FILE WAS UPDATED (run_atom40.en.tmp) ****

----------------
TOTAL SCF ENERGY
----------------

Total Energy       :        -46.01711041961831 Eh           -1252.18923 eV

Components:
Nuclear Repulsion  :          0.00000000000000 Eh               0.00000 eV
Electronic Energy  :        -46.01711041961831 Eh           -1252.18923 eV
One Electron Energy:        -74.60921881071273 Eh           -2030.22006 eV
Two Electron Energy:         28.59210839109442 Eh             778.03082 eV

Virial components:
Potential Energy   :        -60.40287822817485 Eh           -1643.64588 eV
Kinetic Energy     :         14.38576780855654 Eh             391.45664 eV
Virial Ratio       :          4.19879418547599

---------------
SCF CONVERGENCE
---------------

  Last Energy change         ...    6.1611e-07  Tolerance :   1.0000e-06
  Last MAX-Density change    ...    2.5097e-03  Tolerance :   1.0000e-05
  Last RMS-Density change    ...    1.5177e-04  Tolerance :   1.0000e-06
  Last DIIS Error            ...    3.1446e-04  Tolerance :   1.0000e-06


----------------
ORBITAL ENERGIES
----------------

  NO   OCC          E(Eh)            E(eV) 
   0   2.0000      -2.829714       -77.0004 
   1   2.0000      -1.789901       -48.7057 
   2   2.0000      -1.789900       -48.7056 
   3   2.0000      -1.779625       -48.4260 
   4   0.4000      -0.420261       -11.4359 
   5   0.4000      -0.483076       -13.1452 
   6   0.4000      -0.460733       -12.5372 
   7   0.4000      -0.226372        -6.1599 
   8   0.4000      -0.226374        -6.1599 
   9   2.0000      -0.159999        -4.3538 
  10   0.0000      -0.116339        -3.1658 
  11   0.0000      -0.105672        -2.8755 
  12   0.0000      -0.105671        -2.8754 
  13   0.0000       0.078944         2.1482 
  14   0.0000       0.205493         5.5917 
  15   0.0000       0.215024         5.8511 
  16   0.0000       0.216199         5.8831 
  17   0.0000       0.219510         5.9732 
  18   0.0000       0.219537         5.9739 
  19   0.0000       0.223656         6.0860 
  20   0.0000       0.223657         6.0860 
*Only the first 10 virtual orbitals were printed.

Warning: MO coefficients are modified such that the real solid harmonic m components
have the correct order within each shell (0, +1, -1, +2, -2, ...) and all s orbitals
come before all p orbitals etc. (with increasing orbital energy within each block of given angular momentum).

CleanUpVectors: The p-vectors have cracked symmetry
CleanUpVectors: The p-vectors have cracked symmetry
CleanUpVectors: The p-vectors have cracked symmetry
CleanUpVectors: The d-vectors have cracked symmetry at i=5
CleanUpVectors: The d-vectors have cracked symmetry at i=6
CleanUpVectors: The p-vectors have cracked symmetry
CleanUpVectors: The p-vectors have cracked symmetry
CleanUpVectors: The p-vectors have cracked symmetry
CleanUpVectors: The d-vectors have cracked symmetry at i=10
CleanUpVectors: The d-vectors have cracked symmetry at i=11
CleanUpVectors: The d-vectors have cracked symmetry at i=12
CleanUpVectors: The d-vectors have cracked symmetry at i=14
CleanUpVectors: The d-vectors have cracked symmetry at i=15
CleanUpVectors: The d-vectors have cracked symmetry at i=16
CleanUpVectors: The p-vectors have cracked symmetry
CleanUpVectors: The p-vectors have cracked symmetry
CleanUpVectors: The d-vectors have cracked symmetry at i=19
--------------------------
ATOM BASIS FOR ELEMENT Zr
--------------------------
 NewGTO Zr
 S 7
    1          5.873789000000        -0.551418629572
    2          4.287270000000         0.967971701042
    3          1.464137000000         0.139277900769
    4          0.837276823400        -0.915884040001
    5          0.368498065100        -0.452273923374
    6          0.077806859100        -0.002902817864
    7          0.030273088300        -0.000825396314
 P 18
    1          2.874224000000         0.475432687937
    2          2.119901000000        -0.467877080682
    3          0.788458211100        -0.600142022231
    4          0.363325798500        -0.365284583292
    5          2.874224000000        -0.033656630520
    6          2.119901000000         0.033121757154
    7          0.788458211100         0.042485001166
    8          0.363325798500         0.025859072307
    9          2.874224000000         0.013366107707
   10          2.119901000000        -0.013153692653
   11          0.788458211100        -0.016872131665
   12          0.363325798500        -0.010269451823
   13          0.149517620200        -0.016200120532
   14          0.149517620200         0.001146832107
   15          0.149517620200        -0.000455443139
   16          0.030000000000        -0.003777990166
   17          0.030000000000         0.000267449888
   18          0.030000000000        -0.000106212772
 S 7
    1          5.873789000000        -0.250552929297
    2          4.287270000000         0.439825809587
    3          1.464137000000         0.063284923926
    4          0.837276823400        -0.583155700741
    5          0.368498065100        -0.272304415065
    6          0.077806859100         1.113840854952
    7          0.030273088300         0.076783382354
 S 7
    1          5.873789000000        -0.121629697101
    2          4.287270000000         0.213511293392
    3          1.464137000000         0.030721357558
    4          0.837276823400        -0.210091863842
    5          0.368498065100        -0.449441352095
    6          0.077806859100         2.175636325488
    7          0.030273088300        -2.101313255639
 D 18
    1          5.873789000000         0.000024070729
    2          4.287270000000        -0.000057890590
    3          1.464137000000        -0.000024390834
    4          0.837276823400         0.000428148190
    5          0.368498065100         0.000191325176
    6          0.077806859100        -0.006972527781
    7          0.030273088300        -0.000954499278
    8          4.289862387800        -0.011075765152
    9          1.361555749800         0.178589219937
   10          0.569375506900         0.381419551521
   11          0.226749486800         0.387760514514
   12          4.289862387800         0.000902034973
   13          1.361555749800        -0.014544703682
   14          0.569375506900        -0.031063657466
   15          0.226749486800        -0.031580079610
   16          4.289862387800        -0.000711604593
   17          1.361555749800         0.011474142639
   18          0.569375506900         0.024505747552
 D 18
    1          4.289862387800         0.000550276403
    2          1.361555749800        -0.008872834710
    3          0.569375506900        -0.018950038737
    4          0.226749486800        -0.019265076322
    5          4.289862387800        -0.000148596997
    6          1.361555749800         0.002396026042
    7          0.569375506900         0.005117280756
    8          0.226749486800         0.005202353710
    9          4.289862387800        -0.011609284687
   10          1.361555749800         0.187191861483
   11          0.569375506900         0.399792528800
   12          0.226749486800         0.406438935937
   13          4.289862387800         0.000335556765
   14          1.361555749800        -0.005410625819
   15          0.569375506900        -0.011555672140
   16          0.226749486800        -0.011747781038
   17          4.289862387800         0.000818926583
   18          1.361555749800        -0.013204637112
 D 18
    1          5.873789000000        -0.000208520530
    2          4.287270000000         0.000501496091
    3          1.464137000000         0.000211293542
    4          0.837276823400        -0.007007569800
    5          0.368498065100         0.022030956573
    6          0.077806859100        -0.145041671978
    7          0.030273088300         0.303720315549
    8          4.289862387800        -0.003903484539
    9          1.361555749800         0.062941047343
   10          0.569375506900         0.134425504844
   11          0.226749486800         0.136660280560
   12          4.289862387800         0.000970111931
   13          1.361555749800        -0.015642398567
   14          0.569375506900        -0.033408044721
   15          0.226749486800        -0.033963441460
   16          4.289862387800        -0.000008737138
   17          1.361555749800         0.000140880437
   18          0.569375506900         0.000300883519
 P 18
    1          2.874224000000         0.023609053090
    2          2.119901000000        -0.023233856480
    3          0.788458211100        -0.029801873586
    4          0.363325798500        -0.018139314647
    5          2.874224000000         0.332324756300
    6          2.119901000000        -0.327043429619
    7          0.788458211100        -0.419495874692
    8          0.363325798500        -0.255331854966
    9          2.874224000000        -0.002961522961
   10          2.119901000000         0.002914458245
   11          0.788458211100         0.003738351240
   12          0.363325798500         0.002275398196
   13          0.149517620200         0.096328130982
   14          0.149517620200         1.355929970223
   15          0.149517620200        -0.012083414383
   16          0.030000000000        -0.062773571461
   17          0.030000000000        -0.883610696212
   18          0.030000000000         0.007874325688
 end
-------------------------------------------
RADIAL EXPECTATION VALUES <R**-3> TO <R**3>
-------------------------------------------
   0 :     0.000006     0.891137     0.897115     1.230804     1.669962     2.494224
   1 :     0.761891     0.741294     0.813016     1.374570     2.105453     3.584221
   2 :     0.761891     0.741293     0.813016     1.374571     2.105455     3.584226
   3 :     0.763212     0.742314     0.813665     1.373361     2.103146     3.593425
   4 :     0.007091     0.173638     0.356669     3.353727    12.650797    53.638449
   5 :     0.335872     0.402730     0.581295     2.034502     4.853866    67.253882
   6 :     0.326500     0.394828     0.573748     2.080552     5.142493    68.809724
   7 :     0.079110     0.117037     0.283458     4.510913    24.495462   155.237878
   8 :     0.079147     0.117079     0.283511     4.510089    24.487065   155.165484
   9 :     0.057435     0.091781     0.250503     5.035460    29.898951   202.188433
  10 :     0.288148     0.355386     0.538155     2.281168     6.350199   106.188562
  11 :     0.284077     0.351289     0.534347     2.304135     6.493772   110.035687
  12 :     0.284076     0.351288     0.534346     2.304140     6.493808   110.036631
  13 :     0.000052     0.056921     0.189898     6.443013    45.779501   346.176287
  14 :     0.093136     0.126987     0.285638     4.436394    21.957620   578.642601
  15 :     0.140861     0.174332     0.328780     4.189723    20.461260   539.708023
  16 :     0.095342     0.129151     0.287557     4.426522    21.903515   577.064917
  17 :     0.103059     0.131931     0.279158     5.281626    35.066292   264.627987
  18 :     0.103095     0.131973     0.279211     5.280802    35.057897   264.555599
  19 :     0.144932     0.178429     0.332587     4.166756    20.317687   535.860898
  20 :     0.144933     0.178430     0.332588     4.166751    20.317651   535.859954
  21 :     0.123450     0.156209     0.311517     4.757465    29.656715   217.595841
  22 :     0.000020     0.522831     0.602574     2.513905     9.644191    52.864530
  23 :     0.000000    10.991145     2.693085     0.528872     0.550973     1.667061
Making the total density                ... o.k.
Making exponents                        ... done
Making rho(0)                           ... done (         0.000834087)
Integral calculation                    ... Solving the equation system             ... done
atomic density will be written to file run_atom40.adf

-------
TIMINGS
-------

Total SCF time: 0 days 0 hours 0 min 0 sec 

Total time                  ....       0.781 sec
Sum of individual times     ....       0.717 sec  ( 91.9%)

SCF preparation             ....       0.037 sec  (  4.8%)
Fock matrix formation       ....       0.579 sec  ( 74.2%)
  Startup                   ....       0.003 sec  (  0.5% of F)
  Coulomb+Exchange Fock     ....       0.564 sec  ( 97.4% of F)
Diagonalization             ....       0.000 sec  (  0.0%)
Density matrix formation    ....       0.025 sec  (  3.2%)
Total Energy calculation    ....       0.003 sec  (  0.4%)
Population analysis         ....       0.000 sec  (  0.0%)
Orbital Transformation      ....       0.001 sec  (  0.2%)
Orbital Orthonormalization  ....       0.000 sec  (  0.0%)
DIIS solution               ....       0.071 sec  (  9.1%)
SOSCF solution              ....       0.000 sec  (  0.0%)
Finished LeanSCF after   0.8 sec

Maximum memory used throughout the entire LEANSCF-calculation: 5.9 MB

-------------------------   --------------------
FINAL SINGLE POINT ENERGY       -46.017110419618
-------------------------   --------------------


------------------------------------------------------------------------------
                              ORCA PROPERTY CALCULATIONS
------------------------------------------------------------------------------

GBWName                                 ... run_atom40.gbw
Number of atoms                         ...      1
Number of basis functions               ...     24
Max core memory                         ...   4096 MB

Electric properties:
Dipole moment                           ... YES
Quadrupole moment                       ...  NO
Static polarizability (Dipole/Dipole)   ...  NO
Static polarizability (Dipole/Quad.)    ...  NO
Static polarizability (Quad./Quad.)     ...  NO
Static polarizability (Velocity)        ...  NO
Static hyperpolarizability              ...  NO

Atomic electric properties:
Dipole moment                           ...  NO
Quadrupole moment                       ...  NO
Static polarizability                   ...  NO

Choice of electric origin               ... Center of mass
Position of electric origin             ...     0.000000     0.000000     0.000000

General magnetic properties:
Magnetizability                         ...  NO

EPR properties:
g-Tensor (aka g-matrix)                 ...  NO
Zero-Field splitting spin-orbit         ...  NO
Zero-field splitting spin-spin          ...  NO
Hyperfine couplings                     ...  NO (   0 nuclei)
Quadrupole couplings                    ...  NO (   0 nuclei)
Contact density                         ...  NO (   0 nuclei)

NMR properties:
Chemical shifts                         ...  NO (   0 nuclei)
Spin-rotation constants                 ...  NO (   0 nuclei)
Spin-spin couplings                     ...  NO (   0 nuclei,    0 pairs)

Choice of magnetic origin               ... GIAO
Position of magnetic origin             ...     0.000000     0.000000     0.000000

Properties with geometric perturbations:
SCF Hessian                             ...  NO
IR spectrum                             ...  NO
VCD spectrum                            ...  NO
X-ray spectroscopy properties:
SCF XES/XAS/RIXS spectra                ...  NO

SCF SOC stabilization energy            ...  NO
Diagonal Born-Oppenheimer correction    ...  NO

-------------
DIPOLE MOMENT
-------------

Method             : SCF
Type of density    : Electron Density
Multiplicity       :   3
Irrep              :   0
Energy             :   -46.0171104196183123 Eh
Basis              : AO
                                X                 Y                 Z
Electronic contribution:     -0.000000000       0.000000001       0.000000003
Nuclear contribution   :      0.000000000       0.000000000       0.000000000
                        -----------------------------------------
Total Dipole Moment    :     -0.000000000       0.000000001       0.000000003
                        -----------------------------------------
Magnitude (a.u.)       :      0.000000003
Magnitude (Debye)      :      0.000000008



--------------------
Rotational spectrum 
--------------------
 
Rotational constants in cm-1:             0.000000             0.000000             0.000000 
Rotational constants in MHz :             0.000000             0.000000             0.000000 

Dipole components along the rotational axes: 
x,y,z [a.u.] :    -0.000000     0.000000     0.000000 
x,y,z [Debye]:    -0.000000     0.000000     0.000000 

 

Dipole moment calculation done in   0.0 sec 

Maximum memory used throughout the entire PROP-calculation: 1.6 MB

--------------------------------
SUGGESTED CITATIONS FOR THIS RUN
--------------------------------

Below you find a list of papers that are relevant to this ORCA run
We neither can nor want to force you to cite these papers, but we appreciate if you do
You receive ORCA, which is the product of decades of hard work by many enthusiastic individuals, for free
The only thing we kindly ask in return is that you cite our papers,
We deeply appreciate it, if you show your appreciation for ORCA by not just citing the generic ORCA reference.

Please note that relegating all ORCA citations to the supporting information does *not* help us.
SI sections are not indexed - citations you put there will not count into any citation statistics
But we need these citations in order to attract the funding resources that allow us to do what we are doing

Therefore, if you are a happy ORCA user, please consider citing a few of the papers listed below in the main body of your paper

In addition to the list printed below, the program has created the file run_atom40.bibtex that contains the list in bibtex format
You can import this file easily into all common literature databanks and citation aid programs


List of essential papers. We consider these as the minimum necessary citations

  1. Neese, F.
     Software update: the ORCA program system, version 6.0
     WIRES Comput. Molec. Sci. 2025 15(1), e70019
     doi.org/10.1002/wcms.7019

List of papers to cite with high priority. The work reported in these papers was absolutely
necessary for this run to complete.
Our perspective: the developers of density functionals and basis sets usually get cited in chemistry papers
Good! But without the algorithms to do something with them, the functionals or basis sets would not do anything.
Hence, in our opinion, the algorithm design and method developments papers are equally worthy of getting cited

  1. Neese, F.
     The SHARK Integral Generation and Digestion System
     J. Comp. Chem. 2022 44(3), 381
     doi.org/10.1002/jcc.26942

List of suggested additional citations. These are papers that are important in the 'surrounding' of 
of this run, or papers that preceded the highly important papers. If you like your results we are grateful for a citation.

  1. Neese, F.
     The ORCA program system
     WIRES Comput. Molec. Sci. 2012 2(1), 73-78
     doi.org/10.1002/wcms.81
  2. Neese, F.
     Software update: the ORCA program system, version 4.0
     WIRES Comput. Molec. Sci. 2018 8(1), 1-6
     doi.org/10.1002/wcms.1327
  3. Neese, F.; Wennmohs, F.; Becker, U.; Riplinger, C.
     The ORCA quantum chemistry program package
     J. Chem. Phys. 2020 152(22), 224108
     doi.org/10.1063/5.0004608
  4. Neese, F.
     Software update: The ORCA program system—Version 5.0
     WIRES Comput. Molec. Sci. 2022 12(1), e1606
     doi.org/10.1002/wcms.1606

List of optional additional citations

  1. Neese, F.
     Approximate second-order SCF convergence for spin unrestricted wavefunctions
     Chem. Phys. Lett. 2000 325(1-3), 93-98
     doi.org/10.1016/s0009-2614(00)00662-x

Timings for individual modules:

Sum of individual times          ...        1.832 sec (=   0.031 min)
Startup calculation              ...        0.753 sec (=   0.013 min)  41.1 %
SCF iterations                   ...        0.979 sec (=   0.016 min)  53.4 %
Property calculations            ...        0.100 sec (=   0.002 min)   5.5 %
                             ****ORCA TERMINATED NORMALLY****
TOTAL RUN TIME: 0 days 0 hours 0 minutes 1 seconds 938 msec
