
                                 *****************
                                 * O   R   C   A *
                                 *****************

                                            #,                                       
                                            ###                                      
                                            ####                                     
                                            #####                                    
                                            ######                                   
                                           ########,                                 
                                     ,,################,,,,,                         
                               ,,#################################,,                 
                          ,,##########################################,,             
                       ,#########################################, ''#####,          
                    ,#############################################,,   '####,        
                  ,##################################################,,,,####,       
                ,###########''''           ''''###############################       
              ,#####''   ,,,,##########,,,,          '''####'''          '####       
            ,##' ,,,,###########################,,,                        '##       
           ' ,,###''''                  '''############,,,                           
         ,,##''                                '''############,,,,        ,,,,,,###''
      ,#''                                            '''#######################'''  
     '                                                          ''''####''''         
             ,#######,   #######,   ,#######,      ##                                
            ,#'     '#,  ##    ##  ,#'     '#,    #''#        ######   ,####,        
            ##       ##  ##   ,#'  ##            #'  '#       #        #'  '#        
            ##       ##  #######   ##           ,######,      #####,   #    #        
            '#,     ,#'  ##    ##  '#,     ,#' ,#      #,         ##   #,  ,#        
             '#######'   ##     ##  '#######'  #'      '#     #####' # '####'        



                  #######################################################
                  #                        -***-                        #
                  #          Department of theory and spectroscopy      #
                  #    Directorship and core code : Frank Neese         #
                  #        Max Planck Institute fuer Kohlenforschung    #
                  #                Kaiser Wilhelm Platz 1               #
                  #                 D-45470 Muelheim/Ruhr               #
                  #                      Germany                        #
                  #                                                     #
                  #                  All rights reserved                #
                  #                        -***-                        #
                  #######################################################


                         Program Version 5.0.4 -  RELEASE  -


 With contributions from (in alphabetic order):
   Daniel Aravena         : Magnetic Suceptibility
   Michael Atanasov       : Ab Initio Ligand Field Theory (pilot matlab implementation)
   Alexander A. Auer      : GIAO ZORA, VPT2 properties, NMR spectrum
   Ute Becker             : Parallelization
   Giovanni Bistoni       : ED, misc. LED, open-shell LED, HFLD
   Martin Brehm           : Molecular dynamics
   Dmytro Bykov           : SCF Hessian
   Vijay G. Chilkuri      : MRCI spin determinant printing, contributions to CSF-ICE
   Dipayan Datta          : RHF DLPNO-CCSD density
   Achintya Kumar Dutta   : EOM-CC, STEOM-CC
   Dmitry Ganyushin       : Spin-Orbit,Spin-Spin,Magnetic field MRCI
   Miquel Garcia          : C-PCM and meta-GGA Hessian, CC/C-PCM, Gaussian charge scheme
   Yang Guo               : DLPNO-NEVPT2, F12-NEVPT2, CIM, IAO-localization
   Andreas Hansen         : Spin unrestricted coupled pair/coupled cluster methods
   Benjamin Helmich-Paris : MC-RPA, TRAH-SCF, COSX integrals
   Lee Huntington         : MR-EOM, pCC
   Robert Izsak           : Overlap fitted RIJCOSX, COSX-SCS-MP3, EOM
   Marcus Kettner         : VPT2
   Christian Kollmar      : KDIIS, OOCD, Brueckner-CCSD(T), CCSD density, CASPT2, CASPT2-K
   Simone Kossmann        : Meta GGA functionals, TD-DFT gradient, OOMP2, MP2 Hessian
   Martin Krupicka        : Initial AUTO-CI
   Lucas Lang             : DCDCAS
   Marvin Lechner         : AUTO-CI (C++ implementation), FIC-MRCC
   Dagmar Lenk            : GEPOL surface, SMD
   Dimitrios Liakos       : Extrapolation schemes; Compound Job, initial MDCI parallelization
   Dimitrios Manganas     : Further ROCIS development; embedding schemes
   Dimitrios Pantazis     : SARC Basis sets
   Anastasios Papadopoulos: AUTO-CI, single reference methods and gradients
   Taras Petrenko         : DFT Hessian,TD-DFT gradient, ASA, ECA, R-Raman, ABS, FL, XAS/XES, NRVS
   Peter Pinski           : DLPNO-MP2, DLPNO-MP2 Gradient
   Christoph Reimann      : Effective Core Potentials
   Marius Retegan         : Local ZFS, SOC
   Christoph Riplinger    : Optimizer, TS searches, QM/MM, DLPNO-CCSD(T), (RO)-DLPNO pert. Triples
   Tobias Risthaus        : Range-separated hybrids, TD-DFT gradient, RPA, STAB
   Michael Roemelt        : Original ROCIS implementation
   Masaaki Saitow         : Open-shell DLPNO-CCSD energy and density
   Barbara Sandhoefer     : DKH picture change effects
   Avijit Sen             : IP-ROCIS
   Kantharuban Sivalingam : CASSCF convergence, NEVPT2, FIC-MRCI
   Bernardo de Souza      : ESD, SOC TD-DFT
   Georgi Stoychev        : AutoAux, RI-MP2 NMR, DLPNO-MP2 response
   Willem Van den Heuvel  : Paramagnetic NMR
   Boris Wezisla          : Elementary symmetry handling
   Frank Wennmohs         : Technical directorship


 We gratefully acknowledge several colleagues who have allowed us to
 interface, adapt or use parts of their codes:
   Stefan Grimme, W. Hujo, H. Kruse, P. Pracht,  : VdW corrections, initial TS optimization,
                  C. Bannwarth, S. Ehlert          DFT functionals, gCP, sTDA/sTD-DF
   Ed Valeev, F. Pavosevic, A. Kumar             : LibInt (2-el integral package), F12 methods
   Garnet Chan, S. Sharma, J. Yang, R. Olivares  : DMRG
   Ulf Ekstrom                                   : XCFun DFT Library
   Mihaly Kallay                                 : mrcc  (arbitrary order and MRCC methods)
   Jiri Pittner, Ondrej Demel                    : Mk-CCSD
   Frank Weinhold                                : gennbo (NPA and NBO analysis)
   Christopher J. Cramer and Donald G. Truhlar   : smd solvation model
   Lars Goerigk                                  : TD-DFT with DH, B97 family of functionals
   V. Asgeirsson, H. Jonsson                     : NEB implementation
   FAccTs GmbH                                   : IRC, NEB, NEB-TS, DLPNO-Multilevel, CI-OPT
                                                   MM, QMMM, 2- and 3-layer-ONIOM, Crystal-QMMM,
                                                   LR-CPCM, SF, NACMEs, symmetry and pop. for TD-DFT,
                                                   nearIR, NL-DFT gradient (VV10), updates on ESD,
                                                   ML-optimized integration grids
   S Lehtola, MJT Oliveira, MAL Marques          : LibXC Library
   Liviu Ungur et al                             : ANISO software


 Your calculation uses the libint2 library for the computation of 2-el integrals
 For citations please refer to: http://libint.valeyev.net

 Your ORCA version has been built with support for libXC version: 5.1.0
 For citations please refer to: https://tddft.org/programs/libxc/

 This ORCA versions uses:
   CBLAS   interface :  Fast vector & matrix operations
   LAPACKE interface :  Fast linear algebra routines
   SCALAPACK package :  Parallel linear algebra routines
   Shared memory     :  Shared parallel matrices
   BLAS/LAPACK       :  OpenBLAS 0.3.15  USE64BITINT DYNAMIC_ARCH NO_AFFINITY Barcelona SINGLE_THREADED
        Core in use  :  Barcelona
   Copyright (c) 2011-2014, The OpenBLAS Project




***************************************
The coordinates will be read from file: start.xyz
***************************************


Your calculation utilizes the atom-pairwise dispersion correction
with the Becke-Johnson damping scheme (D3BJ)
Cite in your paper:
S.Grimme, S.Ehrlich, L.Goerigk, J Comput Chem, (2011), 32, 1456–1465 
S.Grimme, J.Antony, S.Ehrlich and H.Krieg, J.Chem.Phys., 132, (2010), 154104 
   

================================================================================

----- Orbital basis set information -----
Your calculation utilizes the basis: pc-3
   H, C-F              : F. Jensen, J. Chem. Phys. 115, 9113 (2001).
                         F. Jensen, J. Chem. Phys. 116, 7372 (2002).
                         F. Jensen, J. Chem. Phys. 117, 9234 (2002).
   Si-Cl               : F. Jensen, T. Helgaker, J. Chem. Phys. 121, 3463 (2004).
   He-B, Ne-Mg, Al, Ar : F. Jensen, J. Phys. Chem. A 111, 11198 (2007).
   K, Ca, Ga-Kr        : F. Jensen, J. Chem. Phys. 136, 094110 (2012).
   Sc-Zn               : F. Jensen, J. Chem. Phys. 138, 014107 (2013).

----- AuxJ basis set information -----
Your calculation utilizes the AutoAux generation procedure.
  G. L. Stoychev, A. A. Auer, F. Neese, J. Chem. Theory Comput. 13, 554 (2017)

----- AuxC basis set information -----
Your calculation utilizes the AutoAux generation procedure.
  G. L. Stoychev, A. A. Auer, F. Neese, J. Chem. Theory Comput. 13, 554 (2017)

----- AuxJK basis set information -----
Your calculation utilizes the AutoAux generation procedure.
  G. L. Stoychev, A. A. Auer, F. Neese, J. Chem. Theory Comput. 13, 554 (2017)

================================================================================
                                        WARNINGS
                       Please study these warnings very carefully!
================================================================================


WARNING: Geometry Optimization
  ===> : Switching off AutoStart
         For restart on a previous wavefunction, please use MOREAD

INFO   : the flag for use of the SHARK integral package has been found!

================================================================================
                                       INPUT FILE
================================================================================
NAME = run.inp
|  1> # Geometry optimization for (AlH3)n cluster
|  2> 
|  3> ! PBE 	# functional used for the MOF calculations later (non-expensive)
|  4> ! RKS	# closed shell for AlH3
|  5> ! D3BJ  # better geometries at low cost
|  6> ! pc-3 	# proven basiset from earlier work
|  7> ! Freq 	# Frequency analysis to check the stabiltity of the structures
|  8> 
|  9> ! NoPop # population analysis not necessary	
| 10> 
| 11> ! RI 		# speed up calculation 
| 12> ! AutoAux # no auxiliary basis set for pc implemented
| 13> ! DEFGRID3 # dense integration grid in space
| 14> ! TightSCF # 
| 15> ! TightOpt # thight convergence criteria for geometry optimizations
| 16> 
| 17> ! SmallPrint
| 18> 
| 19> 
| 20> * xyzFile 0 1 start.xyz # only maingroup elements H and Al so there should be no net spin
| 21> 
| 22>                          ****END OF INPUT****
================================================================================

                       *****************************
                       * Geometry Optimization Run *
                       *****************************

Geometry optimization settings:
Update method            Update   .... BFGS
Choice of coordinates    CoordSys .... Z-matrix Internals
Initial Hessian          InHess   .... Almoef's Model

Convergence Tolerances:
Energy Change            TolE     ....  1.0000e-06 Eh
Max. Gradient            TolMAXG  ....  1.0000e-04 Eh/bohr
RMS Gradient             TolRMSG  ....  3.0000e-05 Eh/bohr
Max. Displacement        TolMAXD  ....  1.0000e-03 bohr
RMS Displacement         TolRMSD  ....  6.0000e-04 bohr
Strict Convergence                ....  False
------------------------------------------------------------------------------
                        ORCA OPTIMIZATION COORDINATE SETUP
------------------------------------------------------------------------------

The optimization will be done in new redundant internal coordinates
Making redundant internal coordinates   ...  (new redundants) done
Evaluating the initial hessian          ...  (Almloef) done
Evaluating the coordinates              ...  done
Calculating the B-matrix                .... done
Calculating the G-matrix                .... done
Diagonalizing the G-matrix              .... done
The first mode is                       ....  322
The number of degrees of freedom        ....   54

    -----------------------------------------------------------------
                    Redundant Internal Coordinates


    -----------------------------------------------------------------
         Definition                    Initial Value    Approx d2E/dq
    -----------------------------------------------------------------
      1. B(H   1,Al  0)                  1.7237         0.246008   
      2. B(H   2,Al  0)                  1.7302         0.240227   
      3. B(H   3,Al  0)                  1.7418         0.230229   
      4. B(Al  4,Al  0)                  2.4186         0.701092   
      5. B(H   5,Al  4)                  1.6998         0.268620   
      6. B(H   5,Al  0)                  1.7305         0.239951   
      7. B(H   6,Al  4)                  1.5964         0.392779   
      8. B(H   7,Al  4)                  1.7017         0.266767   
      9. B(H   7,Al  0)                  1.7410         0.230896   
     10. B(Al  8,Al  0)                  3.2140         0.037737   
     11. B(H   9,Al  8)                  1.5964         0.392704   
     12. B(H  10,Al  4)                  1.5986         0.389540   
     13. B(H  11,Al  8)                  1.7041         0.264347   
     14. B(Al 12,H   2)                  1.7001         0.268351   
     15. B(Al 12,Al  0)                  2.4168         0.705968   
     16. B(Al 12,H   3)                  1.7002         0.268165   
     17. B(H  13,Al 12)                  1.5974         0.391304   
     18. B(H  14,Al 12)                  1.5968         0.392180   
     19. B(H  15,Al  8)                  1.7045         0.263976   
     20. B(H  15,Al  0)                  1.7222         0.247381   
     21. B(Al 16,H  11)                  1.7073         0.261267   
     22. B(Al 16,Al  8)                  2.9146         0.113369   
     23. B(Al 16,H   1)                  1.7117         0.257101   
     24. B(Al 16,Al  0)                  3.2146         0.037653   
     25. B(H  17,Al 16)                  1.5962         0.393036   
     26. B(H  18,Al 16)                  1.5965         0.392546   
     27. B(H  19,Al  8)                  1.5966         0.392475   
     28. A(Al  8,Al  0,Al 12)           99.5107         0.381810   
     29. A(H   2,Al  0,Al  8)           85.8419         0.277075   
     30. A(Al  4,Al  0,Al 16)           95.1293         0.381203   
     31. A(H   1,Al  0,Al  8)           69.7552         0.278090   
     32. A(Al  4,Al  0,H   7)           44.7088         0.450127   
     33. A(Al  4,Al  0,Al 12)          121.7991         0.656295   
     34. A(H   1,Al  0,H  15)           89.2243         0.326247   
     35. A(H   2,Al  0,H  15)           91.6065         0.324974   
     36. A(H   1,Al  0,H   7)           89.4629         0.322573   
     37. A(Al  4,Al  0,Al  8)          135.0393         0.381351   
     38. A(H   1,Al  0,Al 16)           20.5778         0.277994   
     39. A(H   2,Al  0,Al  4)          135.4522         0.453379   
     40. A(Al 12,Al  0,H  15)           90.1861         0.456383   
     41. A(H   3,Al  0,Al 12)           44.7047         0.450457   
     42. A(H   7,Al  0,Al 16)          106.5203         0.275301   
     43. A(H   1,Al  0,H   5)           91.6367         0.324616   
     44. A(Al  4,Al  0,H  15)          132.9328         0.455807   
     45. A(H   3,Al  0,H  15)           89.1466         0.322714   
     46. A(H   3,Al  0,Al 16)          159.0403         0.275179   
     47. A(H   5,Al  0,H  15)           88.2908         0.324913   
     48. A(H   5,Al  0,Al  8)           94.0494         0.277026   
     49. A(H   1,Al  0,Al  4)           91.0615         0.455346   
     50. A(H   2,Al  0,Al 16)           99.3569         0.276979   
     51. A(H   7,Al  0,Al 12)           92.4577         0.450694   
     52. A(H   5,Al  0,Al 12)          135.3304         0.453856   
     53. A(H   7,Al  0,Al  8)          159.0039         0.275396   
     54. A(H   2,Al  0,H   7)           90.7446         0.321319   
     55. A(H   3,Al  0,H   5)           90.6287         0.321107   
     56. A(H   3,Al  0,H   7)           92.2604         0.319095   
     57. A(Al  8,Al  0,H  15)           20.1842         0.278328   
     58. A(H   2,Al  0,H   3)           89.4052         0.321167   
     59. A(Al  4,Al  0,H   5)           44.6499         0.453285   
     60. A(H   5,Al  0,H   7)           89.3572         0.321259   
     61. A(H   1,Al  0,Al 12)          132.9890         0.455921   
     62. A(H   2,Al  0,Al 12)           44.7026         0.453951   
     63. A(Al  8,Al  0,Al 16)           53.9209         0.239821   
     64. A(Al 12,Al  0,Al 16)          140.2934         0.381661   
     65. A(H  15,Al  0,Al 16)           71.7222         0.278232   
     66. A(H   5,Al  0,Al 16)           80.5772         0.276930   
     67. A(H   1,Al  0,H   2)           88.3264         0.324677   
     68. A(H   3,Al  0,Al  4)           91.7433         0.449890   
     69. A(H   3,Al  0,Al  8)          108.3892         0.275274   
     70. A(Al  0,H   1,Al 16)          138.6935         0.328326   
     71. A(Al  0,H   2,Al 12)           89.5807         0.329360   
     72. A(Al  0,H   3,Al 12)           89.1886         0.327021   
     73. A(H   6,Al  4,H  10)          113.4448         0.381296   
     74. A(H   5,Al  4,H  10)          112.6730         0.357210   
     75. A(Al  0,Al  4,H  10)          123.3422         0.495508   
     76. A(Al  0,Al  4,H   6)          123.2124         0.496270   
     77. A(H   5,Al  4,H   6)          112.2107         0.357714   
     78. A(H   6,Al  4,H   7)          112.2614         0.357293   
     79. A(H   5,Al  4,H   7)           91.7149         0.335185   
     80. A(Al  0,Al  4,H   7)           46.0343         0.462125   
     81. A(Al  0,Al  4,H   5)           45.6821         0.462710   
     82. A(H   7,Al  4,H  10)          112.7181         0.356791   
     83. A(Al  0,H   5,Al  4)           89.6680         0.329352   
     84. A(Al  0,H   7,Al  4)           89.2569         0.326895   
     85. A(H   9,Al  8,H  15)          108.7306         0.356643   
     86. A(Al  0,Al  8,H  15)           20.4027         0.281131   
     87. A(Al  0,Al  8,H   9)          101.8226         0.299204   
     88. A(H  15,Al  8,H  19)          110.3066         0.356608   
     89. A(H  11,Al  8,H  15)          107.3026         0.333710   
     90. A(H  11,Al  8,H  19)          111.1087         0.356693   
     91. A(H   9,Al  8,H  19)          110.2426         0.381781   
     92. A(H  15,Al  8,Al 16)           80.8909         0.335447   
     93. A(Al 16,Al  8,H  19)          138.2201         0.358594   
     94. A(Al  0,Al  8,H  19)          129.9711         0.299176   
     95. A(H  11,Al  8,Al 16)           31.3445         0.335526   
     96. A(H   9,Al  8,Al 16)          103.0270         0.358630   
     97. A(Al  0,Al  8,Al 16)           63.0503         0.282557   
     98. A(H   9,Al  8,H  11)          109.0694         0.356729   
     99. A(Al  0,Al  8,H  11)           92.4308         0.281192   
    100. A(Al  8,H  11,Al 16)          117.3762         0.333139   
    101. A(H  13,Al 12,H  14)          113.2781         0.381494   
    102. A(H   3,Al 12,H  14)          112.4803         0.357518   
    103. A(H   2,Al 12,H  14)          113.4294         0.357560   
    104. A(Al  0,Al 12,H  14)          124.4519         0.496769   
    105. A(H   3,Al 12,H  13)          111.8336         0.357382   
    106. A(H   2,Al 12,H  13)          112.2287         0.357424   
    107. A(Al  0,Al 12,H  13)          122.2659         0.496562   
    108. A(Al  0,Al 12,H   3)           46.1067         0.463153   
    109. A(H   2,Al 12,H   3)           91.8212         0.335420   
    110. A(Al  0,Al 12,H   2)           45.7167         0.463212   
    111. A(Al  0,H  15,Al  8)          139.4131         0.330063   
    112. A(H  17,Al 16,H  18)          110.0273         0.381849   
    113. A(H  11,Al 16,H  18)          109.0225         0.355995   
    114. A(Al  8,Al 16,H  18)          124.4571         0.358605   
    115. A(H   1,Al 16,H  18)          107.7727         0.355025   
    116. A(Al  0,Al 16,H  18)          104.4537         0.299078   
    117. A(H  11,Al 16,H  17)          109.9084         0.356070   
    118. A(Al  8,Al 16,H  17)          119.0642         0.358681   
    119. A(H   1,Al 16,H  17)          110.3857         0.355100   
    120. A(Al  0,Al 16,H  17)          128.9551         0.299137   
    121. A(Al  8,Al 16,H  11)           31.2793         0.334873   
    122. A(H   1,Al 16,H  11)          109.6844         0.331608   
    123. A(Al  0,Al 16,H  11)           92.3484         0.280586   
    124. A(H   1,Al 16,Al  8)           78.6847         0.333980   
    125. A(Al  0,Al 16,Al  8)           63.0289         0.282459   
    126. A(Al  0,Al 16,H   1)           20.7287         0.279890   
    127. D(Al 16,H   1,Al  0,H   2)   -122.7242         0.004839   
    128. D(Al 16,H   1,Al  0,H   5)     57.1736         0.004839   
    129. D(Al 16,H   1,Al  0,Al 12)   -120.6254         0.004839   
    130. D(Al 16,H   1,Al  0,H   7)    146.5152         0.004839   
    131. D(Al 16,H   1,Al  0,Al  8)    -36.5394         0.004839   
    132. D(Al 16,H   1,Al  0,Al  4)    101.8330         0.004839   
    133. D(Al 16,H   1,Al  0,H  15)    -31.0942         0.004839   
    134. D(Al 12,H   2,Al  0,Al  8)    107.9973         0.004676   
    135. D(Al 12,H   2,Al  0,H   7)    -92.7417         0.004676   
    136. D(Al 12,H   2,Al  0,Al  4)    -92.3696         0.004676   
    137. D(Al 12,H   2,Al  0,H   3)     -0.4887         0.004676   
    138. D(Al 12,H   2,Al  0,H  15)     88.6408         0.004676   
    139. D(Al 12,H   2,Al  0,Al 16)    160.3791         0.004676   
    140. D(Al 12,H   2,Al  0,H   1)    177.8175         0.004676   
    141. D(Al 12,H   3,Al  0,H  15)    -91.1269         0.004406   
    142. D(Al 12,H   3,Al  0,Al  8)    -84.9305         0.004406   
    143. D(Al 12,H   3,Al  0,H   2)      0.4887         0.004406   
    144. D(Al 12,H   3,Al  0,H   5)   -179.4081         0.004406   
    145. D(Al 12,H   3,Al  0,H   7)     91.2104         0.004406   
    146. D(Al 12,H   3,Al  0,Al  4)    135.9452         0.004406   
    147. D(Al 12,H   3,Al  0,Al 16)   -114.8162         0.004406   
    148. D(Al 12,H   3,H   1,Al 16)   -120.6295         0.001500   
    149. D(H   5,Al  4,Al  0,H   1)    -91.2544         0.002184   
    150. D(H   5,Al  4,Al  0,H   3)     89.1297         0.002184   
    151. D(H   5,Al  4,Al  0,Al 16)    -71.0487         0.002184   
    152. D(H   5,Al  4,Al  0,Al 12)    124.2664         0.002184   
    153. D(H  10,Al  4,Al  0,H  15)    -91.4678         0.002184   
    154. D(H   7,Al  4,Al  0,Al  8)    150.0496         0.002184   
    155. D(H  10,Al  4,Al  0,H   5)    -90.1413         0.002184   
    156. D(H  10,Al  4,Al  0,H   1)    178.6043         0.002184   
    157. D(H  10,Al  4,Al  0,Al 12)     34.1251         0.002184   
    158. D(H   5,Al  4,Al  0,H   2)   -179.9469         0.002184   
    159. D(H   6,Al  4,Al  0,Al 16)     18.5051         0.002184   
    160. D(H   5,Al  4,Al  0,H   7)   -179.4181         0.002184   
    161. D(H   6,Al  4,Al  0,H   1)     -1.7006         0.002184   
    162. D(H   5,Al  4,Al  0,Al  8)    -29.3685         0.002184   
    163. D(H  10,Al  4,Al  0,H   2)     89.9118         0.002184   
    164. D(H   6,Al  4,Al  0,H   3)    178.6835         0.002184   
    165. D(H   7,Al  4,Al  0,H   3)    -91.4523         0.002184   
    166. D(H  10,Al  4,Al  0,H   3)     -1.0116         0.002184   
    167. D(H   5,Al  4,Al  0,H  15)     -1.3265         0.002184   
    168. D(H   7,Al  4,Al  0,H   5)    179.4181         0.002184   
    169. D(H  10,Al  4,Al  0,Al 16)   -161.1900         0.002184   
    170. D(H  10,Al  4,Al  0,H   7)     90.4406         0.002184   
    171. D(H   6,Al  4,Al  0,H   5)     89.5538         0.002184   
    172. D(H  10,Al  4,Al  0,Al  8)   -119.5098         0.002184   
    173. D(H   6,Al  4,Al  0,Al  8)     60.1853         0.002184   
    174. D(H   6,Al  4,Al  0,H   7)    -89.8643         0.002184   
    175. D(H   7,Al  4,Al  0,Al 12)    -56.3155         0.002184   
    176. D(H   7,Al  4,Al  0,Al 16)    108.3694         0.002184   
    177. D(H   7,Al  4,Al  0,H   2)     -0.5289         0.002184   
    178. D(H   7,Al  4,Al  0,H   1)     88.1636         0.002184   
    179. D(H   6,Al  4,Al  0,Al 12)   -146.1798         0.002184   
    180. D(H   6,Al  4,Al  0,H   2)    -90.3931         0.002184   
    181. D(H   6,Al  4,Al  0,H  15)     88.2273         0.002184   
    182. D(H   7,Al  4,Al  0,H  15)    178.0916         0.002184   
    183. D(Al  4,H   5,Al  0,H  15)    179.0284         0.004669   
    184. D(Al  4,H   5,Al  0,Al 12)    -92.4365         0.004669   
    185. D(Al  4,H   5,Al  0,Al  8)    159.6709         0.004669   
    186. D(Al  4,H   5,Al  0,H   1)     89.8537         0.004669   
    187. D(Al  4,H   5,Al  0,H   7)      0.4094         0.004669   
    188. D(Al  4,H   5,Al  0,Al 16)    107.2748         0.004669   
    189. D(Al  4,H   5,Al  0,H   3)    -91.8442         0.004669   
    190. D(Al  0,H   5,Al  4,H  10)    115.1271         0.004454   
    191. D(Al  0,H   5,Al  4,H   7)     -0.4190         0.004454   
    192. D(Al  0,H   5,Al  4,H   6)   -115.3548         0.004454   
    193. D(Al  4,H   5,H   2,Al 12)    -92.3314         0.001500   
    194. D(Al  4,H   7,Al  0,H   2)    179.6290         0.004423   
    195. D(Al  0,H   7,Al  4,H   6)    115.3077         0.004411   
    196. D(Al  4,H   7,Al  0,Al 12)    134.9391         0.004423   
    197. D(Al  4,H   7,Al  0,Al 16)    -80.3824         0.004423   
    198. D(Al  4,H   7,Al  0,Al  8)   -100.0727         0.004423   
    199. D(Al  0,H   7,Al  4,H  10)   -115.0901         0.004411   
    200. D(Al  4,H   7,Al  0,H   5)     -0.4090         0.004423   
    201. D(Al  4,H   7,Al  0,H   3)     90.1948         0.004423   
    202. D(Al  0,H   7,Al  4,H   5)      0.4165         0.004411   
    203. D(Al  4,H   7,Al  0,H   1)    -92.0519         0.004423   
    204. D(H  11,Al  8,Al  0,Al 12)    158.7875         0.001503   
    205. D(H  19,Al  8,Al  0,Al 16)    131.7135         0.001503   
    206. D(H  19,Al  8,Al  0,H   5)     56.4670         0.001503   
    207. D(H  15,Al  8,Al  0,Al  4)     93.9990         0.001503   
    208. D(H  19,Al  8,Al  0,H   2)   -123.5325         0.001503   
    209. D(H  19,Al  8,Al  0,H   1)    146.7196         0.001503   
    210. D(Al 16,Al  8,Al  0,H  15)   -149.0319         0.001503   
    211. D(Al 16,Al  8,Al  0,H   5)    -75.2465         0.001503   
    212. D(Al 16,Al  8,Al  0,H   3)   -167.2595         0.001503   
    213. D(Al 16,Al  8,Al  0,H   2)    104.7541         0.001503   
    214. D(Al 16,Al  8,Al  0,H   1)     15.0061         0.001503   
    215. D(Al 16,Al  8,Al  0,Al  4)    -55.0330         0.001503   
    216. D(Al 16,Al  8,Al  0,Al 12)    147.4675         0.001503   
    217. D(H  15,Al  8,Al  0,H   5)     73.7854         0.001503   
    218. D(Al 16,Al  8,Al  0,H   7)     23.5585         0.001503   
    219. D(H  19,Al  8,Al  0,Al  4)     76.6805         0.001503   
    220. D(H  15,Al  8,Al  0,H   3)    -18.2276         0.001503   
    221. D(H  15,Al  8,Al  0,H   2)   -106.2140         0.001503   
    222. D(H  15,Al  8,Al  0,H   1)    164.0380         0.001503   
    223. D(H  19,Al  8,Al  0,H   3)    -35.5461         0.001503   
    224. D(H  11,Al  8,Al  0,Al 16)     11.3199         0.001503   
    225. D(H  11,Al  8,Al  0,H  15)   -137.7120         0.001503   
    226. D(H  15,Al  8,Al  0,H   7)    172.5905         0.001503   
    227. D(H  15,Al  8,Al  0,Al 12)    -63.5005         0.001503   
    228. D(H  15,Al  8,Al  0,Al 16)    149.0319         0.001503   
    229. D(H  19,Al  8,Al  0,H  15)    -17.3185         0.001503   
    230. D(H  11,Al  8,Al  0,H   7)     34.8785         0.001503   
    231. D(H  11,Al  8,Al  0,H   5)    -63.9266         0.001503   
    232. D(H  11,Al  8,Al  0,Al  4)    -43.7131         0.001503   
    233. D(H  11,Al  8,Al  0,H   3)   -155.9396         0.001503   
    234. D(H  11,Al  8,Al  0,H   2)    116.0740         0.001503   
    235. D(H   9,Al  8,Al  0,Al 16)    -98.7386         0.001503   
    236. D(H   9,Al  8,Al  0,H  15)    112.2294         0.001503   
    237. D(H   9,Al  8,Al  0,Al 12)     48.7289         0.001503   
    238. D(H  11,Al  8,Al  0,H   1)     26.3260         0.001503   
    239. D(H   9,Al  8,Al  0,H   7)    -75.1801         0.001503   
    240. D(H  19,Al  8,Al  0,Al 12)    -80.8190         0.001503   
    241. D(H   9,Al  8,Al  0,Al  4)   -153.7716         0.001503   
    242. D(H  19,Al  8,Al  0,H   7)    155.2720         0.001503   
    243. D(H   9,Al  8,Al  0,H   1)    -83.7325         0.001503   
    244. D(H   9,Al  8,Al  0,H   3)     94.0019         0.001503   
    245. D(H   9,Al  8,Al  0,H   2)      6.0154         0.001503   
    246. D(H   9,Al  8,Al  0,H   5)   -173.9851         0.001503   
    247. D(Al 16,H  11,Al  8,H  19)   -154.5349         0.004582   
    248. D(Al 16,H  11,Al  8,Al  0)    -19.6556         0.004582   
    249. D(Al 16,H  11,Al  8,H  15)    -33.8780         0.004582   
    250. D(Al 16,H  11,Al  8,H   9)     83.7386         0.004582   
    251. D(H   2,Al 12,Al  0,Al  4)    124.4430         0.002194   
    252. D(H   2,Al 12,Al  0,H   3)    179.3053         0.002194   
    253. D(H   2,Al 12,Al  0,H   1)     -2.9831         0.002194   
    254. D(H  14,Al 12,H   3,Al  0)   -116.8373         0.004443   
    255. D(H  13,Al 12,H   3,Al  0)    114.3675         0.004443   
    256. D(H   2,Al 12,H   3,Al  0)     -0.4976         0.004443   
    257. D(H  14,Al 12,H   2,Al  0)    116.0137         0.004448   
    258. D(H  13,Al 12,H   2,Al  0)   -114.0165         0.004448   
    259. D(H  14,Al 12,Al  0,Al 16)   -121.4957         0.002194   
    260. D(H  14,Al 12,Al  0,H  15)    177.6485         0.002194   
    261. D(H  14,Al 12,Al  0,Al  8)   -164.3652         0.002194   
    262. D(H  14,Al 12,Al  0,H   5)     89.8917         0.002194   
    263. D(H  14,Al 12,Al  0,Al  4)     34.1875         0.002194   
    264. D(H  14,Al 12,Al  0,H   3)     89.0497         0.002194   
    265. D(H  14,Al 12,Al  0,H   1)    -93.2386         0.002194   
    266. D(H  13,Al 12,Al  0,Al 16)     59.2868         0.002194   
    267. D(H  13,Al 12,Al  0,H  15)     -1.5691         0.002194   
    268. D(H  13,Al 12,Al  0,Al  8)     16.4173         0.002194   
    269. D(H  13,Al 12,Al  0,H   7)    179.1014         0.002194   
    270. D(H  13,Al 12,Al  0,H   5)    -89.3258         0.002194   
    271. D(H  13,Al 12,Al  0,Al  4)   -145.0301         0.002194   
    272. D(H  13,Al 12,Al  0,H   3)    -90.1678         0.002194   
    273. D(H  13,Al 12,Al  0,H   2)     90.5269         0.002194   
    274. D(H  13,Al 12,Al  0,H   1)     87.5438         0.002194   
    275. D(H   3,Al 12,Al  0,Al 16)    149.4546         0.002194   
    276. D(H  14,Al 12,Al  0,H   2)    -90.2555         0.002194   
    277. D(H   3,Al 12,Al  0,H  15)     88.5987         0.002194   
    278. D(H   3,Al 12,Al  0,Al  8)    106.5851         0.002194   
    279. D(H   3,Al 12,Al  0,H   7)    -90.7308         0.002194   
    280. D(H  14,Al 12,Al  0,H   7)     -1.6811         0.002194   
    281. D(H   3,Al 12,Al  0,H   5)      0.8420         0.002194   
    282. D(H   3,Al 12,Al  0,Al  4)    -54.8623         0.002194   
    283. D(H   3,Al 12,Al  0,H   2)   -179.3053         0.002194   
    284. D(H   3,Al 12,H   2,Al  0)      0.5009         0.004448   
    285. D(H   3,Al 12,Al  0,H   1)    177.7116         0.002194   
    286. D(H   2,Al 12,Al  0,Al 16)    -31.2401         0.002194   
    287. D(H   2,Al 12,Al  0,H  15)    -92.0960         0.002194   
    288. D(H   2,Al 12,Al  0,Al  8)    -74.1096         0.002194   
    289. D(H   2,Al 12,Al  0,H   7)     88.5745         0.002194   
    290. D(H   2,Al 12,Al  0,H   5)   -179.8527         0.002194   
    291. D(Al  0,H  15,Al  8,H  19)    165.9214         0.004573   
    292. D(Al  0,H  15,Al  8,H  11)     44.7581         0.004573   
    293. D(Al  0,H  15,Al  8,H   9)    -73.0792         0.004573   
    294. D(Al  8,H  15,H   7,Al  4)   -105.4868         0.001500   
    295. D(Al  8,H  15,Al  0,Al 16)    -25.9742         0.004878   
    296. D(Al  8,H  15,Al  0,Al 12)    118.0373         0.004878   
    297. D(Al  8,H  15,Al  0,H   5)   -106.6142         0.004878   
    298. D(Al  8,H  15,Al  0,Al  4)   -105.6816         0.004878   
    299. D(Al  8,H  15,Al  0,H   3)    162.7313         0.004878   
    300. D(Al  0,H  15,Al  8,Al 16)     27.6804         0.004573   
    301. D(Al  8,H  15,Al  0,H   2)     73.3503         0.004878   
    302. D(Al  8,H  15,Al  0,H   1)    -14.9535         0.004878   
    303. D(H  18,Al 16,H  11,Al  8)    125.8137         0.004507   
    304. D(H  17,Al 16,H  11,Al  8)   -113.5134         0.004507   
    305. D(H   1,Al 16,H  11,Al  8)      8.0225         0.004507   
    306. D(H  18,Al 16,Al  8,H  19)    -31.3836         0.001520   
    307. D(H  18,Al 16,Al  8,H  15)     78.9859         0.001520   
    308. D(H  18,Al 16,Al  8,H  11)    -68.3985         0.001520   
    309. D(H  18,Al 16,Al  8,H   9)   -173.7537         0.001520   
    310. D(H  18,Al 16,Al  8,Al  0)     89.4533         0.001520   
    311. D(H  17,Al 16,Al  8,H  19)    117.5461         0.001520   
    312. D(H  17,Al 16,Al  8,H  15)   -132.0844         0.001520   
    313. D(H  17,Al 16,Al  8,H   9)    -24.8240         0.001520   
    314. D(H  17,Al 16,Al  8,Al  0)   -121.6170         0.001520   
    315. D(H  11,Al 16,Al  8,H  19)     37.0150         0.001520   
    316. D(H  11,Al 16,Al  8,H   9)   -105.3551         0.001520   
    317. D(H  11,Al 16,Al  8,Al  0)    157.8518         0.001520   
    318. D(H   1,Al 16,Al  8,H  19)   -135.2836         0.001520   
    319. D(H   1,Al 16,Al  8,H  11)   -172.2985         0.001520   
    320. D(H   1,Al 16,Al  8,H   9)     82.3463         0.001520   
    321. D(H   1,Al 16,Al  8,Al  0)    -14.4467         0.001520   
    322. D(Al  0,Al 16,Al  8,H  19)   -120.8369         0.001520   
    323. D(Al  0,Al 16,Al  8,H  15)    -10.4674         0.001520   
    324. D(Al  0,Al 16,Al  8,H  11)   -157.8518         0.001520   
    325. D(Al  0,Al 16,Al  8,H   9)     96.7930         0.001520   
    326. D(H  17,Al 16,H   1,Al  0)    155.9280         0.004407   
    327. D(H  11,Al 16,H   1,Al  0)     34.6790         0.004407   
    328. D(Al  8,Al 16,H   1,Al  0)     38.9169         0.004407   
    329. D(H  18,Al 16,Al  0,Al 12)   -177.7494         0.001503   
    330. D(H  18,Al 16,Al  0,Al  8)   -121.6290         0.001503   
    331. D(H  18,Al 16,Al  0,H   7)     66.9618         0.001503   
    332. D(H  18,Al 16,Al  0,Al  4)     22.8225         0.001503   
    333. D(H  18,Al 16,Al  0,H   3)    -85.8236         0.001503   
    334. D(H  18,Al 16,Al  0,H   2)    160.5514         0.001503   
    335. D(H  18,Al 16,Al  0,H   1)    102.0927         0.001503   
    336. D(H  17,Al 16,Al  0,H  15)    117.6046         0.001503   
    337. D(H  17,Al 16,Al  0,Al 12)     50.7078         0.001503   
    338. D(H  17,Al 16,Al  0,Al  8)    106.8282         0.001503   
    339. D(H  17,Al 16,Al  0,H   7)    -64.5811         0.001503   
    340. D(H  18,Al 16,Al  0,H   5)    -19.5362         0.001503   
    341. D(H  17,Al 16,Al  0,H   5)   -151.0790         0.001503   
    342. D(H  17,Al 16,Al  0,Al  4)   -108.7204         0.001503   
    343. D(H  17,Al 16,Al  0,H   3)    142.6336         0.001503   
    344. D(H  18,Al 16,Al  0,H  15)   -110.8526         0.001503   
    345. D(H  17,Al 16,Al  0,H   2)     29.0086         0.001503   
    346. D(H  17,Al 16,Al  0,H   1)    -29.4501         0.001503   
    347. D(H  11,Al 16,Al  0,H  15)     -0.5214         0.001503   
    348. D(H  18,Al 16,H   1,Al  0)    -83.8882         0.004407   
    349. D(H  11,Al 16,Al  0,Al 12)    -67.4182         0.001503   
    350. D(H  11,Al 16,Al  0,Al  8)    -11.2978         0.001503   
    351. D(H  11,Al 16,Al  0,H   7)    177.2929         0.001503   
    352. D(H  11,Al 16,Al  0,H   5)     90.7950         0.001503   
    353. D(H  11,Al 16,Al  0,Al  4)    133.1537         0.001503   
    354. D(H  11,Al 16,Al  0,H   3)     24.5076         0.001503   
    355. D(H  11,Al 16,Al  0,H   2)    -89.1174         0.001503   
    356. D(H   1,Al 16,Al  8,H  15)    -24.9141         0.001520   
    357. D(H  11,Al 16,Al  0,H   1)   -147.5761         0.001503   
    358. D(Al  8,Al 16,Al  0,H  15)     10.7764         0.001503   
    359. D(Al  8,Al 16,Al  0,Al 12)    -56.1204         0.001503   
    360. D(H  11,Al 16,Al  8,H  15)    147.3845         0.001520   
    361. D(Al  8,Al 16,Al  0,H   7)   -171.4093         0.001503   
    362. D(Al  8,Al 16,Al  0,H   5)    102.0928         0.001503   
    363. D(Al  8,Al 16,Al  0,Al  4)    144.4515         0.001503   
    364. D(H  17,Al 16,Al  8,H  11)     80.5311         0.001520   
    365. D(Al  8,Al 16,Al  0,H   3)     35.8054         0.001503   
    366. D(Al  8,Al 16,Al  0,H   2)    -77.8196         0.001503   
    367. D(Al  8,Al 16,Al  0,H   1)   -136.2783         0.001503   
    368. D(H   1,Al 16,Al  0,H  15)    147.0547         0.001503   
    369. D(H   1,Al 16,Al  0,Al 12)     80.1579         0.001503   
    370. D(H   1,Al 16,Al  0,Al  8)    136.2783         0.001503   
    371. D(H   1,Al 16,Al  0,H   7)    -35.1309         0.001503   
    372. D(Al  0,Al 16,H  11,Al  8)     19.6504         0.004507   
    373. D(H   1,Al 16,Al  0,H   5)   -121.6289         0.001503   
    374. D(H   1,Al 16,Al  0,Al  4)    -79.2702         0.001503   
    375. D(H   1,Al 16,Al  0,H   3)    172.0837         0.001503   
    376. D(H   1,Al 16,Al  0,H   2)     58.4587         0.001503   
    -----------------------------------------------------------------

Number of atoms                         .... 20
Number of degrees of freedom            .... 376

Time needed for optimization step       :     1.34 sec

         *************************************************************
         *                GEOMETRY OPTIMIZATION CYCLE   1            *
         *************************************************************
---------------------------------
CARTESIAN COORDINATES (ANGSTROEM)
---------------------------------
  Al    -0.000000    0.000000    3.701180
  H     -0.663510    1.048610    2.504780
  H     -1.585980   -0.649470    3.938700
  H      0.616330   -1.120890    4.883330
  Al     1.277540    1.820090    4.652480
  H      1.586410    0.648150    3.460670
  H      1.268690    3.300450    4.055150
  H     -0.293640    1.219030    4.908960
  Al    -0.076980   -1.476510    0.847410
  H     -1.575360   -2.025550    0.803530
  H      2.217810    1.657360    5.935040
  H      0.000000   -0.000000    0.000000
  Al    -0.954420   -1.741940    5.077920
  H     -1.059360   -3.257560    4.584460
  H     -1.520900   -1.518220    6.553970
  H      0.340250   -1.153190    2.468150
  Al    -0.436850    1.415790    0.848350
  H     -1.772340    2.031210    0.227460
  H      0.753680    2.474210    0.742290
  H      0.923810   -2.551540    0.221510

----------------------------
CARTESIAN COORDINATES (A.U.)
----------------------------
  NO LB      ZA    FRAG     MASS         X           Y           Z
   0 Al   13.0000    0    26.982   -0.000000    0.000000    6.994217
   1 H     1.0000    0     1.008   -1.253852    1.981586    4.733348
   2 H     1.0000    0     1.008   -2.997068   -1.227320    7.443064
   3 H     1.0000    0     1.008    1.164695   -2.118175    9.228156
   4 Al   13.0000    0    26.982    2.414201    3.439472    8.791913
   5 H     1.0000    0     1.008    2.997880    1.224826    6.539719
   6 H     1.0000    0     1.008    2.397477    6.236947    7.663123
   7 H     1.0000    0     1.008   -0.554899    2.303633    9.276590
   8 Al   13.0000    0    26.982   -0.145471   -2.790200    1.601373
   9 H     1.0000    0     1.008   -2.976999   -3.827735    1.518452
  10 H     1.0000    0     1.008    4.191054    3.131957   11.215600
  11 H     1.0000    0     1.008    0.000000   -0.000000    0.000000
  12 Al   13.0000    0    26.982   -1.803592   -3.291790    9.595878
  13 H     1.0000    0     1.008   -2.001900   -6.155896    8.663374
  14 H     1.0000    0     1.008   -2.874084   -2.869020   12.385208
  15 H     1.0000    0     1.008    0.642979   -2.179213    4.664128
  16 Al   13.0000    0    26.982   -0.825527    2.675455    1.603149
  17 H     1.0000    0     1.008   -3.349237    3.838431    0.429837
  18 H     1.0000    0     1.008    1.424249    4.675579    1.402725
  19 H     1.0000    0     1.008    1.745748   -4.821712    0.418593

--------------------------------
INTERNAL COORDINATES (ANGSTROEM)
--------------------------------
 Al     0   0   0     0.000000000000     0.00000000     0.00000000
 H      1   0   0     1.723717323751     0.00000000     0.00000000
 H      1   2   0     1.730190622937    88.32635972     0.00000000
 H      1   2   3     1.741762235065   177.16909047    36.75960913
 Al     1   2   3     2.418637581305    91.06146099   224.55718098
 H      5   1   2     1.699780902528    45.68210991   268.74556583
 H      5   1   2     1.596354340678   123.21239986   358.29937828
 H      5   1   2     1.701664392999    46.03429975    88.16364196
 Al     2   1   3     3.076869150971    78.53550889   273.81522912
 H      9   2   1     1.596406276735    96.78449475   101.53650200
 H      5   1   2     1.598608419658   123.34215260   178.60428129
 H      9   2   1     1.704145360173    64.24080793   209.46992167
 Al     3   1   2     1.700053217667    89.58066249   177.81745239
 H     13   3   1     1.597378840351   112.22868275   245.98350204
 H     13   3   1     1.596769811620   113.42937269   116.01373222
 H      9   2   1     1.704527747765    51.59731513   352.97313239
 Al    12   9   2     1.707336220286   117.37616364   355.34420674
 H     17  12   9     1.596176590669   109.90841781   246.48655121
 H     17  12   9     1.596515988301   109.02248023   125.81372251
 H      9   2   1     1.596565355693   152.03751747   296.25069311

---------------------------
INTERNAL COORDINATES (A.U.)
---------------------------
 Al     0   0   0     0.000000000000     0.00000000     0.00000000
 H      1   0   0     3.257353674185     0.00000000     0.00000000
 H      1   2   0     3.269586436830    88.32635972     0.00000000
 H      1   2   3     3.291453614680   177.16909047    36.75960913
 Al     1   2   3     4.570562645876    91.06146099   224.55718098
 H      5   1   2     3.212120393448    45.68210991   268.74556583
 H      5   1   2     3.016672516577   123.21239986   358.29937828
 H      5   1   2     3.215679674613    46.03429975    88.16364196
 Al     2   1   3     5.814440045247    78.53550889   273.81522912
 H      9   2   1     3.016770661503    96.78449475   101.53650200
 H      5   1   2     3.020932108533   123.34215260   178.60428129
 H      9   2   1     3.220368023120    64.24080793   209.46992167
 Al     3   1   2     3.212634994482    89.58066249   177.81745239
 H     13   3   1     3.018608540383   112.22868275   245.98350204
 H     13   3   1     3.017457642874   113.42937269   116.01373222
 H      9   2   1     3.221090630945    51.59731513   352.97313239
 Al    12   9   2     3.226397874865   117.37616364   355.34420674
 H     17  12   9     3.016336617741   109.90841781   246.48655121
 H     17  12   9     3.016977986315   109.02248023   125.81372251
 H      9   2   1     3.017071277167   152.03751747   296.25069311

---------------------
BASIS SET INFORMATION
---------------------
There are 2 groups of distinct atoms

 Group   1 Type Al  : 35s21p4d2f1g contracted to 6s5p4d2f1g pattern {121010111/99111/1111/11/1}
 Group   2 Type H   : 9s4p2d1f contracted to 5s4p2d1f pattern {51111/1111/11/1}

Atom   0Al   basis set group =>   1
Atom   1H    basis set group =>   2
Atom   2H    basis set group =>   2
Atom   3H    basis set group =>   2
Atom   4Al   basis set group =>   1
Atom   5H    basis set group =>   2
Atom   6H    basis set group =>   2
Atom   7H    basis set group =>   2
Atom   8Al   basis set group =>   1
Atom   9H    basis set group =>   2
Atom  10H    basis set group =>   2
Atom  11H    basis set group =>   2
Atom  12Al   basis set group =>   1
Atom  13H    basis set group =>   2
Atom  14H    basis set group =>   2
Atom  15H    basis set group =>   2
Atom  16Al   basis set group =>   1
Atom  17H    basis set group =>   2
Atom  18H    basis set group =>   2
Atom  19H    basis set group =>   2
---------------------------------
AUXILIARY/J BASIS SET INFORMATION
---------------------------------
There are 2 groups of distinct atoms

 Group   1 Type Al  : 19s16p15d8f8g5h contracted to 19s16p15d8f8g5h pattern {1111111111111111111/1111111111111111/111111111111111/11111111/11111111/11111}
 Group   2 Type H   : 15s7p6d4f4g contracted to 15s7p6d4f4g pattern {111111111111111/1111111/111111/1111/1111}

Atom   0Al   basis set group =>   1
Atom   1H    basis set group =>   2
Atom   2H    basis set group =>   2
Atom   3H    basis set group =>   2
Atom   4Al   basis set group =>   1
Atom   5H    basis set group =>   2
Atom   6H    basis set group =>   2
Atom   7H    basis set group =>   2
Atom   8Al   basis set group =>   1
Atom   9H    basis set group =>   2
Atom  10H    basis set group =>   2
Atom  11H    basis set group =>   2
Atom  12Al   basis set group =>   1
Atom  13H    basis set group =>   2
Atom  14H    basis set group =>   2
Atom  15H    basis set group =>   2
Atom  16Al   basis set group =>   1
Atom  17H    basis set group =>   2
Atom  18H    basis set group =>   2
Atom  19H    basis set group =>   2
---------------------------------
AUXILIARY/C BASIS SET INFORMATION
---------------------------------
There are 2 groups of distinct atoms

 Group   1 Type Al  : 19s16p15d8f8g5h contracted to 19s16p15d8f8g5h pattern {1111111111111111111/1111111111111111/111111111111111/11111111/11111111/11111}
 Group   2 Type H   : 15s7p6d4f4g contracted to 15s7p6d4f4g pattern {111111111111111/1111111/111111/1111/1111}

Atom   0Al   basis set group =>   1
Atom   1H    basis set group =>   2
Atom   2H    basis set group =>   2
Atom   3H    basis set group =>   2
Atom   4Al   basis set group =>   1
Atom   5H    basis set group =>   2
Atom   6H    basis set group =>   2
Atom   7H    basis set group =>   2
Atom   8Al   basis set group =>   1
Atom   9H    basis set group =>   2
Atom  10H    basis set group =>   2
Atom  11H    basis set group =>   2
Atom  12Al   basis set group =>   1
Atom  13H    basis set group =>   2
Atom  14H    basis set group =>   2
Atom  15H    basis set group =>   2
Atom  16Al   basis set group =>   1
Atom  17H    basis set group =>   2
Atom  18H    basis set group =>   2
Atom  19H    basis set group =>   2
----------------------------------
AUXILIARY/JK BASIS SET INFORMATION
----------------------------------
There are 2 groups of distinct atoms

 Group   1 Type Al  : 19s16p15d8f8g5h contracted to 19s16p15d8f8g5h pattern {1111111111111111111/1111111111111111/111111111111111/11111111/11111111/11111}
 Group   2 Type H   : 15s7p6d4f4g contracted to 15s7p6d4f4g pattern {111111111111111/1111111/111111/1111/1111}

Atom   0Al   basis set group =>   1
Atom   1H    basis set group =>   2
Atom   2H    basis set group =>   2
Atom   3H    basis set group =>   2
Atom   4Al   basis set group =>   1
Atom   5H    basis set group =>   2
Atom   6H    basis set group =>   2
Atom   7H    basis set group =>   2
Atom   8Al   basis set group =>   1
Atom   9H    basis set group =>   2
Atom  10H    basis set group =>   2
Atom  11H    basis set group =>   2
Atom  12Al   basis set group =>   1
Atom  13H    basis set group =>   2
Atom  14H    basis set group =>   2
Atom  15H    basis set group =>   2
Atom  16Al   basis set group =>   1
Atom  17H    basis set group =>   2
Atom  18H    basis set group =>   2
Atom  19H    basis set group =>   2
------------------------------------------------------------------------------
                           ORCA GTO INTEGRAL CALCULATION
                           -- RI-GTO INTEGRALS CHOSEN --
------------------------------------------------------------------------------
------------------------------------------------------------------------------
                   ___                                                        
                  /   \      - P O W E R E D   B Y -                         
                 /     \                                                     
                 |  |  |   _    _      __       _____    __    __             
                 |  |  |  | |  | |    /  \     |  _  \  |  |  /  |          
                  \  \/   | |  | |   /    \    | | | |  |  | /  /          
                 / \  \   | |__| |  /  /\  \   | |_| |  |  |/  /          
                |  |  |   |  __  | /  /__\  \  |    /   |      \           
                |  |  |   | |  | | |   __   |  |    \   |  |\   \          
                \     /   | |  | | |  |  |  |  | |\  \  |  | \   \       
                 \___/    |_|  |_| |__|  |__|  |_| \__\ |__|  \__/        
                                                                              
                      - O R C A' S   B I G   F R I E N D -                    
                                      &                                       
                       - I N T E G R A L  F E E D E R -                       
                                                                              
 v1 FN, 2020, v2 2021                                                         
------------------------------------------------------------------------------


Reading SHARK input file run.SHARKINP.tmp ... ok
----------------------
SHARK INTEGRAL PACKAGE
----------------------

Number of atoms                             ...     20
Number of basis functions                   ...    830
Number of shells                            ...    270
Maximum angular momentum                    ...      4
Integral batch strategy                     ... SHARK/LIBINT Hybrid
RI-J (if used) integral strategy            ... SPLIT-RIJ (Revised 2003 algorithm where possible)
Printlevel                                  ...      1
Contraction scheme used                     ... SEGMENTED contraction
Coulomb Range Separation                    ... NOT USED
Exchange Range Separation                   ... NOT USED
Finite Nucleus Model                        ... NOT USED
Auxiliary Coulomb fitting basis             ... AVAILABLE
   # of basis functions in Aux-J            ...   3575
   # of shells in Aux-J                     ...    895
   Maximum angular momentum in Aux-J        ...      5
Auxiliary J/K fitting basis                 ... AVAILABLE
   # of basis functions in Aux-JK           ...   3575
   # of shells in Aux-JK                    ...    895
   Maximum angular momentum in Aux-JK       ...      5
Auxiliary Correlation fitting basis         ... AVAILABLE
   # of basis functions in Aux-C            ...   3575
   # of shells in Aux-C                     ...    895
   Maximum angular momentum in Aux-C        ...      5
Auxiliary 'external' fitting basis          ... NOT available
Integral threshold                          ...     2.500000e-11
Primitive cut-off                           ...     2.500000e-12
Primitive pair pre-selection threshold      ...     2.500000e-12

Calculating pre-screening integrals         ... done (  3.0 sec) Dimension = 270
Organizing shell pair data                  ... done (  1.7 sec)
Shell pair information
Total number of shell pairs                 ...     36585
Shell pairs after pre-screening             ...     28620
Total number of primitive shell pairs       ...    155580
Primitive shell pairs kept                  ...     77724
          la=0 lb=0:   4749 shell pairs
          la=1 lb=0:   7302 shell pairs
          la=1 lb=1:   2833 shell pairs
          la=2 lb=0:   4115 shell pairs
          la=2 lb=1:   3084 shell pairs
          la=2 lb=2:    860 shell pairs
          la=3 lb=0:   2033 shell pairs
          la=3 lb=1:   1457 shell pairs
          la=3 lb=2:    805 shell pairs
          la=3 lb=3:    209 shell pairs
          la=4 lb=0:    470 shell pairs
          la=4 lb=1:    370 shell pairs
          la=4 lb=2:    213 shell pairs
          la=4 lb=3:    105 shell pairs
          la=4 lb=4:     15 shell pairs

Calculating one electron integrals          ... done (  0.6 sec)
Calculating RI/J V-Matrix + Cholesky decomp.... done (  3.3 sec)
Calculating RI/JK V-Matrix + Cholesky decomp... done (  2.9 sec)
Calculating RI/C V-Matrix + Cholesky decomp.... done (  2.9 sec)
Calculating Nuclear repulsion               ... done (  0.0 sec) ENN=    448.878361160319 Eh

SHARK setup successfully completed in  20.7 seconds

Maximum memory used throughout the entire GTOINT-calculation: 728.1 MB
-------------------------------------------------------------------------------
                                 ORCA SCF
-------------------------------------------------------------------------------

------------
SCF SETTINGS
------------
Hamiltonian:
 Density Functional     Method          .... DFT(GTOs)
 Exchange Functional    Exchange        .... PBE
   PBE kappa parameter   XKappa         ....  0.804000
   PBE mue parameter    XMuePBE         ....  0.219520
 Correlation Functional Correlation     .... PBE
   PBE beta parameter  CBetaPBE         ....  0.066725
 LDA part of GGA corr.  LDAOpt          .... PW91-LDA
 Gradients option       PostSCFGGA      .... off
   Density functional embedding theory  .... OFF
   NL short-range parameter             ....  6.400000
 RI-approximation to the Coulomb term is turned on
   Number of AuxJ basis functions       .... 3575


General Settings:
 Integral files         IntName         .... run
 Hartree-Fock type      HFTyp           .... RHF
 Total Charge           Charge          ....    0
 Multiplicity           Mult            ....    1
 Number of Electrons    NEL             ....   80
 Basis Dimension        Dim             ....  830
 Nuclear Repulsion      ENuc            ....    448.8783611603 Eh

Convergence Acceleration:
 DIIS                   CNVDIIS         .... on
   Start iteration      DIISMaxIt       ....    12
   Startup error        DIISStart       ....  0.200000
   # of expansion vecs  DIISMaxEq       ....     5
   Bias factor          DIISBfac        ....   1.050
   Max. coefficient     DIISMaxC        ....  10.000
 Trust-Rad. Augm. Hess. CNVTRAH         .... auto
   Auto Start mean grad. ratio tolernc. ....  1.125000
   Auto Start start iteration           ....    20
   Auto Start num. interpolation iter.  ....    10
   Max. Number of Micro iterations      ....    16
   Max. Number of Macro iterations      .... Maxiter - #DIIS iter
   Number of Davidson start vectors     ....     2
   Converg. threshold I  (grad. norm)   ....   1.000e-05
   Converg. threshold II (energy diff.) ....   1.000e-08
   Grad. Scal. Fac. for Micro threshold ....   0.100
   Minimum threshold for Micro iter.    ....   0.010
   NR start threshold (gradient norm)   ....   0.001
   Initial trust radius                 ....   0.400
   Minimum AH scaling param. (alpha)    ....   1.000
   Maximum AH scaling param. (alpha)    .... 1000.000
   Orbital update algorithm             .... Taylor
   White noise on init. David. guess    .... on
   Maximum white noise                  ....   0.010
   Quad. conv. algorithm                .... NR
 SOSCF                  CNVSOSCF        .... on
   Start iteration      SOSCFMaxIt      ....   150
   Startup grad/error   SOSCFStart      ....  0.003300
 Level Shifting         CNVShift        .... on
   Level shift para.    LevelShift      ....    0.2500
   Turn off err/grad.   ShiftErr        ....    0.0010
 Zerner damping         CNVZerner       .... off
 Static damping         CNVDamp         .... on
   Fraction old density DampFac         ....    0.7000
   Max. Damping (<1)    DampMax         ....    0.9800
   Min. Damping (>=0)   DampMin         ....    0.0000
   Turn off err/grad.   DampErr         ....    0.1000
 Fernandez-Rico         CNVRico         .... off

SCF Procedure:
 Maximum # iterations   MaxIter         ....   125
 SCF integral mode      SCFMode         .... Direct
   Integral package                     .... SHARK and LIBINT hybrid scheme
 Reset frequency        DirectResetFreq ....    20
 Integral Threshold     Thresh          ....  2.500e-11 Eh
 Primitive CutOff       TCut            ....  2.500e-12 Eh

Convergence Tolerance:
 Convergence Check Mode ConvCheckMode   .... Total+1el-Energy
 Convergence forced     ConvForced      .... 0
 Energy Change          TolE            ....  1.000e-08 Eh
 1-El. energy change                    ....  1.000e-05 Eh
 Orbital Gradient       TolG            ....  1.000e-05
 Orbital Rotation angle TolX            ....  1.000e-05
 DIIS Error             TolErr          ....  5.000e-07


Diagonalization of the overlap matrix:
Smallest eigenvalue                        ... 4.281e-05
Time for diagonalization                   ...    0.694 sec
Threshold for overlap eigenvalues          ... 1.000e-08
Number of eigenvalues below threshold      ... 0
Time for construction of square roots      ...    0.313 sec
Total time needed                          ...    1.012 sec

Time for model grid setup =    1.609 sec

------------------------------
INITIAL GUESS: MODEL POTENTIAL
------------------------------
Loading Hartree-Fock densities                     ... done
Calculating cut-offs                               ... done
Initializing the effective Hamiltonian             ... done
Setting up the integral package (SHARK)            ... done
Starting the Coulomb interaction                   ... done (   4.8 sec)
Reading the grid                                   ... done
Mapping shells                                     ... done
Starting the XC term evaluation                    ... done (   3.1 sec)
  promolecular density results
     # of electrons  =     79.987475053
     EX              =    -94.605180153
     EC              =     -2.787316041
     EX+EC           =    -97.392496194
Transforming the Hamiltonian                       ... done (   0.3 sec)
Diagonalizing the Hamiltonian                      ... done (   0.6 sec)
Back transforming the eigenvectors                 ... done (   0.1 sec)
Now organizing SCF variables                       ... done
                      ------------------
                      INITIAL GUESS DONE (  10.5 sec)
                      ------------------
-------------------
DFT GRID GENERATION
-------------------

General Integration Accuracy     IntAcc      ... 4.959
Radial Grid Type                 RadialGrid  ... OptM3 with GC (2021)
Angular Grid (max. ang.)         AngularGrid ... 6 (Lebedev-590)
Angular grid pruning method      GridPruning ... 4 (adaptive)
Weight generation scheme         WeightScheme... Becke
Basis function cutoff            BFCut       ... 1.0000e-11
Integration weight cutoff        WCut        ... 1.0000e-14
Angular grids for H and He will be reduced by one unit
Partially contracted basis set               ... off
Rotationally invariant grid construction     ... off

Total number of grid points                  ...   221585
Total number of batches                      ...     3471
Average number of points per batch           ...       63
Average number of grid points per atom       ...    11079
Time for grid setup =   13.785 sec

--------------
SCF ITERATIONS
--------------
ITER       Energy         Delta-E        Max-DP      RMS-DP      [F,P]     Damp
               ***  Starting incremental Fock matrix formation  ***
  0  -1220.3854012554   0.000000000000 0.01333488  0.00011717  0.0879901 0.7000
  1  -1220.4092998059  -0.023898550449 0.01202191  0.00010815  0.0572617 0.7000
                               ***Turning on DIIS***
  2  -1220.4240861987  -0.014786392876 0.02583566  0.00025723  0.0323012 0.0000
  3  -1220.4462970914  -0.022210892629 0.01061441  0.00007319  0.0188375 0.0000
  4  -1220.4496085068  -0.003311415421 0.00241069  0.00002670  0.0040987 0.0000
                      *** Initiating the SOSCF procedure ***
                           *** Shutting down DIIS ***
                      *** Re-Reading the Fockian *** 
                      *** Removing any level shift *** 
ITER      Energy       Delta-E        Grad      Rot      Max-DP    RMS-DP
  5  -1220.44984087  -0.0002323663  0.000456  0.000456  0.000993  0.000011
               *** Restarting incremental Fock matrix formation ***
  6  -1220.44986899  -0.0000281133  0.000285  0.001394  0.000874  0.000009
  7  -1220.44987258  -0.0000035943  0.000147  0.000354  0.000229  0.000002
  8  -1220.44987408  -0.0000015018  0.000039  0.000094  0.000135  0.000001
  9  -1220.44987410  -0.0000000149  0.000030  0.000046  0.000061  0.000000
 10  -1220.44987428  -0.0000001841  0.000012  0.000029  0.000028  0.000000
 11  -1220.44987428   0.0000000038  0.000008  0.000013  0.000022  0.000000
                  ***Gradient check signals convergence***
              ***Rediagonalizing the Fockian in SOSCF/NRSCF***

               *****************************************************
               *                     SUCCESS                       *
               *           SCF CONVERGED AFTER  12 CYCLES          *
               *****************************************************


----------------
TOTAL SCF ENERGY
----------------

Total Energy       :        -1220.44987425 Eh          -33210.12945 eV

Components:
Nuclear Repulsion  :          448.87836116 Eh           12214.60119 eV
Electronic Energy  :        -1669.32823541 Eh          -45424.73063 eV
One Electron Energy:        -2588.64672781 Eh          -70440.65860 eV
Two Electron Energy:          919.31849240 Eh           25015.92796 eV

Virial components:
Potential Energy   :        -2439.81198165 Eh          -66390.65926 eV
Kinetic Energy     :         1219.36210739 Eh           33180.52981 eV
Virial Ratio       :            2.00089208


DFT components:
N(Alpha)           :       39.999999288587 electrons
N(Beta)            :       39.999999288587 electrons
N(Total)           :       79.999998577174 electrons
E(X)               :      -95.373214703613 Eh       
E(C)               :       -2.746305492213 Eh       
E(XC)              :      -98.119520195827 Eh       
DFET-embed. en.    :        0.000000000000 Eh       

---------------
SCF CONVERGENCE
---------------

  Last Energy change         ...    2.3109e-08  Tolerance :   1.0000e-08
  Last MAX-Density change    ...    3.1604e-05  Tolerance :   1.0000e-07
  Last RMS-Density change    ...    1.7157e-07  Tolerance :   5.0000e-09
  Last Orbital Gradient      ...    1.0153e-06  Tolerance :   1.0000e-05
  Last Orbital Rotation      ...    3.0076e-06  Tolerance :   1.0000e-05

             **** THE GBW FILE WAS UPDATED (run.gbw) ****
             **** DENSITY run.scfp WAS UPDATED ****
             **** ENERGY FILE WAS UPDATED (run.en.tmp) ****
             **** THE GBW FILE WAS UPDATED (run.gbw) ****
             **** DENSITY run.scfp WAS UPDATED ****
----------------
ORBITAL ENERGIES
----------------

  NO   OCC          E(Eh)            E(eV) 
   0   2.0000     -55.415837     -1507.9416 
   1   2.0000     -55.371885     -1506.7456 
   2   2.0000     -55.371031     -1506.7223 
   3   2.0000     -55.362429     -1506.4883 
   4   2.0000     -55.361942     -1506.4750 
   5   2.0000      -3.987059      -108.4934 
   6   2.0000      -3.945278      -107.3565 
   7   2.0000      -3.944231      -107.3280 
   8   2.0000      -3.938400      -107.1693 
   9   2.0000      -3.937865      -107.1548 
  10   2.0000      -2.588404       -70.4340 
  11   2.0000      -2.588336       -70.4322 
  12   2.0000      -2.588057       -70.4246 
  13   2.0000      -2.548890       -69.3588 
  14   2.0000      -2.547860       -69.3308 
  15   2.0000      -2.546629       -69.2973 
  16   2.0000      -2.545642       -69.2704 
  17   2.0000      -2.543271       -69.2059 
  18   2.0000      -2.542234       -69.1777 
  19   2.0000      -2.542131       -69.1749 
  20   2.0000      -2.541731       -69.1640 
  21   2.0000      -2.539450       -69.1020 
  22   2.0000      -2.538921       -69.0875 
  23   2.0000      -2.536321       -69.0168 
  24   2.0000      -2.535753       -69.0014 
  25   2.0000      -0.542613       -14.7652 
  26   2.0000      -0.471701       -12.8356 
  27   2.0000      -0.454417       -12.3653 
  28   2.0000      -0.399729       -10.8772 
  29   2.0000      -0.392435       -10.6787 
  30   2.0000      -0.365490        -9.9455 
  31   2.0000      -0.337371        -9.1803 
  32   2.0000      -0.322857        -8.7854 
  33   2.0000      -0.318567        -8.6687 
  34   2.0000      -0.304545        -8.2871 
  35   2.0000      -0.298497        -8.1225 
  36   2.0000      -0.274833        -7.4786 
  37   2.0000      -0.271786        -7.3957 
  38   2.0000      -0.267072        -7.2674 
  39   2.0000      -0.261225        -7.1083 
  40   0.0000      -0.101451        -2.7606 
  41   0.0000      -0.070451        -1.9171 
  42   0.0000      -0.064577        -1.7572 
  43   0.0000      -0.062622        -1.7040 
  44   0.0000      -0.055798        -1.5184 
  45   0.0000      -0.048780        -1.3274 
  46   0.0000      -0.047366        -1.2889 
  47   0.0000      -0.036737        -0.9997 
  48   0.0000      -0.018927        -0.5150 
  49   0.0000      -0.009993        -0.2719 
  50   0.0000      -0.008527        -0.2320 
  51   0.0000      -0.001716        -0.0467 
  52   0.0000       0.008008         0.2179 
  53   0.0000       0.010299         0.2802 
  54   0.0000       0.012921         0.3516 
  55   0.0000       0.020540         0.5589 
  56   0.0000       0.022999         0.6258 
  57   0.0000       0.024531         0.6675 
  58   0.0000       0.026923         0.7326 
  59   0.0000       0.031146         0.8475 
  60   0.0000       0.038549         1.0490 
  61   0.0000       0.039958         1.0873 
  62   0.0000       0.044083         1.1996 
  63   0.0000       0.050516         1.3746 
  64   0.0000       0.052161         1.4194 
  65   0.0000       0.055062         1.4983 
  66   0.0000       0.064542         1.7563 
  67   0.0000       0.069906         1.9022 
  68   0.0000       0.080238         2.1834 
  69   0.0000       0.083890         2.2828 
  70   0.0000       0.086462         2.3528 
  71   0.0000       0.099165         2.6984 
  72   0.0000       0.105848         2.8803 
  73   0.0000       0.110835         3.0160 
  74   0.0000       0.117238         3.1902 
  75   0.0000       0.121863         3.3161 
  76   0.0000       0.130188         3.5426 
  77   0.0000       0.134995         3.6734 
  78   0.0000       0.138846         3.7782 
  79   0.0000       0.140314         3.8181 
  80   0.0000       0.142940         3.8896 
  81   0.0000       0.143643         3.9087 
  82   0.0000       0.148162         4.0317 
  83   0.0000       0.150108         4.0846 
  84   0.0000       0.152168         4.1407 
  85   0.0000       0.156485         4.2582 
  86   0.0000       0.158045         4.3006 
  87   0.0000       0.160769         4.3747 
  88   0.0000       0.169358         4.6085 
  89   0.0000       0.177578         4.8321 
  90   0.0000       0.182779         4.9737 
  91   0.0000       0.191501         5.2110 
  92   0.0000       0.194144         5.2829 
  93   0.0000       0.195403         5.3172 
  94   0.0000       0.198033         5.3888 
  95   0.0000       0.203055         5.5254 
  96   0.0000       0.209119         5.6904 
  97   0.0000       0.218930         5.9574 
  98   0.0000       0.231252         6.2927 
  99   0.0000       0.233565         6.3556 
 100   0.0000       0.244627         6.6566 
 101   0.0000       0.247805         6.7431 
 102   0.0000       0.268180         7.2975 
 103   0.0000       0.286854         7.8057 
 104   0.0000       0.288681         7.8554 
 105   0.0000       0.295515         8.0414 
 106   0.0000       0.296695         8.0735 
 107   0.0000       0.305467         8.3122 
 108   0.0000       0.305870         8.3231 
 109   0.0000       0.318983         8.6800 
 110   0.0000       0.326845         8.8939 
 111   0.0000       0.334318         9.0972 
 112   0.0000       0.340404         9.2629 
 113   0.0000       0.341778         9.3003 
 114   0.0000       0.344910         9.3855 
 115   0.0000       0.350215         9.5298 
 116   0.0000       0.359912         9.7937 
 117   0.0000       0.366966         9.9856 
 118   0.0000       0.371352        10.1050 
 119   0.0000       0.378917        10.3109 
 120   0.0000       0.384308        10.4575 
 121   0.0000       0.387940        10.5564 
 122   0.0000       0.396464        10.7883 
 123   0.0000       0.398301        10.8383 
 124   0.0000       0.406097        11.0505 
 125   0.0000       0.406882        11.0718 
 126   0.0000       0.413510        11.2522 
 127   0.0000       0.422110        11.4862 
 128   0.0000       0.426521        11.6062 
 129   0.0000       0.432596        11.7715 
 130   0.0000       0.436324        11.8730 
 131   0.0000       0.441273        12.0076 
 132   0.0000       0.443394        12.0654 
 133   0.0000       0.447250        12.1703 
 134   0.0000       0.461356        12.5541 
 135   0.0000       0.461549        12.5594 
 136   0.0000       0.475783        12.9467 
 137   0.0000       0.477877        13.0037 
 138   0.0000       0.483004        13.1432 
 139   0.0000       0.485311        13.2060 
 140   0.0000       0.496517        13.5109 
 141   0.0000       0.498484        13.5644 
 142   0.0000       0.506484        13.7821 
 143   0.0000       0.512146        13.9362 
 144   0.0000       0.524052        14.2602 
 145   0.0000       0.527436        14.3523 
 146   0.0000       0.535055        14.5596 
 147   0.0000       0.540676        14.7125 
 148   0.0000       0.541742        14.7415 
 149   0.0000       0.555829        15.1249 
 150   0.0000       0.561057        15.2671 
 151   0.0000       0.563241        15.3266 
 152   0.0000       0.571824        15.5601 
 153   0.0000       0.573745        15.6124 
 154   0.0000       0.583992        15.8912 
 155   0.0000       0.588218        16.0062 
 156   0.0000       0.592454        16.1215 
 157   0.0000       0.598977        16.2990 
 158   0.0000       0.605532        16.4774 
 159   0.0000       0.619220        16.8498 
 160   0.0000       0.624698        16.9989 
 161   0.0000       0.640704        17.4345 
 162   0.0000       0.642476        17.4826 
 163   0.0000       0.646282        17.5862 
 164   0.0000       0.660185        17.9645 
 165   0.0000       0.676924        18.4200 
 166   0.0000       0.685058        18.6414 
 167   0.0000       0.690682        18.7944 
 168   0.0000       0.696103        18.9419 
 169   0.0000       0.697391        18.9770 
 170   0.0000       0.704151        19.1609 
 171   0.0000       0.720772        19.6132 
 172   0.0000       0.727564        19.7980 
 173   0.0000       0.730649        19.8820 
 174   0.0000       0.739180        20.1141 
 175   0.0000       0.749198        20.3867 
 176   0.0000       0.751250        20.4425 
 177   0.0000       0.757647        20.6166 
 178   0.0000       0.769388        20.9361 
 179   0.0000       0.774844        21.0846 
 180   0.0000       0.779120        21.2009 
 181   0.0000       0.786920        21.4132 
 182   0.0000       0.796749        21.6806 
 183   0.0000       0.800982        21.7958 
 184   0.0000       0.804891        21.9022 
 185   0.0000       0.816717        22.2240 
 186   0.0000       0.821643        22.3581 
 187   0.0000       0.826008        22.4768 
 188   0.0000       0.834151        22.6984 
 189   0.0000       0.843094        22.9418 
 190   0.0000       0.846119        23.0241 
 191   0.0000       0.861331        23.4380 
 192   0.0000       0.869282        23.6544 
 193   0.0000       0.879187        23.9239 
 194   0.0000       0.886341        24.1186 
 195   0.0000       0.900869        24.5139 
 196   0.0000       0.913348        24.8535 
 197   0.0000       0.931379        25.3441 
 198   0.0000       0.939796        25.5731 
 199   0.0000       0.951003        25.8781 
 200   0.0000       0.961558        26.1653 
 201   0.0000       0.970602        26.4114 
 202   0.0000       0.975852        26.5543 
 203   0.0000       0.979422        26.6514 
 204   0.0000       0.986458        26.8429 
 205   0.0000       0.995610        27.0919 
 206   0.0000       1.002642        27.2833 
 207   0.0000       1.013941        27.5907 
 208   0.0000       1.025780        27.9129 
 209   0.0000       1.028923        27.9984 
 210   0.0000       1.032275        28.0896 
 211   0.0000       1.044367        28.4187 
 212   0.0000       1.053943        28.6792 
 213   0.0000       1.055165        28.7125 
 214   0.0000       1.069351        29.0985 
 215   0.0000       1.074225        29.2312 
 216   0.0000       1.086122        29.5549 
 217   0.0000       1.089590        29.6493 
 218   0.0000       1.097493        29.8643 
 219   0.0000       1.110691        30.2234 
 220   0.0000       1.122666        30.5493 
 221   0.0000       1.132129        30.8068 
 222   0.0000       1.133547        30.8454 
 223   0.0000       1.139700        31.0128 
 224   0.0000       1.142977        31.1020 
 225   0.0000       1.156310        31.4648 
 226   0.0000       1.161643        31.6099 
 227   0.0000       1.168276        31.7904 
 228   0.0000       1.170158        31.8416 
 229   0.0000       1.180930        32.1347 
 230   0.0000       1.188572        32.3427 
 231   0.0000       1.197164        32.5765 
 232   0.0000       1.202303        32.7163 
 233   0.0000       1.219198        33.1761 
 234   0.0000       1.231490        33.5105 
 235   0.0000       1.233033        33.5525 
 236   0.0000       1.242389        33.8071 
 237   0.0000       1.253111        34.0989 
 238   0.0000       1.264595        34.4114 
 239   0.0000       1.271970        34.6121 
 240   0.0000       1.287347        35.0305 
 241   0.0000       1.301967        35.4283 
 242   0.0000       1.307702        35.5844 
 243   0.0000       1.324158        36.0322 
 244   0.0000       1.334756        36.3206 
 245   0.0000       1.350100        36.7381 
 246   0.0000       1.357068        36.9277 
 247   0.0000       1.376266        37.4501 
 248   0.0000       1.402532        38.1648 
 249   0.0000       1.403954        38.2035 
 250   0.0000       1.404324        38.2136 
 251   0.0000       1.422380        38.7049 
 252   0.0000       1.433705        39.0131 
 253   0.0000       1.438060        39.1316 
 254   0.0000       1.467443        39.9312 
 255   0.0000       1.478176        40.2232 
 256   0.0000       1.485769        40.4298 
 257   0.0000       1.493016        40.6270 
 258   0.0000       1.495711        40.7004 
 259   0.0000       1.501538        40.8589 
 260   0.0000       1.512418        41.1550 
 261   0.0000       1.515840        41.2481 
 262   0.0000       1.520352        41.3709 
 263   0.0000       1.541582        41.9486 
 264   0.0000       1.547369        42.1061 
 265   0.0000       1.557064        42.3699 
 266   0.0000       1.564906        42.5833 
 267   0.0000       1.574363        42.8406 
 268   0.0000       1.581923        43.0463 
 269   0.0000       1.587579        43.2002 
 270   0.0000       1.591835        43.3160 
 271   0.0000       1.601652        43.5832 
 272   0.0000       1.607178        43.7335 
 273   0.0000       1.613768        43.9129 
 274   0.0000       1.622833        44.1595 
 275   0.0000       1.633314        44.4447 
 276   0.0000       1.635267        44.4979 
 277   0.0000       1.648745        44.8646 
 278   0.0000       1.661062        45.1998 
 279   0.0000       1.667475        45.3743 
 280   0.0000       1.682861        45.7930 
 281   0.0000       1.686754        45.8989 
 282   0.0000       1.699778        46.2533 
 283   0.0000       1.707389        46.4604 
 284   0.0000       1.710632        46.5487 
 285   0.0000       1.728601        47.0376 
 286   0.0000       1.736259        47.2460 
 287   0.0000       1.739214        47.3264 
 288   0.0000       1.754574        47.7444 
 289   0.0000       1.758141        47.8415 
 290   0.0000       1.772043        48.2197 
 291   0.0000       1.775721        48.3198 
 292   0.0000       1.779757        48.4296 
 293   0.0000       1.789785        48.7025 
 294   0.0000       1.795326        48.8533 
 295   0.0000       1.817219        49.4490 
 296   0.0000       1.820961        49.5509 
 297   0.0000       1.824268        49.6409 
 298   0.0000       1.826359        49.6977 
 299   0.0000       1.835734        49.9529 
 300   0.0000       1.846353        50.2418 
 301   0.0000       1.850036        50.3420 
 302   0.0000       1.858966        50.5850 
 303   0.0000       1.866856        50.7997 
 304   0.0000       1.872078        50.9418 
 305   0.0000       1.879907        51.1549 
 306   0.0000       1.884989        51.2932 
 307   0.0000       1.891786        51.4781 
 308   0.0000       1.894190        51.5435 
 309   0.0000       1.907241        51.8987 
 310   0.0000       1.907631        51.9093 
 311   0.0000       1.923180        52.3324 
 312   0.0000       1.926220        52.4151 
 313   0.0000       1.949682        53.0535 
 314   0.0000       1.953034        53.1448 
 315   0.0000       1.953734        53.1638 
 316   0.0000       1.968163        53.5564 
 317   0.0000       1.976294        53.7777 
 318   0.0000       1.985369        54.0246 
 319   0.0000       1.987995        54.0961 
 320   0.0000       2.009441        54.6797 
 321   0.0000       2.021829        55.0168 
 322   0.0000       2.027114        55.1606 
 323   0.0000       2.031935        55.2918 
 324   0.0000       2.056248        55.9533 
 325   0.0000       2.059163        56.0327 
 326   0.0000       2.067634        56.2632 
 327   0.0000       2.074070        56.4383 
 328   0.0000       2.079392        56.5831 
 329   0.0000       2.093163        56.9579 
 330   0.0000       2.095527        57.0222 
 331   0.0000       2.102584        57.2142 
 332   0.0000       2.112619        57.4873 
 333   0.0000       2.120293        57.6961 
 334   0.0000       2.123087        57.7721 
 335   0.0000       2.136382        58.1339 
 336   0.0000       2.144104        58.3440 
 337   0.0000       2.153440        58.5981 
 338   0.0000       2.160926        58.8018 
 339   0.0000       2.170915        59.0736 
 340   0.0000       2.176178        59.2168 
 341   0.0000       2.183900        59.4269 
 342   0.0000       2.198604        59.8271 
 343   0.0000       2.209682        60.1285 
 344   0.0000       2.219697        60.4010 
 345   0.0000       2.231156        60.7129 
[...]
 542   0.0000       5.403025       147.0238 
 543   0.0000       5.448880       148.2716 
 544   0.0000       5.456903       148.4899 
 545   0.0000       5.483835       149.2227 
 546   0.0000       5.520206       150.2124 
 547   0.0000       5.539095       150.7264 
 548   0.0000       5.552615       151.0943 
 549   0.0000       5.560890       151.3195 
 550   0.0000       5.574197       151.6816 
 551   0.0000       5.576629       151.7478 
 552   0.0000       5.706565       155.2835 
 553   0.0000       5.753204       156.5527 
 554   0.0000       5.762799       156.8137 
 555   0.0000       5.807259       158.0235 
 556   0.0000       5.840552       158.9295 
 557   0.0000       5.918568       161.0524 
 558   0.0000       5.961690       162.2258 
 559   0.0000       6.019857       163.8086 
 560   0.0000       7.463477       203.0915 
 561   0.0000       7.475473       203.4180 
 562   0.0000       7.477667       203.4777 
 563   0.0000       7.487022       203.7322 
 564   0.0000       7.494717       203.9416 
 565   0.0000       7.497493       204.0172 
 566   0.0000       7.501879       204.1365 
 567   0.0000       7.518545       204.5900 
 568   0.0000       7.520334       204.6387 
 569   0.0000       7.523070       204.7131 
 570   0.0000       7.527533       204.8346 
 571   0.0000       7.530220       204.9077 
 572   0.0000       7.538641       205.1369 
 573   0.0000       7.541880       205.2250 
 574   0.0000       7.551485       205.4863 
 575   0.0000       7.555427       205.5936 
 576   0.0000       7.630591       207.6389 
 577   0.0000       7.651380       208.2046 
 578   0.0000       7.679832       208.9788 
 579   0.0000       7.688345       209.2105 
 580   0.0000       7.696523       209.4331 
 581   0.0000       7.701945       209.5806 
 582   0.0000       7.712480       209.8673 
 583   0.0000       7.720787       210.0933 
 584   0.0000       7.729785       210.3382 
 585   0.0000       7.739585       210.6048 
 586   0.0000       7.744264       210.7321 
 587   0.0000       7.750267       210.8955 
 588   0.0000       7.752551       210.9576 
 589   0.0000       7.768752       211.3985 
 590   0.0000       7.774898       211.5657 
 591   0.0000       7.777460       211.6354 
 592   0.0000       7.783459       211.7987 
 593   0.0000       7.795676       212.1311 
 594   0.0000       7.797921       212.1922 
 595   0.0000       7.812995       212.6024 
 596   0.0000       7.815456       212.6694 
 597   0.0000       7.827323       212.9923 
 598   0.0000       7.834574       213.1896 
 599   0.0000       7.835330       213.2102 
 600   0.0000       7.844464       213.4587 
 601   0.0000       7.854841       213.7411 
 602   0.0000       7.877846       214.3671 
 603   0.0000       7.880094       214.4283 
 604   0.0000       7.897154       214.8925 
 605   0.0000       7.908274       215.1951 
 606   0.0000       7.916542       215.4201 
 607   0.0000       7.921027       215.5421 
 608   0.0000       7.922589       215.5846 
 609   0.0000       7.930666       215.8044 
 610   0.0000       7.938788       216.0254 
 611   0.0000       7.945427       216.2061 
 612   0.0000       7.949648       216.3209 
 613   0.0000       7.953099       216.4148 
 614   0.0000       7.968013       216.8207 
 615   0.0000       7.983012       217.2288 
 616   0.0000       7.998835       217.6594 
 617   0.0000       8.011858       218.0137 
 618   0.0000       8.022675       218.3081 
 619   0.0000       8.026425       218.4101 
 620   0.0000       8.043989       218.8881 
 621   0.0000       8.080967       219.8943 
 622   0.0000       8.088535       220.1002 
 623   0.0000       8.110668       220.7025 
 624   0.0000       8.124340       221.0745 
 625   0.0000       8.156179       221.9409 
 626   0.0000       8.160372       222.0550 
 627   0.0000       8.188216       222.8127 
 628   0.0000       8.207612       223.3405 
 629   0.0000       8.224154       223.7906 
 630   0.0000       8.235821       224.1081 
 631   0.0000       8.274787       225.1684 
 632   0.0000       8.303639       225.9535 
 633   0.0000       8.321815       226.4481 
 634   0.0000       8.364422       227.6075 
 635   0.0000       8.531661       232.1583 
 636   0.0000       8.572221       233.2620 
 637   0.0000       8.582905       233.5527 
 638   0.0000       8.595858       233.9052 
 639   0.0000       8.626633       234.7426 
 640   0.0000       8.637961       235.0509 
 641   0.0000       8.642486       235.1740 
 642   0.0000       8.650647       235.3961 
 643   0.0000       8.670145       235.9266 
 644   0.0000       8.701349       236.7757 
 645   0.0000       8.731139       237.5864 
 646   0.0000       8.774757       238.7733 
 647   0.0000       8.799327       239.4418 
 648   0.0000       8.852489       240.8885 
 649   0.0000       8.927840       242.9389 
 650   0.0000       8.934373       243.1166 
 651   0.0000       8.948975       243.5140 
 652   0.0000       8.986385       244.5320 
 653   0.0000       9.002938       244.9824 
 654   0.0000       9.056973       246.4528 
 655   0.0000       9.096980       247.5414 
 656   0.0000       9.101673       247.6691 
 657   0.0000       9.105778       247.7808 
 658   0.0000       9.116445       248.0711 
 659   0.0000       9.122799       248.2440 
 660   0.0000       9.134695       248.5677 
 661   0.0000       9.139782       248.7061 
 662   0.0000       9.140436       248.7239 
 663   0.0000       9.142237       248.7729 
 664   0.0000       9.143818       248.8159 
 665   0.0000       9.144250       248.8277 
 666   0.0000       9.145516       248.8621 
 667   0.0000       9.148186       248.9348 
 668   0.0000       9.148957       248.9558 
 669   0.0000       9.150756       249.0047 
 670   0.0000       9.153360       249.0756 
 671   0.0000       9.154279       249.1006 
 672   0.0000       9.155448       249.1324 
 673   0.0000       9.156285       249.1552 
 674   0.0000       9.157988       249.2015 
 675   0.0000       9.164300       249.3733 
 676   0.0000       9.166785       249.4409 
 677   0.0000       9.174182       249.6422 
 678   0.0000       9.177573       249.7344 
 679   0.0000       9.179427       249.7849 
 680   0.0000       9.194206       250.1871 
 681   0.0000       9.204137       250.4573 
 682   0.0000       9.212467       250.6840 
 683   0.0000       9.220216       250.8948 
 684   0.0000       9.225100       251.0277 
 685   0.0000       9.228185       251.1117 
 686   0.0000       9.234425       251.2815 
 687   0.0000       9.238933       251.4042 
 688   0.0000       9.251470       251.7453 
 689   0.0000       9.254946       251.8399 
 690   0.0000       9.256673       251.8869 
 691   0.0000       9.259436       251.9621 
 692   0.0000       9.260310       251.9858 
 693   0.0000       9.263960       252.0852 
 694   0.0000       9.265246       252.1202 
 695   0.0000       9.267112       252.1709 
 696   0.0000       9.272730       252.3238 
 697   0.0000       9.279749       252.5148 
 698   0.0000       9.287876       252.7360 
 699   0.0000       9.307218       253.2623 
 700   0.0000       9.327041       253.8017 
 701   0.0000       9.344132       254.2668 
 702   0.0000       9.346007       254.3178 
 703   0.0000       9.364649       254.8251 
 704   0.0000       9.382090       255.2996 
 705   0.0000       9.389280       255.4953 
 706   0.0000       9.392419       255.5807 
 707   0.0000       9.400246       255.7937 
 708   0.0000       9.405399       255.9339 
 709   0.0000       9.410599       256.0754 
 710   0.0000       9.413183       256.1457 
 711   0.0000       9.428968       256.5753 
 712   0.0000       9.444566       256.9997 
 713   0.0000       9.450308       257.1559 
 714   0.0000       9.460550       257.4347 
 715   0.0000       9.474628       257.8177 
 716   0.0000       9.504747       258.6373 
 717   0.0000       9.524503       259.1749 
 718   0.0000       9.530931       259.3498 
 719   0.0000       9.547061       259.7887 
 720   0.0000       9.578095       260.6332 
 721   0.0000       9.603159       261.3152 
 722   0.0000       9.609662       261.4922 
 723   0.0000       9.627558       261.9792 
 724   0.0000       9.639136       262.2942 
 725   0.0000       9.655330       262.7349 
 726   0.0000       9.662847       262.9394 
 727   0.0000       9.670482       263.1472 
 728   0.0000       9.680806       263.4281 
 729   0.0000       9.685133       263.5459 
 730   0.0000       9.696093       263.8441 
 731   0.0000       9.702573       264.0204 
 732   0.0000       9.707122       264.1442 
 733   0.0000       9.737894       264.9816 
 734   0.0000       9.785492       266.2768 
 735   0.0000       9.787353       266.3274 
 736   0.0000       9.806070       266.8367 
 737   0.0000       9.816744       267.1272 
 738   0.0000       9.826560       267.3943 
 739   0.0000       9.841914       267.8121 
 740   0.0000       9.848904       268.0023 
 741   0.0000       9.859637       268.2944 
 742   0.0000       9.870999       268.6035 
 743   0.0000       9.875972       268.7389 
 744   0.0000       9.881533       268.8902 
 745   0.0000       9.882381       268.9133 
 746   0.0000       9.886717       269.0312 
 747   0.0000       9.901194       269.4252 
 748   0.0000       9.909092       269.6401 
 749   0.0000       9.918014       269.8829 
 750   0.0000       9.937478       270.4125 
 751   0.0000       9.955301       270.8975 
 752   0.0000       9.957914       270.9686 
 753   0.0000      10.054449       273.5955 
 754   0.0000      10.083852       274.3956 
 755   0.0000      12.297171       334.6230 
 756   0.0000      12.318617       335.2066 
 757   0.0000      12.394121       337.2612 
 758   0.0000      12.455696       338.9367 
 759   0.0000      12.513539       340.5107 
 760   0.0000      13.415583       365.0566 
 761   0.0000      13.416489       365.0812 
 762   0.0000      13.432774       365.5244 
 763   0.0000      13.449226       365.9721 
 764   0.0000      13.453107       366.0776 
 765   0.0000      13.480768       366.8303 
 766   0.0000      13.507662       367.5622 
 767   0.0000      13.527145       368.0923 
 768   0.0000      13.533697       368.2706 
 769   0.0000      13.548111       368.6628 
 770   0.0000      13.571197       369.2910 
 771   0.0000      13.747328       374.0838 
 772   0.0000      13.755292       374.3005 
 773   0.0000      13.776746       374.8843 
 774   0.0000      13.789527       375.2321 
 775   0.0000      13.961094       379.9007 
 776   0.0000      13.978905       380.3853 
 777   0.0000      13.984998       380.5511 
 778   0.0000      13.991278       380.7220 
 779   0.0000      13.997106       380.8806 
 780   0.0000      14.022559       381.5732 
 781   0.0000      14.029657       381.7664 
 782   0.0000      14.049401       382.3036 
 783   0.0000      14.441509       392.9734 
 784   0.0000      14.442246       392.9935 
 785   0.0000      19.041516       518.1460 
 786   0.0000      19.044180       518.2185 
 787   0.0000      19.080043       519.1944 
 788   0.0000      19.081859       519.2438 
 789   0.0000      19.113347       520.1006 
 790   0.0000      19.123726       520.3830 
 791   0.0000      19.127346       520.4815 
 792   0.0000      19.131099       520.5837 
 793   0.0000      19.140240       520.8324 
 794   0.0000      19.146538       521.0038 
 795   0.0000      19.151656       521.1431 
 796   0.0000      19.154330       521.2158 
 797   0.0000      19.160693       521.3890 
 798   0.0000      19.167175       521.5653 
 799   0.0000      19.175671       521.7965 
 800   0.0000      19.185766       522.0712 
 801   0.0000      19.196745       522.3700 
 802   0.0000      19.212792       522.8066 
 803   0.0000      19.218692       522.9672 
 804   0.0000      19.223945       523.1101 
 805   0.0000      19.244943       523.6815 
 806   0.0000      19.269126       524.3396 
 807   0.0000      19.285858       524.7949 
 808   0.0000      19.304112       525.2916 
 809   0.0000      19.355205       526.6819 
 810   0.0000      19.387278       527.5547 
 811   0.0000      19.427541       528.6503 
 812   0.0000      19.466071       529.6987 
 813   0.0000      19.537968       531.6551 
 814   0.0000      19.554528       532.1058 
 815   0.0000      19.567975       532.4717 
 816   0.0000      19.576319       532.6987 
 817   0.0000      19.580318       532.8075 
 818   0.0000      19.585859       532.9583 
 819   0.0000      19.609236       533.5944 
 820   0.0000      19.610998       533.6424 
 821   0.0000      19.620455       533.8997 
 822   0.0000      19.632952       534.2398 
 823   0.0000      19.677241       535.4449 
 824   0.0000      19.701541       536.1062 
 825   0.0000      19.709900       536.3336 
 826   0.0000      19.787251       538.4385 
 827   0.0000      19.875897       540.8506 
 828   0.0000      19.883178       541.0488 
 829   0.0000      19.927235       542.2476 
-------
TIMINGS
-------

Total SCF time: 0 days 0 hours 5 min 34 sec 

Total time                  ....     334.631 sec
Sum of individual times     ....     328.804 sec  ( 98.3%)

Fock matrix formation       ....     309.831 sec  ( 92.6%)
  Split-RI-J                ....     192.801 sec  ( 62.2% of F)
  XC integration            ....     117.015 sec  ( 37.8% of F)
    Basis function eval.    ....      30.265 sec  ( 25.9% of XC)
    Density eval.           ....      48.600 sec  ( 41.5% of XC)
    XC-Functional eval.     ....       2.349 sec  (  2.0% of XC)
    XC-Potential eval.      ....      32.805 sec  ( 28.0% of XC)
Diagonalization             ....       0.987 sec  (  0.3%)
Density matrix formation    ....       0.111 sec  (  0.0%)
Population analysis         ....       0.000 sec  (  0.0%)
Initial guess               ....       1.042 sec  (  0.3%)
Orbital Transformation      ....       0.000 sec  (  0.0%)
Orbital Orthonormalization  ....       0.995 sec  (  0.3%)
DIIS solution               ....       0.304 sec  (  0.1%)
SOSCF solution              ....       2.702 sec  (  0.8%)
Grid generation             ....      13.826 sec  (  4.1%)

Maximum memory used throughout the entire SCF-calculation: 911.2 MB


-------------------------------------------------------------------------------
                          DFT DISPERSION CORRECTION                            
                                                                               
                              DFTD3 V3.1  Rev 1                                
                          USING Becke-Johnson damping                          
-------------------------------------------------------------------------------
The PBE functional is recognized
Active option DFTDOPT                   ...         4   

molecular C6(AA) [au] = 7712.681571 


            DFT-D V3
 parameters
 s6 scaling factor         :     1.0000 
 a1 scaling factor         :     0.4289 
 s8 scaling factor         :     0.7875 
 a2 scaling factor         :     4.4407 
 ad hoc parameters k1-k3   :    16.0000     1.3333    -4.0000 

 Edisp/kcal,au: -12.481009482045  -0.019889752532 
 E6   /kcal   :  -7.838119379 
 E8   /kcal   :  -4.642890103 
 % E8         :  37.199636056 

-------------------------   ----------------
Dispersion correction           -0.019889753
-------------------------   ----------------


-------------------------   --------------------
FINAL SINGLE POINT ENERGY     -1220.501110903444
-------------------------   --------------------

                                *** OPTIMIZATION RUN DONE ***

                            ***************************************
                            *     ORCA property calculations      *
                            ***************************************

                                    ---------------------
                                    Active property flags
                                    ---------------------
   (+) Dipole Moment


------------------------------------------------------------------------------
                       ORCA ELECTRIC PROPERTIES CALCULATION
------------------------------------------------------------------------------

Dipole Moment Calculation                       ... on
Quadrupole Moment Calculation                   ... off
Polarizability Calculation                      ... off
GBWName                                         ... run.gbw
Electron density                                ... run.scfp
The origin for moment calculation is the CENTER OF MASS  = (-0.086539,  0.010813  5.713894)

-------------
DIPOLE MOMENT
-------------
                                X             Y             Z
Electronic contribution:      0.10960      -0.02138       0.07925
Nuclear contribution   :     -0.03931       0.00565      -0.05847
                        -----------------------------------------
Total Dipole Moment    :      0.07029      -0.01573       0.02078
                        -----------------------------------------
Magnitude (a.u.)       :      0.07496
Magnitude (Debye)      :      0.19054



--------------------
Rotational spectrum 
--------------------
 
Rotational constants in cm-1:     0.035469     0.030309     0.017833 
Rotational constants in MHz :  1063.347958   908.635229   534.621336 

 Dipole components along the rotational axes: 
x,y,z [a.u.] :     0.027385     0.011074    -0.068898 
x,y,z [Debye]:     0.069607     0.028148    -0.175126 

 

-------------------------------------------------------------------------------
                               ORCA SCF HESSIAN
-------------------------------------------------------------------------------

                   --------- SHARK INITIALIZATION DONE ---------

Hessian of the Kohn-Sham DFT energy:
Kohn-Sham wavefunction type                      ... RKS
Hartree-Fock exchange scaling                    ...    0.000
Number of operators                              ...    1
Number of atoms                                  ...   20
Basis set dimensions                             ...  830
Integral neglect threshold                       ... 2.5e-11
Integral primitive cutoff                        ... 2.5e-12

Setting up DFT Hessian calculations              ... 

HESS GRID
---------

General Integration Accuracy     IntAcc      ... 4.959
Radial Grid Type                 RadialGrid  ... OptM3 with GC (2021)
Angular Grid (max. ang.)         AngularGrid ... 7 (Lebedev-770)
Angular grid pruning method      GridPruning ... 4 (adaptive)
Weight generation scheme         WeightScheme... Becke
Basis function cutoff            BFCut       ... 1.0000e-11
Integration weight cutoff        WCut        ... 1.0000e-14
Angular grids for H and He will be reduced by one unit
Partially contracted basis set               ... off
Rotationally invariant grid construction     ... off

Total number of grid points                  ...   322052
Total number of batches                      ...     5040
Average number of points per batch           ...       63
Average number of grid points per atom       ...    16103

Building densities                               ... done   (      0.1 sec)
Calculating rho(r) on the grid                   ... done   (     23.5 sec)
Building xc-kernel on the grid                   ... done   (      0.9 sec)
                                                     done   (     45.9 sec)

Nuclear repulsion Hessian  (SHARK)               ... done   (      0.0 sec)


Error (ORCA_SCFHESS): Available memory of 1024 MB is insufficient!
      ------->        Increase MaxCore to 1116 MB for OnDisk storage
                      - or -              2453 MB for InCore storage


[file orca_scfhess/orca_scfhess.cpp, line 217]: Error (ORCA_SCFHESS): Calculation of the analytical SCF Hessian failed


ORCA finished by error termination in SCF Hessian
Calling Command: /home/mehlhorn/orca5/orca_scfhess run.scfhess.inp 
[file orca_tools/qcmsg.cpp, line 465]: 
  .... aborting the run

