
                                 *****************
                                 * O   R   C   A *
                                 *****************

                                            #,                                       
                                            ###                                      
                                            ####                                     
                                            #####                                    
                                            ######                                   
                                           ########,                                 
                                     ,,################,,,,,                         
                               ,,#################################,,                 
                          ,,##########################################,,             
                       ,#########################################, ''#####,          
                    ,#############################################,,   '####,        
                  ,##################################################,,,,####,       
                ,###########''''           ''''###############################       
              ,#####''   ,,,,##########,,,,          '''####'''          '####       
            ,##' ,,,,###########################,,,                        '##       
           ' ,,###''''                  '''############,,,                           
         ,,##''                                '''############,,,,        ,,,,,,###''
      ,#''                                            '''#######################'''  
     '                                                          ''''####''''         
             ,#######,   #######,   ,#######,      ##                                
            ,#'     '#,  ##    ##  ,#'     '#,    #''#        ,####,    ,#,          
            ##       ##  ##   ,#'  ##            #'  '#       #'       ,# #          
            ##       ##  #######   ##           ,######,      #####,      #          
            '#,     ,#'  ##    ##  '#,     ,#' ,#      #,     #,   #      #          
             '#######'   ##     ##  '#######'  #'      '#     '####' #    #          



                #########################################################
                #                        -***-                          #
                #          Department of theory and spectroscopy        #
                #                                                       #
                #                      Frank Neese                      #
                #                                                       #
                #     Directorship, Architecture, Infrastructure        #
                #                    SHARK, DRIVERS                     #
                #        Core code/Algorithms in most modules           #
                #                                                       #
                #        Max Planck Institute fuer Kohlenforschung      #
                #                Kaiser Wilhelm Platz 1                 #
                #                 D-45470 Muelheim/Ruhr                 #
                #                      Germany                          #
                #                                                       #
                #                  All rights reserved                  #
                #                        -***-                          #
                #########################################################


                         Program Version 6.1.0  -  RELEASE   -
                                (GIT: $679e74b$)
                          ($2025-06-10 18:02:51 +0200$)


 With contributions from (in alphabetic order):
[Max-Planck-Institut fuer Kohlenforschung]                               
  Daniel Aravena         : Magnetic Suceptibility                        
  Michael Atanasov       : Ab Initio Ligand Field Theory (pilot matlab implementation)
  Alexander A. Auer      : GIAO ZORA, VPT2 properties, NMR spectrum      
  Ute Becker             : All parallelization in ORCA, NUMFREQ, NUMCALC 
  Giovanni Bistoni       : ED, misc. LED, open-shell LED, HFLD           
  Dmytro Bykov           : pre 5.0 version of the SCF Hessian            
  Marcos Casanova-Páez   : Triplet and SCS-CIS(D). UHF-(DLPNO)-IP/EA/STEOM-CCSD. UHF-CVS-IP/STEOM-CCSD   
  Vijay G. Chilkuri      : MRCI spin determinant printing, contributions to CSF-ICE 
  Pauline Colinet        : FMM embedding                                 
  Dipayan Datta          : RHF DLPNO-CCSD density                        
  Achintya Kumar Dutta   : EOM-CC, STEOM-CC                              
  Nicolas Foglia         : Exact transition moments, OPA infrastructure, MCD improvements    
  Dmitry Ganyushin       : Spin-Orbit,Spin-Spin,Magnetic field MRCI      
  Miquel Garcia-Rates    : C-PCM and meta-GGA Hessian, CCSD/C-PCM, Gaussian charge scheme 
  Tiago L. C. Gouveia    : GS-ROHF, GS-ROCIS                             
  Yang Guo               : DLPNO-NEVPT2, F12-NEVPT2, CIM, IAO-localization        
  Andreas Hansen         : Spin unrestricted coupled pair/coupled cluster methods 
  Ingolf Harden          : AUTO-CI MPn and infrastructure                
  Benjamin Helmich-Paris : MC-RPA, TRAH-(SCF,CASSCF), AVAS, COSX integrals, SCF dyn. polar., MC-PDFT, srDFT 
  Lee Huntington         : MR-EOM, pCC                                   
  Robert Izsak           : Overlap fitted RIJCOSX, COSX-SCS-MP3, EOM     
  Riya Kayal             : Wick's Theorem for AUTO-CI, AUTO-CI UHF-CCSDT 
  Emily Kempfer          : AUTO-CI RHF CISDT and CCSDT, approximate NEVPT4
  Christian Kollmar      : KDIIS, OOCD, Brueckner-CCSD(T), CCSD density, CASPT2, CASPT2-K, improved NEVPT2 
  Axel Koslowski         : Symmetry handling                             
  Simone Kossmann        : meta-GGA functionals, TD-DFT gradient, OOMP2, (MP2 Hessian; deprecated post 5.0) 
  Lucas Lang             : DCDCAS, Hyperfine gauge corrections, ICE-SOC+SSC
  Marvin Lechner         : AUTO-CI (C++ implementation), FIC-MRCC        
  Spencer Leger          : CASSCF response                               
  Dagmar Lenk            : GEPOL surface, SMD, ORCA-2-JSON               
  Dimitrios Liakos       : Extrapolation schemes; Compound Job, Property file
  Dimitrios Manganas     : Further ROCIS development; embedding schemes. LFT, Crystal Embedding 
  Dimitrios Pantazis     : SARC Basis sets                               
  Anastasios Papadopoulos: AUTO-CI, single reference methods and gradients 
  Taras Petrenko         : pre 6.0 DFT Hessian and TD-DFT gradient,  ECA, NRVS 
  Petra Pikulova         : Analytic Raman intensities                    
  Peter Pinski           : DLPNO-MP2, DLPNO-MP2 Gradient                 
  Shashank Vittal Rao    : ES-AILFT, MagRelax                            
  Christoph Reimann      : Effective Core Potentials                     
  Marius Retegan         : Local ZFS, SOC                                
  Christoph Riplinger    : Optimizer, TS searches, QM/MM, DLPNO-CCSD(T), (RO)-DLPNO pert. Triples 
  Michael Roemelt        : Original ROCIS implementation, recursive CI coupling coefficients
  Masaaki Saitow         : Open-shell DLPNO-CCSD energy and density      
  Barbara Sandhoefer     : DKH picture change effects                    
  Yorick L. A. Schmerwitz: GMF and freeze-and-release deltaSCF, NEB S-IDPP initial path                    
  Kantharuban Sivalingam : CASSCF convergence/infrastructure, NEVPT2, NEVPT3, NEVPT4(SD), FIC-MRCI and CEPA variants
  Bernardo de Souza      : ESD, SOC TD-DFT                               
  Georgi L. Stoychev     : AutoAux, RI-MP2 NMR, DLPNO-MP2 response, X2C  
  Van Anh Tran           : RI-MP2 g-tensors                              
  Willem Van den Heuvel  : Paramagnetic NMR                              
  Zikuan Wang            : NOTCH, Electric field optimization            
  Frank Wennmohs         : Technical directorship and infrastructure     
  Hang Xu                : AUTO-CI-Response properties                   
                                                                         
[FACCTs GmbH]                                                            
  Markus Bursch, Nicolas Foglia, Miquel Garcia-Rates, Ingolf Harden, Hagen Neugebauer, Anastasios Papadopoulos, 
  Christoph Riplinger, Bernardo de Souza, Georgi L. Stoychev                                                    
                                                                 
  APM, various basis sets, CI-OPT, improved COSX, DLPNO-Multilevel,           
  DOCKER, DRACO, updates on ESD, Fragmentator, GOAT, IRC, LR-CPCM, L-BFGS, MBIS, meta-GGA TD-DFT gradient, ML-optimized integration grids, 
  MM, NACMEs, nearIR, NEB, NEB-TS, NL-DFT gradient (VV10), 2- and 3-layer-ONIOM, interface openCOSMO-RS, QMMM,   
  Crystal-QMMM, RESP, rigid body optimization, SF, symmetry and pop. for TD-DFT, various functionals, SOLVATOR                                   
                                                                         
[Other institutions]                                                     
  V. Asgeirsson          : NEB                                           
  Christoph Bannwarth    : sTDA-DFT, sTD-DFT, PBEh-3c, B97-3c, D3        
  Giovanni Bistoni       : ETS/NOCV, ADLD/ADEX, COVALED                  
  Martin Brehm           : Molecular dynamics                            
  Ronald Cardenas        : ETS/NOCV                                      
  Martina Colucci        : COVALED                                       
  Sebastian Ehlert       : rSCAN, r2SCAN, r2SCAN-3c, D4, dhf basis sets  
  Marvin Friede          : D4 for Fr, Ra, Ac-Lr                          
  Lars Goerigk           : TD-DFT with DH, B97 family of functionals     
  Stefan Grimme          : VdW corrections, initial TS optimization, DFT functionals, gCP, sTDA/sTD-DF 
  Waldemar Hujo          : DFT-NL                                        
  H. Jonsson             : NEB                                           
  Holger Kruse           : gCP                                           
  Marcel Mueller         : wB97X-3c, vDZP basis set                      
  Hagen Neugebauer       : wr2SCAN, Native XTB                           
  Gianluca Regni         : ADLD/ADEX                                     
  Tobias Risthaus        : pre 6.0 range-separated hybrid DFT and stability analysis
  Lukas Wittmann         : regularized MP2, r2SCAN double-hybrids, wr2SCAN        
                                                                         
We gratefully acknowledge several colleagues who have allowed us to      
interface, adapt or use parts of their codes:                            
  Ed Valeev, F. Pavosevic, A. Kumar             : LibInt (2-el integral package), F12 methods 
  Garnet Chan, S. Sharma, J. Yang, R. Olivares  : DMRG                   
  Ulf Ekstrom                                   : XCFun DFT Library      
  Mihaly Kallay                                 : mrcc  (arbitrary order and MRCC methods)
  Frank Weinhold                                : gennbo (NPA and NBO analysis)           
  Simon Mueller                                 : openCOSMO-RS                            
  Christopher J. Cramer and Donald G. Truhlar   : smd solvation model                     
  S Lehtola, MJT Oliveira, MAL Marques          : LibXC Library                           
  Liviu Ungur et al                             : ANISO software                          


 Your calculation uses the libint2 library for the computation of 2-el integrals
 For citations please refer to: http://libint.valeyev.net

 Your ORCA version has been built with support for libXC version: 7.0.0
 For citations please refer to: https://libxc.gitlab.io

 This ORCA versions uses:
   CBLAS   interface :  Fast vector & matrix operations
   LAPACKE interface :  Fast linear algebra routines
   SCALAPACK package :  Parallel linear algebra routines
   Shared memory     :  Shared parallel matrices
   BLAS/LAPACK       :  OpenBLAS 0.3.29  USE64BITINT DYNAMIC_ARCH NO_AFFINITY Bulldozer SINGLE_THREADED
        Core in use  :  Bulldozer
   Copyright (c) 2011-2014, The OpenBLAS Project


  ***********************************
  * Starting time: Wed Aug  6 13:25:02 2025
  * Host name:     chromium02
  * Process ID:    56710
  * Working dir.:  /local/scratch/mehlhorn/61708
  ***********************************



***************************************
The coordinates will be read from file: start.xyz
***************************************


Your calculation utilizes the atom-pairwise dispersion correction
with the Becke-Johnson damping scheme (D3BJ)


Warning: RI is on but no J-basis has been assigned. Assigning Def2/J (nothing to worry about!)
================================================================================

----- Orbital basis set information -----
Your calculation utilizes the basis: pc-1
   H, C-F              : F. Jensen, J. Chem. Phys. 115, 9113 (2001).
                         F. Jensen, J. Chem. Phys. 116, 7372 (2002).
                         F. Jensen, J. Chem. Phys. 117, 9234 (2002).
   Si-Cl               : F. Jensen, T. Helgaker, J. Chem. Phys. 121, 3463 (2004).
   He-B, Ne-Mg, Al, Ar : F. Jensen, J. Phys. Chem. A 111, 11198 (2007).
   K, Ca, Ga-Kr        : F. Jensen, J. Chem. Phys. 136, 094110 (2012).
   Sc-Zn               : F. Jensen, J. Chem. Phys. 138, 014107 (2013).

----- AuxJ basis set information -----
Your calculation utilizes the auxiliary basis: def2/J
   H-Rn: F. Weigend, Phys. Chem. Chem. Phys. 8, 1057 (2006).
   Fr-Lr: K. Eichkorn, F. Weigend, O. Treutler, R. Ahlrichs; Theor. Chem. Acc. 97, 119 (1997).

================================================================================
                                        WARNINGS
                       Please study these warnings very carefully!
================================================================================


WARNING: Geometry Optimization
  ===> : Switching off AutoStart
         For restart on a previous wavefunction, please use MOREAD

================================================================================
                                       INPUT FILE
================================================================================
NAME = run.inp
|  1> # Geometry optimization for (AlH3)n cluster
|  2> 
|  3> %pal nprocs 24  end
|  4> 
|  5> %geom MaxIter 500 end
|  6> 
|  7> 
|  8> ! PBE pc-1
|  9> ! RKS	# closed shell for AlH3
| 10> ! D3    #  dispersion correction
| 11> ! Freq 	# Frequency analysis to check the stabiltity of the structures
| 12> 
| 13> ! NoPop # population analysis not necessary	
| 14> 
| 15> ! DEFGRID3
| 16> ! TightSCF
| 17> ! TightOpt
| 18> 
| 19> ! SmallPrint
| 20> 
| 21> 
| 22> * xyzFile 0 1 start.xyz # only maingroup elements H and Al so there should be no net spin
| 23> 
| 24>                          ****END OF INPUT****
================================================================================

                       *****************************
                       * Geometry Optimization Run *
                       *****************************

Geometry optimization settings:
Update method            Update   .... BFGS
Choice of coordinates    CoordSys .... (2022) Redundant Internals
Initial Hessian          InHess   .... Almloef's Model
Max. no of cycles        MaxIter  .... 500

Convergence Tolerances:
Energy Change            TolE     ....  1.0000e-06 Eh
Max. Gradient            TolMAXG  ....  1.0000e-04 Eh/bohr
RMS Gradient             TolRMSG  ....  3.0000e-05 Eh/bohr
Max. Displacement        TolMAXD  ....  1.0000e-03 bohr
RMS Displacement         TolRMSD  ....  6.0000e-04 bohr
Strict Convergence                .... False

------------------------------------------------------------------------------
                        ORCA OPTIMIZATION COORDINATE SETUP
------------------------------------------------------------------------------

The optimization will be done in redundant internal coordinates (2022)
Making redundant internal coordinates   ...  (2022 redundants) done
Evaluating the initial hessian          ...  (Almloef) done
Evaluating the coordinates              ...  done
Calculating the B-matrix                .... done
Calculating the G-matrix                .... done
The number of degrees of freedom        ....   51

    -----------------------------------------------------------------
                    Redundant Internal Coordinates


    -----------------------------------------------------------------
         Definition                    Initial Value    Approx d2E/dq
    -----------------------------------------------------------------
      1. B(Al  1,Al  0)                  2.0686         2.536518   
      2. B(H   2,Al  0)                  1.7084         0.260226   
      3. B(H   2,Al  1)                  1.7079         0.260736   
      4. B(H   3,Al  1)                  1.5995         0.388294   
      5. B(H   4,Al  1)                  1.7084         0.260280   
      6. B(H   4,Al  0)                  1.7077         0.260952   
      7. B(H   5,Al  0)                  1.6003         0.387190   
      8. B(H   6,Al  0)                  1.6004         0.386937   
      9. B(H   7,Al  1)                  1.6001         0.387411   
     10. A(H   2,Al  0,H   5)          110.5729         0.354926   
     11. A(Al  1,Al  0,H   5)          126.3115         0.632094   
     12. A(H   4,Al  0,H   6)          110.5532         0.355054   
     13. A(H   4,Al  0,H   5)          110.5741         0.355094   
     14. A(Al  1,Al  0,H   4)           52.7466         0.585694   
     15. A(H   2,Al  0,H   4)          105.4601         0.332206   
     16. A(Al  1,Al  0,H   2)           52.7229         0.585381   
     17. A(H   5,Al  0,H   6)          109.0923         0.379908   
     18. A(H   2,Al  0,H   6)          110.5573         0.354886   
     19. A(Al  1,Al  0,H   6)          124.5963         0.632014   
     20. A(H   4,Al  1,H   7)          110.5367         0.354972   
     21. A(H   2,Al  1,H   3)          110.5609         0.355215   
     22. A(H   3,Al  1,H   4)          110.5514         0.355110   
     23. A(Al  0,Al  1,H   2)           52.7464         0.585601   
     24. A(H   2,Al  1,H   4)          105.4527         0.332172   
     25. A(Al  0,Al  1,H   4)           52.7156         0.585404   
     26. A(Al  0,Al  1,H   3)          124.5946         0.632444   
     27. A(Al  0,Al  1,H   7)          126.2405         0.632164   
     28. A(H   2,Al  1,H   7)          110.5392         0.355078   
     29. A(H   3,Al  1,H   7)          109.1650         0.380176   
     30. A(Al  0,H   2,Al  1)           74.5306         0.332160   
     31. A(Al  0,H   4,Al  1)           74.5378         0.332217   
     32. D(H   4,Al  1,Al  0,H   2)   -178.7212         0.010000   
     33. D(H   3,Al  1,Al  0,H   4)    -90.6221         0.010000   
     34. D(H   3,Al  1,Al  0,H   2)     90.6567         0.010000   
     35. D(H   2,Al  1,Al  0,H   6)    -90.6343         0.010000   
     36. D(H   3,Al  1,Al  0,H   5)   -179.9924         0.010000   
     37. D(H   3,Al  1,Al  0,H   6)      0.0224         0.010000   
     38. D(H   2,Al  1,Al  0,H   5)     89.3509         0.010000   
     39. D(H   2,Al  1,Al  0,H   4)    178.7212         0.010000   
     40. D(Al  0,H   2,Al  1,H   7)    120.5437         0.010000   
     41. D(Al  0,H   2,Al  1,H   4)      1.0556         0.010000   
     42. D(Al  0,H   2,Al  1,H   3)   -118.4615         0.010000   
     43. D(Al  1,H   2,Al  0,H   6)    118.4656         0.010000   
     44. D(Al  1,H   2,Al  0,H   5)   -120.6109         0.010000   
     45. D(Al  1,H   2,Al  0,H   4)     -1.0560         0.010000   
     46. D(Al  1,H   4,Al  0,H   2)      1.0557         0.010000   
     47. D(Al  0,H   4,Al  1,H   7)   -120.5458         0.010000   
     48. D(Al  0,H   4,Al  1,H   3)    118.4673         0.010000   
     49. D(Al  0,H   4,Al  1,H   2)     -1.0560         0.010000   
     50. D(Al  1,H   4,Al  0,H   6)   -118.4687         0.010000   
     51. D(Al  1,H   4,Al  0,H   5)    120.6098         0.010000   
    -----------------------------------------------------------------

Number of atoms                         .... 8
Number of degrees of freedom            .... 51


         *************************************************************
         *                GEOMETRY OPTIMIZATION CYCLE   1            *
         *************************************************************
---------------------------------
CARTESIAN COORDINATES (ANGSTROEM)
---------------------------------
  Al     0.000000   -0.000000    2.068600
  Al     0.000000    0.000000    0.000000
  H      1.358660   -0.045440    1.033860
  H     -0.059090   -1.315350   -0.908130
  H     -1.357130    0.075740    1.034880
  H      0.057700    1.288210    3.016230
  H     -0.058610   -1.316130    2.977310
  H      0.057230    1.289280   -0.945940

----------------------------
CARTESIAN COORDINATES (A.U.)
----------------------------
  NO LB      ZA    FRAG     MASS         X           Y           Z
   0 Al   13.0000    0    26.982    0.000000   -0.000000    3.909087
   1 Al   13.0000    0    26.982    0.000000    0.000000    0.000000
   2 H     1.0000    0     1.008    2.567495   -0.085869    1.953712
   3 H     1.0000    0     1.008   -0.111664   -2.485651   -1.716117
   4 H     1.0000    0     1.008   -2.564604    0.143128    1.955640
   5 H     1.0000    0     1.008    0.109037    2.434364    5.699849
   6 H     1.0000    0     1.008   -0.110757   -2.487125    5.626301
   7 H     1.0000    0     1.008    0.108149    2.436386   -1.787568

--------------------------------
INTERNAL COORDINATES (ANGSTROEM)
--------------------------------
 Al     0   0   0     0.000000000000     0.00000000     0.00000000
 Al     1   0   0     2.068600000000     0.00000000     0.00000000
 H      2   1   0     1.707890010744    52.74644099     0.00000000
 H      2   1   3     1.599480336703   124.59456454    90.65666491
 H      1   2   3     1.707663732384    52.74656846   178.72122351
 H      1   2   3     1.600255264325   126.31145359    89.35091558
 H      1   2   3     1.600433432886   124.59625477   269.36571185
 H      2   1   3     1.600100207768   126.24046790   270.62611338

---------------------------
INTERNAL COORDINATES (A.U.)
---------------------------
 Al     0   0   0     0.000000000000     0.00000000     0.00000000
 Al     1   0   0     3.909087480630     0.00000000     0.00000000
 H      2   1   0     3.227444387166    52.74644099     0.00000000
 H      2   1   3     3.022579792961   124.59456454    90.65666491
 H      1   2   3     3.227016783036    52.74656846   178.72122351
 H      1   2   3     3.024044193940   126.31145359    89.35091558
 H      1   2   3     3.024380883726   124.59625477   269.36571185
 H      2   1   3     3.023751179512   126.24046790   270.62611338

---------------------
BASIS SET INFORMATION
---------------------
There are 2 groups of distinct atoms

 Group   1 Type Al  : 25s13p1d contracted to 4s3p1d pattern {8881/661/1}
 Group   2 Type H   : 4s1p contracted to 2s1p pattern {31/1}

Atom   0Al   basis set group =>   1
Atom   1Al   basis set group =>   1
Atom   2H    basis set group =>   2
Atom   3H    basis set group =>   2
Atom   4H    basis set group =>   2
Atom   5H    basis set group =>   2
Atom   6H    basis set group =>   2
Atom   7H    basis set group =>   2
---------------------------------
AUXILIARY/J BASIS SET INFORMATION
---------------------------------
There are 2 groups of distinct atoms

 Group   1 Type Al  : 14s5p5d2f1g contracted to 8s4p3d1f1g pattern {71111111/2111/311/2/1}
 Group   2 Type H   : 5s2p1d contracted to 3s1p1d pattern {311/2/1}

Atom   0Al   basis set group =>   1
Atom   1Al   basis set group =>   1
Atom   2H    basis set group =>   2
Atom   3H    basis set group =>   2
Atom   4H    basis set group =>   2
Atom   5H    basis set group =>   2
Atom   6H    basis set group =>   2
Atom   7H    basis set group =>   2


           ************************************************************
           *        Program running with 24 parallel MPI-processes    *
           *              working on a common directory               *
           ************************************************************
------------------------------------------------------------------------------
                             ORCA STARTUP CALCULATIONS
                           -- RI-GTO INTEGRALS CHOSEN --
------------------------------------------------------------------------------
------------------------------------------------------------------------------
                   ___                                                        
                  /   \      - P O W E R E D   B Y -                         
                 /     \                                                     
                 |  |  |   _    _      __       _____    __    __             
                 |  |  |  | |  | |    /  \     |  _  \  |  |  /  |          
                  \  \/   | |  | |   /    \    | | | |  |  | /  /          
                 / \  \   | |__| |  /  /\  \   | |_| |  |  |/  /          
                |  |  |   |  __  | /  /__\  \  |    /   |      \           
                |  |  |   | |  | | |   __   |  |    \   |  |\   \          
                \     /   | |  | | |  |  |  |  | |\  \  |  | \   \       
                 \___/    |_|  |_| |__|  |__|  |_| \__\ |__|  \__/        
                                                                              
                      - O R C A' S   B I G   F R I E N D -                    
                                      &                                       
                       - I N T E G R A L  F E E D E R -                       
                                                                              
 v1 FN, 2020, v2 2021, v3 2022-2024                                           
------------------------------------------------------------------------------


----------------------
SHARK INTEGRAL PACKAGE
----------------------

Number of atoms                             ...      8
Number of basis functions                   ...     66
Number of shells                            ...     34
Maximum angular momentum                    ...      2
Integral batch strategy                     ... SHARK/LIBINT Hybrid
RI-J (if used) integral strategy            ... SPLIT-RIJ (Revised 2003 algorithm where possible)
Printlevel                                  ...      1
Contraction scheme used                     ... SEGMENTED contraction
Prescreening option                         ... SCHWARTZ
   Thresh                                   ... 2.500e-11
   Tcut                                     ... 2.500e-12
   Tpresel                                  ... 2.500e-12 
Coulomb Range Separation                    ... NOT USED
Exchange Range Separation                   ... NOT USED
Multipole approximations                    ... NOT USED
Finite Nucleus Model                        ... NOT USED
CABS basis                                  ... NOT available
Auxiliary Coulomb fitting basis             ... AVAILABLE
   # of basis functions in Aux-J            ...    168
   # of shells in Aux-J                     ...     64
   Maximum angular momentum in Aux-J        ...      4
Auxiliary J/K fitting basis                 ... NOT available
Auxiliary Correlation fitting basis         ... NOT available
Auxiliary 'external' fitting basis          ... NOT available

Checking pre-screening integrals            ... done (  0.0 sec) Dimension = 34
   => SHARK Basis and OBASIS are compatible. Storing Pre-screening
Shell pair information
Shell pair cut-off parameter TPreSel        ...   2.5e-12
Total number of shell pairs                 ...       595
Shell pairs after pre-screening             ...       588
Total number of primitive shell pairs       ...      6132
Primitive shell pairs kept                  ...      4590
          la=0 lb=0:    209 shell pairs
          la=1 lb=0:    236 shell pairs
          la=1 lb=1:     76 shell pairs
          la=2 lb=0:     40 shell pairs
          la=2 lb=1:     24 shell pairs
          la=2 lb=2:      3 shell pairs

Checking whether 4 symmetric matrices of dimension 66 fit in memory
:Max Core in MB      =   4096.00
 MB in use           =      4.40
 MB left             =   4091.60
 MB needed           =      0.07
 Data fit in memory  = YES
Calculating RI/J V-Matrix + Cholesky decomp.... done (  0.0 sec)
Calculating Nuclear repulsion               ... done (  0.0 sec) ENN=     87.613124514475 Eh

Diagonalization of the overlap matrix:
Smallest eigenvalue                        ... 8.966e-03
Time for diagonalization                   ...    0.025 sec
Threshold for overlap eigenvalues          ... 1.000e-07
Number of eigenvalues below threshold      ... 0
Time for construction of square roots      ...    0.001 sec
Total time needed                          ...    0.027 sec

-------------------
DFT GRID GENERATION
-------------------

General Integration Accuracy     IntAcc      ... 4.959
Radial Grid Type                 RadialGrid  ... OptM3 with GC (2021)
Angular Grid (max. ang.)         AngularGrid ... 6 (Lebedev-590)
Angular grid pruning method      GridPruning ... 4 (adaptive)
Weight generation scheme         WeightScheme... mBecke (2022)
Basis function cutoff            BFCut       ... 1.0000e-11
Integration weight cutoff        WCut        ... 1.0000e-14
Partially contracted basis set               ... off
Rotationally invariant grid construction     ... off
Angular grids for H and He will be reduced by one unit

Total number of grid points                  ...    86148
Total number of batches                      ...     1351
Average number of points per batch           ...       63
Average number of grid points per atom       ...    10768
Grids setup in   1.8 sec
Initializing property integral containers    ... done (  0.0 sec)

SHARK setup successfully completed in   2.1 seconds

Maximum memory used throughout the entire STARTUP-calculation: 19.9 MB


           ************************************************************
           *        Program running with 24 parallel MPI-processes    *
           *              working on a common directory               *
           ************************************************************
-------------------------------------------------------------------------------
                                 ORCA GUESS
                   Start orbitals & Density for SCF / CASSCF
-------------------------------------------------------------------------------

------------
SCF SETTINGS
------------
Hamiltonian:
 Density Functional     Method          .... DFT(GTOs)
 Exchange Functional    Exchange        .... PBE
   PBE kappa parameter   XKappa         ....  0.804000
   PBE mue parameter    XMuePBE         ....  0.219520
 Correlation Functional Correlation     .... PBE
   PBE beta parameter  CBetaPBE         ....  0.066725
 LDA part of GGA corr.  LDAOpt          .... PW91-LDA
 Gradients option       PostSCFGGA      .... off
   NL short-range parameter             ....  6.400000
 RI-approximation to the Coulomb term is turned on
   Number of AuxJ basis functions       .... 168


General Settings:
 Integral files         IntName         .... run
 Hartree-Fock type      HFTyp           .... RHF
 Total Charge           Charge          ....    0
 Multiplicity           Mult            ....    1
 Number of Electrons    NEL             ....   32
 Basis Dimension        Dim             ....   66
 Nuclear Repulsion      ENuc            ....     87.6131245145 Eh

Convergence Acceleration:
 AO-DIIS                CNVDIIS         .... on
   Start iteration      DIISMaxIt       ....    12
   Startup error        DIISStart       ....  0.200000
   # of expansion vecs  DIISMaxEq       ....     5
   Bias factor          DIISBfac        ....   1.050
   Max. coefficient     DIISMaxC        ....  10.000
 MO-DIIS                CNVKDIIS        .... off
 Trust-Rad. Augm. Hess. CNVTRAH         .... auto
   Auto Start mean grad. ratio tolernc. ....  1.125000
   Auto Start start iteration           ....    50
   Auto Start num. interpolation iter.  ....    10
   Max. Number of Micro iterations      ....    24
   Max. Number of Macro iterations      .... Maxiter - #DIIS iter
   Number of Davidson start vectors     ....     2
   Converg. threshold    (grad. norm)   ....   1.000e-05
   Grad. Scal. Fac. for Micro threshold ....   0.100
   Minimum threshold for Micro iter.    ....   1.000e-02
   NR start threshold (gradient norm)   ....   1.000e-04
   Initial trust radius                 ....   0.400
   Minimum AH scaling param. (alpha)    ....   1.000
   Maximum AH scaling param. (alpha)    .... 1000.000
   Quad. conv. algorithm                .... NR
   White noise on init. David. guess    .... on
   Maximum white noise                  ....   0.010
   Pseudo random numbers                .... off
   Inactive MOs                         .... canonical
   Orbital update algorithm             .... Taylor
   Preconditioner                       .... Diag
   Full preconditioner red. dimension   ....   250
 SOSCF                 CNVSOSCF           .... on
   Start iteration     SOSCFMaxIt         ....   150
   Startup grad/error  SOSCFStart         ....  0.003300
   Hessian update      SOSCFHessUp        .... L-BFGS
   Autom. constraints  SOSCFAutoConstrain .... off
 Level Shifting         CNVShift        .... on
   Level shift para.    LevelShift      ....    0.2500
   Turn off err/grad.   ShiftErr        ....    0.0010
 Zerner damping         CNVZerner       .... off
 Static damping         CNVDamp         .... on
   Fraction old density DampFac         ....    0.7000
   Max. Damping (<1)    DampMax         ....    0.9800
   Min. Damping (>=0)   DampMin         ....    0.0000
   Turn off err/grad.   DampErr         ....    0.1000

SCF Procedure:
 Maximum # iterations   MaxIter         ....   125
 SCF integral mode      SCFMode         .... Direct
   Integral package                     .... SHARK and LIBINT hybrid scheme
 Reset frequency        DirectResetFreq ....    20
 Integral Threshold     Thresh          ....  2.500e-11 Eh
 Primitive CutOff       TCut            ....  2.500e-12 Eh

Convergence Tolerance:
 Convergence Check Mode ConvCheckMode   .... Total+1el-Energy
 Convergence forced     ConvForced      .... 0
 Energy Change          TolE            ....  1.000e-08 Eh
 1-El. energy change                    ....  1.000e-05 Eh
 Orbital Gradient       TolG            ....  1.000e-05
 Orbital Rotation angle TolX            ....  1.000e-05
 DIIS Error             TolErr          ....  5.000e-07

------------------------------
INITIAL GUESS: MODEL POTENTIAL
------------------------------
Loading Hartree-Fock densities                     ... done
Calculating cut-offs                               ... done
Initializing the effective Hamiltonian             ... done
Setting up the integral package (SHARK)            ... done
Starting the Coulomb interaction                   ... done (   0.0 sec)
Making the grid                                    ... done (   0.1 sec)
Mapping shells                                     ... done
Starting the XC term evaluation                    ... done (   0.0 sec)
  promolecular density results
     # of electrons  =     31.997950442
     EX              =    -37.842758530
     EC              =     -1.100938551
     EX+EC           =    -38.943697081
Transforming the Hamiltonian                       ... done (   0.0 sec)
Diagonalizing the Hamiltonian                      ... done (   0.0 sec)
Back transforming the eigenvectors                 ... done (   0.0 sec)
Now organizing SCF variables                       ... done
                      ------------------
                      INITIAL GUESS DONE (   0.2 sec)
                      ------------------
             **** ENERGY FILE WAS UPDATED (run.en.tmp) ****
Finished Guess after   0.7 sec
Maximum memory used throughout the entire GUESS-calculation: 6.6 MB


           ************************************************************
           *        Program running with 24 parallel MPI-processes    *
           *              working on a common directory               *
           ************************************************************

-------------------------------------------------------------------------------------------
                                      ORCA LEAN-SCF
                              memory conserving SCF solver
-------------------------------------------------------------------------------------------

----------------------------------------D-I-I-S--------------------------------------------
Iteration    Energy (Eh)           Delta-E    RMSDP     MaxDP     DIISErr   Damp  Time(sec)
-------------------------------------------------------------------------------------------
               ***  Starting incremental Fock matrix formation  ***
    1    -488.0520335818182502     0.00e+00  1.20e-02  3.48e-02  6.40e-02  0.700   0.2
    2    -488.0610323174505538    -9.00e-03  1.13e-02  2.96e-02  4.40e-02  0.700   0.1
                               ***Turning on AO-DIIS***
    3    -488.0667820513590414    -5.75e-03  6.47e-03  1.51e-02  2.62e-02  0.700   0.1
    4    -488.0701426790965343    -3.36e-03  1.27e-02  3.01e-02  1.70e-02  0.000   0.1
                              *** Initializing SOSCF ***
---------------------------------------S-O-S-C-F--------------------------------------
Iteration    Energy (Eh)           Delta-E    RMSDP     MaxDP     MaxGrad    Time(sec)
--------------------------------------------------------------------------------------
    5    -488.0767796395609821    -6.64e-03  1.10e-03  2.70e-03  1.42e-03     0.2
               *** Restarting incremental Fock matrix formation ***
    6    -488.0767962946758871    -1.67e-05  8.99e-04  1.95e-03  4.28e-04     0.1
    7    -488.0767977619957492    -1.47e-06  2.99e-04  7.22e-04  3.26e-04     0.1
    8    -488.0767988652571603    -1.10e-06  8.41e-05  1.65e-04  5.21e-05     0.1
    9    -488.0767989025069937    -3.72e-08  3.67e-05  6.27e-05  3.34e-05     0.1
   10    -488.0767989235704363    -2.11e-08  6.07e-06  2.30e-05  5.48e-06     0.1
   11    -488.0767989242556268    -6.85e-10  2.00e-06  7.91e-06  2.74e-06     0.1
                 **** Energy Check signals convergence ****

               *****************************************************
               *                     SUCCESS                       *
               *           SCF CONVERGED AFTER  11 CYCLES          *
               *****************************************************

             **** ENERGY FILE WAS UPDATED (run.en.tmp) ****

----------------
TOTAL SCF ENERGY
----------------

Total Energy       :       -488.07679892329543 Eh          -13281.24490 eV

Components:
Nuclear Repulsion  :         87.61312451447523 Eh            2384.07432 eV
Electronic Energy  :       -575.68992343777063 Eh          -15665.31923 eV
One Electron Energy:       -851.58752732094911 Eh          -23172.87470 eV
Two Electron Energy:        275.89760388317842 Eh            7507.55548 eV

Virial components:
Potential Energy   :       -976.03050100854807 Eh          -26559.14017 eV
Kinetic Energy     :        487.95370208525264 Eh           13277.89527 eV
Virial Ratio       :          2.00025227155264

DFT components:
N(Alpha)           :       16.000000077097 electrons
N(Beta)            :       16.000000077097 electrons
N(Total)           :       32.000000154194 electrons
E(X)               :      -38.150133038019 Eh       
E(C)               :       -1.095723934869 Eh       
E(XC)              :      -39.245856972888 Eh       

---------------
SCF CONVERGENCE
---------------

  Last Energy change         ...    6.8519e-10  Tolerance :   1.0000e-08
  Last MAX-Density change    ...    7.9063e-06  Tolerance :   1.0000e-07
  Last RMS-Density change    ...    1.9995e-06  Tolerance :   5.0000e-09
  Last DIIS Error            ...    1.4214e-03  Tolerance :   5.0000e-07
  Last Orbital Gradient      ...    2.7366e-06  Tolerance :   1.0000e-05
  Last Orbital Rotation      ...    3.3347e-06  Tolerance :   1.0000e-05


----------------
ORBITAL ENERGIES
----------------

  NO   OCC          E(Eh)            E(eV) 
   0   2.0000     -55.364416     -1506.5423 
   1   2.0000     -55.364381     -1506.5414 
   2   2.0000      -3.946933      -107.4015 
   3   2.0000      -3.945609      -107.3655 
   4   2.0000      -2.552787       -69.4649 
   5   2.0000      -2.550174       -69.3938 
   6   2.0000      -2.549321       -69.3705 
   7   2.0000      -2.545539       -69.2676 
   8   2.0000      -2.543910       -69.2233 
   9   2.0000      -2.543129       -69.2021 
  10   2.0000      -0.509939       -13.8761 
  11   2.0000      -0.380229       -10.3466 
  12   2.0000      -0.345326        -9.3968 
  13   2.0000      -0.294517        -8.0142 
  14   2.0000      -0.281165        -7.6509 
  15   2.0000      -0.254573        -6.9273 
  16   0.0000      -0.077593        -2.1114 
  17   0.0000      -0.059313        -1.6140 
  18   0.0000      -0.049218        -1.3393 
  19   0.0000       0.003400         0.0925 
  20   0.0000       0.012503         0.3402 
  21   0.0000       0.040005         1.0886 
  22   0.0000       0.054793         1.4910 
  23   0.0000       0.127722         3.4755 
  24   0.0000       0.133101         3.6219 
  25   0.0000       0.148373         4.0374 
  26   0.0000       0.178547         4.8585 
*Only the first 10 virtual orbitals were printed.
-------
TIMINGS
-------

Total SCF time: 0 days 0 hours 0 min 2 sec 

Total time                  ....       2.311 sec
Sum of individual times     ....       2.121 sec  ( 91.8%)

SCF preparation             ....       0.611 sec  ( 26.4%)
Fock matrix formation       ....       1.225 sec  ( 53.0%)
  Startup                   ....       0.007 sec  (  0.6% of F)
  Split-RI-J                ....       0.272 sec  ( 22.2% of F)
  XC integration            ....       0.907 sec  ( 74.0% of F)
    XC Preparation          ....       0.000 sec  (  0.0% of XC)
    Basis function eval.    ....       0.244 sec  ( 26.9% of XC)
    Density eval.           ....       0.085 sec  (  9.4% of XC)
    XC-Functional eval.     ....       0.052 sec  (  5.8% of XC)
    XC-Potential eval.      ....       0.078 sec  (  8.6% of XC)
Diagonalization             ....       0.000 sec  (  0.0%)
Density matrix formation    ....       0.050 sec  (  2.2%)
Total Energy calculation    ....       0.028 sec  (  1.2%)
Population analysis         ....       0.000 sec  (  0.0%)
Orbital Transformation      ....       0.025 sec  (  1.1%)
Orbital Orthonormalization  ....       0.000 sec  (  0.0%)
DIIS solution               ....       0.099 sec  (  4.3%)
SOSCF solution              ....       0.083 sec  (  3.6%)
Finished LeanSCF after   2.3 sec

Maximum memory used throughout the entire LEANSCF-calculation: 5.7 MB


           ************************************************************
           *        Program running with 24 parallel MPI-processes    *
           *              working on a common directory               *
           ************************************************************

------------------------------------------------------------------------------
                         ORCA PROPERTY INTEGRAL CALCULATIONS
------------------------------------------------------------------------------

GBWName                                   ... run.gbw
Number of atoms                           ...      8
Number of basis functions                 ...     66
Max core memory                           ...   4096 MB

Dipole integrals                          ... YES
Quadrupole integrals                      ...  NO
Linear momentum integrals                 ...  NO
Angular momentum integrals                ...  NO
Higher moments length integrals           ...  NO
Higher moments velocity integrals         ...  NO
Kinetic energy integrals                  ...  NO
GIAO right hand sides                     ...  NO
GIAO dipole derivative integrals          ...  NO
SOC integrals                             ...  NO
EPR diamagnetic integrals (GIAO)          ...  NO
EPR gauge integrals                       ...  NO
Field gradient integrals                  ...  NO (   0 nuclei)
Spin-dipole/Fermi contact integrals       ...  NO (   0 nuclei)
Contact density integrals                 ...  NO (   0 nuclei)
Nucleus-orbit integrals                   ...  NO (   0 nuclei)
Geometric perturbations                   ...  NO (   8 nuclei)

Choice of electric origin   ... Center of mass
Position of electric origin ... ( -0.0000, -0.0008,  1.9546) 
Choice of magnetic origin   ... GIAO
Position of magnetic origin ... (  0.0000,  0.0000,  0.0000) 

Calculating integrals                     ... Electric Dipole (Length)     done (  0.0 sec)

Property integrals calculated in   0.0 sec

Maximum memory used throughout the entire PROPINT-calculation: 6.8 MB


-------------------------------------------------------------------------------
                          DFT DISPERSION CORRECTION                            
                                                                               
                              DFTD3 V3.1  Rev 1                                
                          USING Becke-Johnson damping                          
-------------------------------------------------------------------------------
The PBE functional is recognized
Active option DFTDOPT                   ...         4   

molecular C6(AA) [au] = 1235.572544 


            DFT-D V3
 parameters
 s6 scaling factor         :     1.0000 
 a1 scaling factor         :     0.4289 
 s8 scaling factor         :     0.7875 
 a2 scaling factor         :     4.4407 
 ad hoc parameters k1-k3   :    16.0000     1.3333    -4.0000 

 Edisp/kcal,au: -2.923478710592  -0.004658859379 
 E6   /kcal   :  -1.864891925 
 E8   /kcal   :  -1.058586786 
 % E8         :  36.209833926 

-------------------------   ----------------
Dispersion correction           -0.004658859
-------------------------   ----------------


-------------------------   --------------------
FINAL SINGLE POINT ENERGY      -488.081457782675
-------------------------   --------------------



           ************************************************************
           *        Program running with 24 parallel MPI-processes    *
           *              working on a common directory               *
           ************************************************************
------------------------------------------------------------------------------
                         ORCA SCF GRADIENT CALCULATION
------------------------------------------------------------------------------

Nuc. rep. gradient        (SHARK) ... done (  0.0 sec)
HCore & Overlap gradient  (SHARK) ... done (  0.0 sec)
Split-RIJ-J gradient      (SHARK) ... done (  0.3 sec)
XC gradient                       ... done (  0.3 sec)
Dispersion correction             ... done (  0.1 sec)

-------------------
DISPERSION GRADIENT
-------------------

   1   Al  :    0.000000013    0.000000027    0.000151015
   2   Al  :   -0.000000000    0.000000198   -0.000150965
   3   H   :    0.000073605   -0.000002262   -0.000000059
   4   H   :   -0.000002816   -0.000062764   -0.000103527
   5   H   :   -0.000073498    0.000004301    0.000000013
   6   H   :    0.000002752    0.000061555    0.000104459
   7   H   :   -0.000002795   -0.000062663    0.000103460
   8   H   :    0.000002739    0.000061609   -0.000104394

Difference to translation invariance:
           :    0.0000000000    0.0000000000    0.0000000000

Difference to rotation invariance:
           :   -0.0000000000    0.0000000000    0.0000000000

Norm of the Dispersion gradient    ...    0.0003393411
RMS gradient                       ...    0.0000692677
MAX gradient                       ...    0.0001510151

------------------
CARTESIAN GRADIENT
------------------

   1   Al  :   -0.000067743    0.000381681   -0.152248287
   2   Al  :    0.000073243    0.000191184    0.152050930
   3   H   :    0.014187103   -0.000754231   -0.000068291
   4   H   :    0.000195492    0.004397763   -0.007023239
   5   H   :   -0.014169707    0.000506479    0.000072484
   6   H   :   -0.000203185   -0.004474402    0.007015089
   7   H   :    0.000184116    0.004227751    0.007168594
   8   H   :   -0.000199318   -0.004476226   -0.006967279

Difference to translation invariance:
           :   -0.0000000000   -0.0000000000   -0.0000000000

Difference to rotation invariance:
           :    0.0000000404   -0.0000000112    0.0000036955

Norm of the Cartesian gradient     ...    0.2167440922
RMS gradient                       ...    0.0442427025
MAX gradient                       ...    0.1522482872

-------
TIMINGS
-------

Total SCF gradient time     ....        0.808 sec

Densities                   ....       0.001 sec  (  0.2%)
One electron gradient       ....       0.043 sec  (  5.3%)
RI-J Coulomb gradient       ....       0.335 sec  ( 41.5%)
XC gradient                 ....       0.297 sec  ( 36.8%)

Maximum memory used throughout the entire SCFGRAD-calculation: 26.5 MB
------------------------------------------------------------------------------
                         ORCA GEOMETRY RELAXATION STEP
------------------------------------------------------------------------------

Reading the OPT-File                    .... done
Getting information on internals        .... done
Copying old internal coords+grads       .... done
Making the new internal coordinates     .... (2022 redundants) done
Validating the new internal coordinates .... (2022 redundants) done
Calculating the B-matrix                .... done
Calculating the G,G- and P matrices     .... done
Transforming gradient to internals      .... done
Projecting the internal gradient        .... done
Number of atoms                         ....   8
Number of internal coordinates          ....  51
Current Energy                          ....  -488.081457783 Eh
Current gradient norm                   ....     0.216744092 Eh/bohr
Maximum allowed component of the step   ....  0.300
Current trust radius                    ....  0.300
Evaluating the initial hessian          ....  (Almloef) done
Projecting the Hessian                  .... done
Forming the augmented Hessian           .... done
Diagonalizing the augmented Hessian     .... done
Last element of RFO vector              ....  0.993732424
Lowest eigenvalues of augmented Hessian:
 -0.009673977  0.043235909  0.064373147  0.105023886  0.138266118
Length of the computed step             ....  0.112489965
The final length of the internal step   ....  0.112489965
Converting the step to Cartesian space:
 Initial RMS(Int)=    0.0157517458
Transforming coordinates:
 Iter   0:  RMS(Cart)=    0.0179932387 RMS(Int)=    0.0157439491
done
Storing new coordinates                 .... done

                                .--------------------.
          ----------------------|Geometry convergence|-------------------------
          Item                value                   Tolerance       Converged
          ---------------------------------------------------------------------
          RMS gradient        0.0158580428            0.0000300000      NO
          MAX gradient        0.0854992460            0.0001000000      NO
          RMS step            0.0157517458            0.0006000000      NO
          MAX step            0.0510275236            0.0010000000      NO
          -------------------------------------------------------------------------
          ........................................................
          Max(Bonds)      0.0270      Max(Angles)    1.89
          Max(Dihed)        1.13      Max(Improp)    0.00
          ---------------------------------------------------------------------

The optimization has not yet converged - more geometry cycles are needed


    ---------------------------------------------------------------------------
                         Redundant Internal Coordinates
                            (Angstroem and degrees)

        Definition                    Value    dE/dq     Step     New-Value
    ----------------------------------------------------------------------------
     1. B(Al  1,Al  0)                2.0686 -0.085499  0.0270    2.0956   
     2. B(H   2,Al  0)                1.7084 -0.010217 -0.0063    1.7021   
     3. B(H   2,Al  1)                1.7079 -0.010297 -0.0062    1.7017   
     4. B(H   3,Al  1)                1.5995  0.000364 -0.0005    1.5990   
     5. B(H   4,Al  1)                1.7084 -0.010245 -0.0063    1.7021   
     6. B(H   4,Al  0)                1.7077 -0.010312 -0.0061    1.7015   
     7. B(H   5,Al  0)                1.6003  0.000545 -0.0007    1.5995   
     8. B(H   6,Al  0)                1.6004  0.000587 -0.0008    1.5997   
     9. B(H   7,Al  1)                1.6001  0.000505 -0.0007    1.5994   
    10. A(H   2,Al  0,H   5)          110.57 -0.004699   -0.16    110.42   
    11. A(Al  1,Al  0,H   5)          126.31  0.004732   -0.94    125.37   
    12. A(H   4,Al  0,H   6)          110.55 -0.004494   -0.12    110.43   
    13. A(H   4,Al  0,H   5)          110.57 -0.004672   -0.16    110.42   
    14. A(Al  1,Al  0,H   4)           52.75  0.014242   -0.73     52.01   
    15. A(H   2,Al  0,H   4)          105.46  0.028441   -1.46    104.00   
    16. A(Al  1,Al  0,H   2)           52.72  0.014200   -0.73     52.00   
    17. A(H   5,Al  0,H   6)          109.09 -0.009254    1.89    110.99   
    18. A(H   2,Al  0,H   6)          110.56 -0.004429   -0.13    110.43   
    19. A(Al  1,Al  0,H   6)          124.60  0.004522   -0.96    123.64   
    20. A(H   4,Al  1,H   7)          110.54 -0.004678   -0.16    110.38   
    21. A(H   2,Al  1,H   3)          110.56 -0.004469   -0.12    110.44   
    22. A(H   3,Al  1,H   4)          110.55 -0.004468   -0.12    110.43   
    23. A(Al  0,Al  1,H   2)           52.75  0.014246   -0.73     52.01   
    24. A(H   2,Al  1,H   4)          105.45  0.028442   -1.46    104.00   
    25. A(Al  0,Al  1,H   4)           52.72  0.014197   -0.72     51.99   
    26. A(Al  0,Al  1,H   3)          124.59  0.004507   -0.95    123.64   
    27. A(Al  0,Al  1,H   7)          126.24  0.004710   -0.93    125.31   
    28. A(H   2,Al  1,H   7)          110.54 -0.004683   -0.15    110.38   
    29. A(H   3,Al  1,H   7)          109.16 -0.009217    1.89    111.05   
    30. A(Al  0,H   2,Al  1)           74.53 -0.028447    1.46     75.99   
    31. A(Al  0,H   4,Al  1)           74.54 -0.028440    1.46     75.99   
    32. D(H   4,Al  1,Al  0,H   2)   -178.72 -0.000186    0.10   -178.63   
    33. D(H   3,Al  1,Al  0,H   4)    -90.62  0.000110   -0.05    -90.67   
    34. D(H   3,Al  1,Al  0,H   2)     90.66 -0.000076    0.05     90.70   
    35. D(H   2,Al  1,Al  0,H   6)    -90.63  0.000063   -0.05    -90.68   
    36. D(H   3,Al  1,Al  0,H   5)   -179.99 -0.000020    0.00   -179.99   
    37. D(H   3,Al  1,Al  0,H   6)      0.02 -0.000013   -0.00      0.02   
    38. D(H   2,Al  1,Al  0,H   5)     89.35  0.000056   -0.04     89.31   
    39. D(H   2,Al  1,Al  0,H   4)    178.72  0.000186   -0.10    178.63   
    40. D(Al  0,H   2,Al  1,H   7)    120.54  0.008823   -1.06    119.48   
    41. D(Al  0,H   2,Al  1,H   4)      1.06  0.000190    0.06      1.12   
    42. D(Al  0,H   2,Al  1,H   3)   -118.46 -0.008825    1.13   -117.33   
    43. D(Al  1,H   2,Al  0,H   6)    118.47  0.008815   -1.13    117.34   
    44. D(Al  1,H   2,Al  0,H   5)   -120.61 -0.008857    1.07   -119.54   
    45. D(Al  1,H   2,Al  0,H   4)     -1.06 -0.000191   -0.06     -1.12   
    46. D(Al  1,H   4,Al  0,H   2)      1.06  0.000190    0.06      1.12   
    47. D(Al  0,H   4,Al  1,H   7)   -120.55 -0.008819    1.06   -119.49   
    48. D(Al  0,H   4,Al  1,H   3)    118.47  0.008820   -1.13    117.34   
    49. D(Al  0,H   4,Al  1,H   2)     -1.06 -0.000191   -0.06     -1.12   
    50. D(Al  1,H   4,Al  0,H   6)   -118.47 -0.008856    1.13   -117.34   
    51. D(Al  1,H   4,Al  0,H   5)    120.61  0.008839   -1.07    119.54   
    ----------------------------------------------------------------------------

Geometry step timings:
Preparation and reading OPT file:      0.000 s ( 0.735 %)
Internal coordinates            :      0.000 s ( 0.722 %)
B/P matrices and projection     :      0.001 s (10.067 %)
Hessian update/contruction      :      0.000 s ( 5.929 %)
Making the step                 :      0.005 s (67.930 %)
Converting the step to Cartesian:      0.000 s ( 2.758 %)
Storing new data                :      0.000 s ( 0.954 %)
Checking convergence            :      0.000 s ( 0.864 %)
Final printing                  :      0.001 s (10.028 %)
Total time                      :      0.008 s

Time for energy+gradient        :      9.689 s
Time for complete geometry iter :     10.475 s

         *************************************************************
         *                GEOMETRY OPTIMIZATION CYCLE   2            *
         *************************************************************
---------------------------------
CARTESIAN COORDINATES (ANGSTROEM)
---------------------------------
  Al     0.000010   -0.000329    2.082118
  Al    -0.000050   -0.000297   -0.013420
  H      1.340435   -0.044037    1.033997
  H     -0.059772   -1.330110   -0.899320
  H     -1.338904    0.075566    1.034830
  H      0.058337    1.302608    3.008101
  H     -0.059182   -1.330758    2.968310
  H      0.057886    1.303667   -0.937806

----------------------------
CARTESIAN COORDINATES (A.U.)
----------------------------
  NO LB      ZA    FRAG     MASS         X           Y           Z
   0 Al   13.0000    0    26.982    0.000019   -0.000622    3.934633
   1 Al   13.0000    0    26.982   -0.000094   -0.000561   -0.025360
   2 H     1.0000    0     1.008    2.533055   -0.083218    1.953970
   3 H     1.0000    0     1.008   -0.112953   -2.513544   -1.699468
   4 H     1.0000    0     1.008   -2.530161    0.142799    1.955545
   5 H     1.0000    0     1.008    0.110241    2.461572    5.684488
   6 H     1.0000    0     1.008   -0.111839   -2.514768    5.609294
   7 H     1.0000    0     1.008    0.109389    2.463573   -1.772197

--------------------------------
INTERNAL COORDINATES (ANGSTROEM)
--------------------------------
 Al     0   0   0     0.000000000000     0.00000000     0.00000000
 Al     1   0   0     2.095537682714     0.00000000     0.00000000
 H      2   1   0     1.701732450168    52.01006848     0.00000000
 H      2   1   3     1.598996614051   123.64346257    90.70208263
 H      1   2   3     1.701547199453    52.01066205   178.62460272
 H      1   2   3     1.599528665827   125.37311896    89.30628105
 H      1   2   3     1.599650517179   123.64207439   269.31965440
 H      2   1   3     1.599427166687   125.30718050   270.67693237

---------------------------
INTERNAL COORDINATES (A.U.)
---------------------------
 Al     0   0   0     0.000000000000     0.00000000     0.00000000
 Al     1   0   0     3.959992323642     0.00000000     0.00000000
 H      2   1   0     3.215808284024    52.01006848     0.00000000
 H      2   1   3     3.021665689624   123.64346257    90.70208263
 H      1   2   3     3.215458210907    52.01066205   178.62460272
 H      1   2   3     3.022671121770   125.37311896    89.30628105
 H      1   2   3     3.022901387454   123.64207439   269.31965440
 H      2   1   3     3.022479316193   125.30718050   270.67693237



           ************************************************************
           *        Program running with 24 parallel MPI-processes    *
           *              working on a common directory               *
           ************************************************************
------------------------------------------------------------------------------
                   ___                                                        
                  /   \      - P O W E R E D   B Y -                         
                 /     \                                                     
                 |  |  |   _    _      __       _____    __    __             
                 |  |  |  | |  | |    /  \     |  _  \  |  |  /  |          
                  \  \/   | |  | |   /    \    | | | |  |  | /  /          
                 / \  \   | |__| |  /  /\  \   | |_| |  |  |/  /          
                |  |  |   |  __  | /  /__\  \  |    /   |      \           
                |  |  |   | |  | | |   __   |  |    \   |  |\   \          
                \     /   | |  | | |  |  |  |  | |\  \  |  | \   \       
                 \___/    |_|  |_| |__|  |__|  |_| \__\ |__|  \__/        
                                                                              
                      - O R C A' S   B I G   F R I E N D -                    
                                      &                                       
                       - I N T E G R A L  F E E D E R -                       
                                                                              
 v1 FN, 2020, v2 2021, v3 2022-2024                                           
------------------------------------------------------------------------------


----------------------
SHARK INTEGRAL PACKAGE
----------------------

Number of atoms                             ...      8
Number of basis functions                   ...     66
Number of shells                            ...     34
Maximum angular momentum                    ...      2
Integral batch strategy                     ... SHARK/LIBINT Hybrid
RI-J (if used) integral strategy            ... SPLIT-RIJ (Revised 2003 algorithm where possible)
Printlevel                                  ...      1
Contraction scheme used                     ... SEGMENTED contraction
Prescreening option                         ... SCHWARTZ
   Thresh                                   ... 2.500e-11
   Tcut                                     ... 2.500e-12
   Tpresel                                  ... 2.500e-12 
Coulomb Range Separation                    ... NOT USED
Exchange Range Separation                   ... NOT USED
Multipole approximations                    ... NOT USED
Finite Nucleus Model                        ... NOT USED
CABS basis                                  ... NOT available
Auxiliary Coulomb fitting basis             ... AVAILABLE
   # of basis functions in Aux-J            ...    168
   # of shells in Aux-J                     ...     64
   Maximum angular momentum in Aux-J        ...      4
Auxiliary J/K fitting basis                 ... NOT available
Auxiliary Correlation fitting basis         ... NOT available
Auxiliary 'external' fitting basis          ... NOT available

Checking pre-screening integrals            ... done (  0.0 sec) Dimension = 34
   => SHARK Basis and OBASIS are compatible. Storing Pre-screening
Shell pair information
Shell pair cut-off parameter TPreSel        ...   2.5e-12
Total number of shell pairs                 ...       595
Shell pairs after pre-screening             ...       588
Total number of primitive shell pairs       ...      6132
Primitive shell pairs kept                  ...      4586
          la=0 lb=0:    209 shell pairs
          la=1 lb=0:    236 shell pairs
          la=1 lb=1:     76 shell pairs
          la=2 lb=0:     40 shell pairs
          la=2 lb=1:     24 shell pairs
          la=2 lb=2:      3 shell pairs

Checking whether 4 symmetric matrices of dimension 66 fit in memory
:Max Core in MB      =   4096.00
 MB in use           =      4.43
 MB left             =   4091.57
 MB needed           =      0.07
 Data fit in memory  = YES
Calculating RI/J V-Matrix + Cholesky decomp.... done (  0.0 sec)
Calculating Nuclear repulsion               ... done (  0.0 sec) ENN=     87.100670444966 Eh

Diagonalization of the overlap matrix:
Smallest eigenvalue                        ... 9.219e-03
Time for diagonalization                   ...    0.002 sec
Threshold for overlap eigenvalues          ... 1.000e-07
Number of eigenvalues below threshold      ... 0
Time for construction of square roots      ...    0.001 sec
Total time needed                          ...    0.004 sec

-------------------
DFT GRID GENERATION
-------------------

General Integration Accuracy     IntAcc      ... 4.959
Radial Grid Type                 RadialGrid  ... OptM3 with GC (2021)
Angular Grid (max. ang.)         AngularGrid ... 6 (Lebedev-590)
Angular grid pruning method      GridPruning ... 4 (adaptive)
Weight generation scheme         WeightScheme... mBecke (2022)
Basis function cutoff            BFCut       ... 1.0000e-11
Integration weight cutoff        WCut        ... 1.0000e-14
Partially contracted basis set               ... off
Rotationally invariant grid construction     ... off
Angular grids for H and He will be reduced by one unit

Total number of grid points                  ...    86135
Total number of batches                      ...     1351
Average number of points per batch           ...       63
Average number of grid points per atom       ...    10767
Grids setup in   1.8 sec
Initializing property integral containers    ... done (  0.0 sec)

SHARK setup successfully completed in   2.0 seconds

Maximum memory used throughout the entire STARTUP-calculation: 19.9 MB


           ************************************************************
           *        Program running with 24 parallel MPI-processes    *
           *              working on a common directory               *
           ************************************************************
Occupation numbers will be reassigned to an Aufbau configuration
             **** ENERGY FILE WAS UPDATED (run.en.tmp) ****
Finished Guess after   0.6 sec
Maximum memory used throughout the entire GUESS-calculation: 6.7 MB


           ************************************************************
           *        Program running with 24 parallel MPI-processes    *
           *              working on a common directory               *
           ************************************************************
----------------------------------------D-I-I-S--------------------------------------------
Iteration    Energy (Eh)           Delta-E    RMSDP     MaxDP     DIISErr   Damp  Time(sec)
-------------------------------------------------------------------------------------------
               ***  Starting incremental Fock matrix formation  ***
                              *** Initializing SOSCF ***
---------------------------------------S-O-S-C-F--------------------------------------
Iteration    Energy (Eh)           Delta-E    RMSDP     MaxDP     MaxGrad    Time(sec)
--------------------------------------------------------------------------------------
    1    -488.0859633944564848     0.00e+00  1.37e-03  2.71e-03  5.85e-04     0.1
               *** Restarting incremental Fock matrix formation ***
    2    -488.0860114728995995    -4.81e-05  6.66e-04  1.05e-03  4.12e-04     0.1
    3    -488.0860159230923045    -4.45e-06  2.41e-04  4.92e-04  2.26e-04     0.1
    4    -488.0860162319414712    -3.09e-07  1.15e-04  1.88e-04  1.24e-04     0.1
    5    -488.0860164048553997    -1.73e-07  2.83e-05  7.21e-05  1.55e-05     0.1
    6    -488.0860164079444985    -3.09e-09  1.13e-05  2.99e-05  8.99e-06     0.1
                 **** Energy Check signals convergence ****

               *****************************************************
               *                     SUCCESS                       *
               *           SCF CONVERGED AFTER   6 CYCLES          *
               *****************************************************

             **** ENERGY FILE WAS UPDATED (run.en.tmp) ****

----------------
TOTAL SCF ENERGY
----------------

Total Energy       :       -488.08601640871518 Eh          -13281.49572 eV

Components:
Nuclear Repulsion  :         87.10067044496637 Eh            2370.12974 eV
Electronic Energy  :       -575.18668685368152 Eh          -15651.62546 eV
One Electron Energy:       -850.61025512741105 Eh          -23146.28178 eV
Two Electron Energy:        275.42356827372953 Eh            7494.65631 eV

Virial components:
Potential Energy   :       -976.01925022712385 Eh          -26558.83402 eV
Kinetic Energy     :        487.93323381840861 Eh           13277.33830 eV
Virial Ratio       :          2.00031312191857

DFT components:
N(Alpha)           :       16.000000070070 electrons
N(Beta)            :       16.000000070070 electrons
N(Total)           :       32.000000140140 electrons
E(X)               :      -38.150629729272 Eh       
E(C)               :       -1.095249548040 Eh       
E(XC)              :      -39.245879277312 Eh       

---------------
SCF CONVERGENCE
---------------

  Last Energy change         ...    3.0891e-09  Tolerance :   1.0000e-08
  Last MAX-Density change    ...    2.9922e-05  Tolerance :   1.0000e-07
  Last RMS-Density change    ...    1.1333e-05  Tolerance :   5.0000e-09
  Last DIIS Error            ...    1.8557e-03  Tolerance :   5.0000e-07
  Last Orbital Gradient      ...    8.9878e-06  Tolerance :   1.0000e-05
  Last Orbital Rotation      ...    1.2749e-05  Tolerance :   1.0000e-05


Total SCF time: 0 days 0 hours 0 min 1 sec 
Finished LeanSCF after   1.6 sec

Maximum memory used throughout the entire LEANSCF-calculation: 5.7 MB


           ************************************************************
           *        Program running with 24 parallel MPI-processes    *
           *              working on a common directory               *
           ************************************************************

------------------------------------------------------------------------------
                         ORCA PROPERTY INTEGRAL CALCULATIONS
------------------------------------------------------------------------------

GBWName                                   ... run.gbw
Number of atoms                           ...      8
Number of basis functions                 ...     66
Max core memory                           ...   4096 MB

Dipole integrals                          ... YES
Quadrupole integrals                      ...  NO
Linear momentum integrals                 ...  NO
Angular momentum integrals                ...  NO
Higher moments length integrals           ...  NO
Higher moments velocity integrals         ...  NO
Kinetic energy integrals                  ...  NO
GIAO right hand sides                     ...  NO
GIAO dipole derivative integrals          ...  NO
SOC integrals                             ...  NO
EPR diamagnetic integrals (GIAO)          ...  NO
EPR gauge integrals                       ...  NO
Field gradient integrals                  ...  NO (   0 nuclei)
Spin-dipole/Fermi contact integrals       ...  NO (   0 nuclei)
Contact density integrals                 ...  NO (   0 nuclei)
Nucleus-orbit integrals                   ...  NO (   0 nuclei)
Geometric perturbations                   ...  NO (   8 nuclei)

Choice of electric origin   ... Center of mass
Position of electric origin ... ( -0.0001, -0.0013,  1.9547) 
Choice of magnetic origin   ... GIAO
Position of magnetic origin ... (  0.0000,  0.0000,  0.0000) 

Calculating integrals                     ... Electric Dipole (Length)     done (  0.0 sec)

Property integrals calculated in   0.0 sec

Maximum memory used throughout the entire PROPINT-calculation: 6.8 MB


-------------------------------------------------------------------------------
                          DFT DISPERSION CORRECTION                            
                                                                               
                              DFTD3 V3.1  Rev 1                                
                          USING Becke-Johnson damping                          
-------------------------------------------------------------------------------
-------------------------   ----------------
Dispersion correction           -0.004655987
-------------------------   ----------------


-------------------------   --------------------
FINAL SINGLE POINT ENERGY      -488.090672395306
-------------------------   --------------------



           ************************************************************
           *        Program running with 24 parallel MPI-processes    *
           *              working on a common directory               *
           ************************************************************
------------------------------------------------------------------------------
                         ORCA SCF GRADIENT CALCULATION
------------------------------------------------------------------------------

Nuc. rep. gradient        (SHARK) ... done (  0.0 sec)
HCore & Overlap gradient  (SHARK) ... done (  0.0 sec)
Split-RIJ-J gradient      (SHARK) ... done (  0.3 sec)
XC gradient                       ... done (  0.3 sec)
Dispersion correction             ... done (  0.1 sec)

-------------------
DISPERSION GRADIENT
-------------------

   1   Al  :    0.000000017    0.000000039    0.000151400
   2   Al  :   -0.000000005    0.000000170   -0.000151374
   3   H   :    0.000072147   -0.000002168   -0.000000047
   4   H   :   -0.000002869   -0.000063892   -0.000104014
   5   H   :   -0.000072040    0.000004268    0.000000010
   6   H   :    0.000002804    0.000062678    0.000104938
   7   H   :   -0.000002841   -0.000063824    0.000103960
   8   H   :    0.000002789    0.000062729   -0.000104873

Difference to translation invariance:
           :   -0.0000000000    0.0000000000   -0.0000000000

Difference to rotation invariance:
           :    0.0000000000   -0.0000000000    0.0000000000

Norm of the Dispersion gradient    ...    0.0003405025
RMS gradient                       ...    0.0000695048
MAX gradient                       ...    0.0001513997

------------------
CARTESIAN GRADIENT
------------------

   1   Al  :   -0.000053957    0.000340267   -0.140058594
   2   Al  :    0.000062056    0.000192886    0.139912342
   3   H   :    0.011936733   -0.000640375   -0.000049951
   4   H   :    0.000164478    0.003717760   -0.006393873
   5   H   :   -0.011924704    0.000421577    0.000056071
   6   H   :   -0.000173092   -0.003821094    0.006356878
   7   H   :    0.000158975    0.003603705    0.006494886
   8   H   :   -0.000170490   -0.003814726   -0.006317758

Difference to translation invariance:
           :    0.0000000000   -0.0000000000    0.0000000000

Difference to rotation invariance:
           :    0.0000000151   -0.0000000118    0.0000052139

Norm of the Cartesian gradient     ...    0.1992404884
RMS gradient                       ...    0.0406697944
MAX gradient                       ...    0.1400585939

-------
TIMINGS
-------

Total SCF gradient time     ....        0.692 sec

Densities                   ....       0.000 sec  (  0.1%)
One electron gradient       ....       0.026 sec  (  3.8%)
RI-J Coulomb gradient       ....       0.266 sec  ( 38.4%)
XC gradient                 ....       0.287 sec  ( 41.5%)

Maximum memory used throughout the entire SCFGRAD-calculation: 26.5 MB
------------------------------------------------------------------------------
                         ORCA GEOMETRY RELAXATION STEP
------------------------------------------------------------------------------

Reading the OPT-File                    .... done
Getting information on internals        .... done
Copying old internal coords+grads       .... done
Making the new internal coordinates     .... (2022 redundants) done
Validating the new internal coordinates .... (2022 redundants) done
Calculating the B-matrix                .... done
Calculating the G,G- and P matrices     .... done
Transforming gradient to internals      .... done
Projecting the internal gradient        .... done
Number of atoms                         ....   8
Number of internal coordinates          ....  51
Current Energy                          ....  -488.090672395 Eh
Current gradient norm                   ....     0.199240488 Eh/bohr
Maximum allowed component of the step   ....  0.300
Current trust radius                    ....  0.300
Updating the Hessian (BFGS)             .... done
Forming the augmented Hessian           .... done
Diagonalizing the augmented Hessian     .... done
Last element of RFO vector              ....  0.851998287
Lowest eigenvalues of augmented Hessian:
 -0.051627292  0.043227842  0.064373028  0.105023695  0.111523718
Length of the computed step             ....  0.614490170
Warning: the length of the step is outside the trust region - taking restricted step instead
The input lambda is                     ....     0.042169
   iter:   5  x=   -0.008109  g=   77.318595 f(x)=     1.903072
   iter:  10  x=   -0.183738  g=    0.779504 f(x)=     0.009200
The output lambda is                    ....    -0.184667 (14 iterations)
The final length of the internal step   ....  0.300000000
Converting the step to Cartesian space:
 Initial RMS(Int)=    0.0420084025
Transforming coordinates:
 Iter   0:  RMS(Cart)=    0.0419914964 RMS(Int)=    0.0419511127
done
Storing new coordinates                 .... done
The predicted energy change is          ....    -0.021958702
Previously predicted energy change      ....    -0.004898196
Actually observed energy change         ....    -0.009214613
Ratio of predicted to observed change   ....     1.881225853
New trust radius                        ....     0.200000000

                                .--------------------.
          ----------------------|Geometry convergence|-------------------------
          Item                value                   Tolerance       Converged
          ---------------------------------------------------------------------
          Energy change      -0.0092146126            0.0000010000      NO
          RMS gradient        0.0145226320            0.0000300000      NO
          MAX gradient        0.0783698403            0.0001000000      NO
          RMS step            0.0420084025            0.0006000000      NO
          MAX step            0.1738291344            0.0010000000      NO
          -------------------------------------------------------------------------
          ........................................................
          Max(Bonds)      0.0920      Max(Angles)    4.31
          Max(Dihed)        2.64      Max(Improp)    0.00
          ---------------------------------------------------------------------

The optimization has not yet converged - more geometry cycles are needed


    ---------------------------------------------------------------------------
                         Redundant Internal Coordinates
                            (Angstroem and degrees)

        Definition                    Value    dE/dq     Step     New-Value
    ----------------------------------------------------------------------------
     1. B(Al  1,Al  0)                2.0955 -0.078370  0.0920    2.1875   
     2. B(H   2,Al  0)                1.7021 -0.010289 -0.0042    1.6979   
     3. B(H   2,Al  1)                1.7017 -0.010350 -0.0039    1.6978   
     4. B(H   3,Al  1)                1.5990  0.000444 -0.0016    1.5973   
     5. B(H   4,Al  1)                1.7021 -0.010309 -0.0042    1.6979   
     6. B(H   4,Al  0)                1.7015 -0.010363 -0.0039    1.6977   
[...]
     12       0.000000   0.000000   0.000000   0.000000   0.000000   0.000000
     13       0.000000   0.000000   0.000000   0.000000   0.000000   0.000000
     14       0.000000   0.000000   0.000000   0.000000   0.000000   0.000000
     15       0.000000   0.000000   0.000000   0.000000   0.000000   0.000000
     16       0.000000   0.000000   0.000000   0.000000   0.000000   0.000000
     17       0.000000   0.000000   0.000000   0.000000   0.000000   0.000000
     18       0.000000   0.000000   0.000000   0.000000   0.000000   0.000000
     19       0.000000   0.000000   0.000000   0.000000   0.000000   0.000000
     20       0.000000   0.000000   0.000000   0.000000   0.000000   0.000000
     21       0.000000   0.000000   0.000000   0.000000   0.000000   0.000000
     22       0.000000   0.000000   0.000000   0.000000   0.000000   0.000000
     23       0.000000   0.000000   0.000000   0.000000   0.000000   0.000000
                  6          7          8          9         10         11    
      0      -0.000153   0.000067   0.000685   0.003141  -0.059761   0.032474
      1      -0.003334   0.000192  -0.000022   0.057910   0.003213  -0.001447
      2       0.001249   0.372756   0.000011   0.000061   0.000012  -0.000008
      3      -0.000152  -0.000043  -0.000687  -0.003144   0.059756   0.032482
      4      -0.003328   0.000344   0.000022  -0.057910  -0.003212  -0.001450
      5      -0.001252  -0.372756  -0.000021   0.000037  -0.000009  -0.000003
      6      -0.013022  -0.148858  -0.000008  -0.000005  -0.000026   0.114701
      7      -0.298582   0.011888  -0.000005  -0.000020   0.000023  -0.013775
      8      -0.000057   0.000026   0.000757   0.001372  -0.117594  -0.000026
      9       0.008511   0.000651  -0.496405   0.012229  -0.494783  -0.486678
     10       0.190869   0.011679   0.022137   0.169866   0.023683   0.021751
     11      -0.412144  -0.398025   0.000066  -0.467681  -0.004338   0.000005
     12      -0.013644   0.149339   0.000002  -0.000006   0.000011   0.115463
     13      -0.298575  -0.001288   0.000006  -0.000026  -0.000008   0.003347
     14      -0.000062  -0.000024  -0.000745  -0.000817   0.117600  -0.000008
     15       0.008783  -0.000879  -0.502553  -0.012279   0.486446  -0.497801
     16       0.197043  -0.024184   0.022403  -0.177612  -0.023397   0.022242
     17      -0.406666   0.423800   0.000224   0.466041   0.004268   0.000101
     18       0.008619   0.000427   0.496439  -0.012322   0.494856  -0.486583
     19       0.190716   0.011531  -0.022181  -0.169651  -0.023710   0.021765
     20       0.412285   0.398027  -0.000073  -0.467718  -0.004465   0.000104
     21       0.008914  -0.001328   0.502577   0.012458  -0.486378  -0.497833
     22       0.196858  -0.023995  -0.022353   0.177441   0.023362   0.022224
     23       0.406714  -0.423807   0.000046   0.466171   0.004459   0.000117
                 12         13         14         15         16         17    
      0      -0.000000  -0.000008   0.000712  -0.001302   0.030325  -0.011388
      1      -0.000161  -0.000362  -0.000030  -0.029212  -0.001354   0.000508
      2       0.033592   0.037049  -0.000018   0.000027  -0.000004   0.000003
      3       0.000010  -0.000019   0.000714  -0.001302   0.030325   0.011388
      4       0.000146  -0.000344  -0.000030  -0.029213  -0.001354  -0.000507
      5       0.033580  -0.037060   0.000032  -0.000038  -0.000004  -0.000000
      6      -0.000008  -0.021106   0.024088   0.025703  -0.701647  -0.000116
      7      -0.000134   0.003805   0.612787   0.640815   0.025691   0.000133
      8      -0.002975   0.000004   0.000110   0.000117   0.000083  -0.692337
      9       0.009612  -0.010186  -0.256399   0.003060  -0.054554   0.101256
     10       0.217460  -0.224599   0.011655   0.070103   0.002440  -0.004516
     11      -0.450329   0.444948  -0.000394  -0.199794   0.000006  -0.000012
     12       0.000010   0.021321  -0.030624   0.031507  -0.701163   0.000124
     13       0.000123   0.000851  -0.612565   0.640481   0.036922  -0.000160
     14      -0.002982  -0.000003  -0.000138   0.000140   0.000095   0.692265
     15       0.009780   0.010475   0.240582   0.003124  -0.055768  -0.101467
     16       0.223635   0.231647  -0.010901   0.071285   0.002501   0.004520
     17      -0.445635  -0.442588   0.000257  -0.194824   0.000010   0.000019
     18      -0.009668  -0.010354  -0.256378   0.003098  -0.054554  -0.101258
     19      -0.217336  -0.224332   0.011587   0.070015   0.002447   0.004513
     20      -0.450548  -0.444886   0.000301   0.199815   0.000009   0.000014
     21      -0.009997   0.010575   0.240578   0.003200  -0.055767   0.101470
     22      -0.223362   0.231528  -0.010968   0.071203   0.002494  -0.004524
     23      -0.445575   0.442815  -0.000509   0.194858   0.000013  -0.000020
                 18         19         20         21         22         23    
      0      -0.000002  -0.000004   0.000013   0.000008  -0.001464   0.001494
      1      -0.000129  -0.000119   0.000351   0.000233  -0.032762   0.033404
      2       0.025332   0.010665  -0.013976  -0.016156  -0.000363   0.000332
      3       0.000008  -0.000007  -0.000020   0.000016   0.001469   0.001483
      4       0.000119  -0.000115  -0.000384   0.000296   0.032929   0.033239
      5       0.025332  -0.010665  -0.014104   0.016044  -0.000388  -0.000333
      6      -0.000089   0.706357   0.000009  -0.003564   0.000006   0.000257
      7       0.000133  -0.028635   0.000003   0.000266   0.000013   0.005348
      8      -0.705179  -0.000133  -0.042482  -0.000167  -0.000144  -0.000017
      9      -0.001285  -0.000350   0.020543  -0.020259  -0.019909  -0.019970
     10      -0.028764  -0.008112   0.459750  -0.453334  -0.445546  -0.446768
     11       0.013407   0.000545   0.208592  -0.211418  -0.216806  -0.213540
     12      -0.000078  -0.706084  -0.000020   0.003573  -0.000002   0.000204
     13       0.000157   0.034382   0.000008  -0.000044   0.000014   0.005350
     14      -0.705252   0.000124  -0.042484  -0.000167  -0.000127  -0.000028
     15      -0.001289   0.000365   0.019958   0.020135   0.020039  -0.020147
     16      -0.028828   0.008372   0.445811   0.449750   0.447651  -0.449914
     17       0.013712  -0.000973   0.210117   0.217914   0.225888  -0.223355
     18       0.001303  -0.000357  -0.020334  -0.020348   0.019823  -0.020062
     19       0.028755  -0.008110  -0.455738  -0.456076   0.444439  -0.449625
     20       0.013422  -0.000548   0.206485   0.212398  -0.216037   0.214682
     21       0.001282   0.000367  -0.019989   0.019826  -0.020077  -0.019962
     22       0.028825   0.008371  -0.448954   0.445288  -0.451040  -0.448267
     23       0.013723   0.000976   0.211405  -0.215550   0.227323   0.222274


-----------
IR SPECTRUM
-----------

 Mode   freq       eps      Int      T**2         TX        TY        TZ
       cm**-1   L/(mol*cm) km/mol    a.u.
----------------------------------------------------------------------------
  6:    206.61   0.001952    9.86  0.002948  (-0.002422 -0.054241 -0.000019)
  7:    368.11   0.000001    0.00  0.000001  ( 0.000034  0.000757  0.000000)
  8:    410.77   0.000000    0.00  0.000000  (-0.000006 -0.000001 -0.000049)
  9:    459.95   0.000000    0.00  0.000000  (-0.000007 -0.000001  0.000365)
 10:    465.82   0.000000    0.00  0.000000  (-0.000012  0.000006  0.000009)
 11:    602.81   0.044666  225.72  0.023123  ( 0.151912 -0.006761 -0.000027)
 12:    679.00   0.112310  567.57  0.051617  ( 0.000034 -0.000048  0.227193)
 13:    717.40   0.000008    0.04  0.000004  (-0.000075 -0.001897 -0.000035)
 14:    726.04   0.000022    0.11  0.000010  ( 0.003101 -0.000128  0.000052)
 15:    807.57   0.041797  211.23  0.016151  (-0.005684 -0.126961 -0.000026)
 16:   1294.47   0.068661  346.99  0.016552  ( 0.128528 -0.005736 -0.000015)
 17:   1379.74   0.000000    0.00  0.000000  (-0.000000  0.000004  0.000011)
 18:   1444.30   0.198158  1001.41  0.042815  ( 0.000027 -0.000043  0.206918)
 19:   1506.31   0.000001    0.01  0.000000  (-0.000024 -0.000507  0.000001)
 20:   1913.70   0.026276  132.79  0.004285  (-0.000013 -0.000053 -0.065458)
 21:   1918.65   0.000005    0.02  0.000001  ( 0.000038  0.000848 -0.000261)
 22:   1931.19   0.000013    0.06  0.000002  ( 0.000009  0.000282 -0.001406)
 23:   1939.11   0.078364  396.02  0.012611  ( 0.005009  0.112188 -0.000011)

* The epsilon (eps) is given for a Dirac delta lineshape.
** The dipole moment derivative (T) already includes vibrational overlap.

The first frequency considered to be a vibration is 6
The total number of vibrations considered is 18


--------------------------
THERMOCHEMISTRY AT 298.15K
--------------------------

Temperature         ...   298.15 K
Pressure            ...     1.00 atm
Total Mass          ...    60.01 AMU
Quasi RRHO          ...     True
Cut-Off Frequency   ...     1.00 cm^-1

Throughout the following assumptions are being made:
  (1) The electronic state is orbitally nondegenerate
  (2) There are no thermally accessible electronically excited states
  (3) Hindered rotations indicated by low frequency modes are not
      treated as such but are treated as vibrations and this may
      cause some error
  (4) All equations used are the standard statistical mechanics
      equations for an ideal gas
  (5) All vibrations are strictly harmonic

freq.     206.61  E(vib)   ...       0.35 
freq.     368.11  E(vib)   ...       0.21 
freq.     410.77  E(vib)   ...       0.19 
freq.     459.95  E(vib)   ...       0.16 
freq.     465.82  E(vib)   ...       0.16 
freq.     602.81  E(vib)   ...       0.10 
freq.     679.00  E(vib)   ...       0.08 
freq.     717.40  E(vib)   ...       0.07 
freq.     726.04  E(vib)   ...       0.06 
freq.     807.57  E(vib)   ...       0.05 
freq.    1294.47  E(vib)   ...       0.01 
freq.    1379.74  E(vib)   ...       0.01 
freq.    1444.30  E(vib)   ...       0.00 
freq.    1506.31  E(vib)   ...       0.00 
freq.    1913.70  E(vib)   ...       0.00 
freq.    1918.65  E(vib)   ...       0.00 
freq.    1931.19  E(vib)   ...       0.00 
freq.    1939.11  E(vib)   ...       0.00 

------------
INNER ENERGY
------------

The inner energy is: U= E(el) + E(ZPE) + E(vib) + E(rot) + E(trans)
    E(el)   - is the total energy from the electronic structure calculation
              = E(kin-el) + E(nuc-el) + E(el-el) + E(nuc-nuc)
    E(ZPE)  - the the zero temperature vibrational energy from the frequency calculation
    E(vib)  - the the finite temperature correction to E(ZPE) due to population
              of excited vibrational states
    E(rot)  - is the rotational thermal energy
    E(trans)- is the translational thermal energy

Summary of contributions to the inner energy U:
Electronic energy                ...   -488.15222793 Eh
Zero point energy                ...      0.04276477 Eh      26.84 kcal/mol
Thermal vibrational correction   ...      0.00229569 Eh       1.44 kcal/mol
Thermal rotational correction    ...      0.00141627 Eh       0.89 kcal/mol
Thermal translational correction ...      0.00141627 Eh       0.89 kcal/mol
-----------------------------------------------------------------------
Total thermal energy                   -488.10433493 Eh


Summary of corrections to the electronic energy:
(perhaps to be used in another calculation)
Total thermal correction                  0.00512823 Eh       3.22 kcal/mol
Non-thermal (ZPE) correction              0.04276477 Eh      26.84 kcal/mol
-----------------------------------------------------------------------
Total correction                          0.04789300 Eh      30.05 kcal/mol


--------
ENTHALPY
--------

The enthalpy is H = U + kB*T
                kB is Boltzmann's constant
Total thermal energy              ...   -488.10433493 Eh 
Thermal Enthalpy correction       ...      0.00094421 Eh       0.59 kcal/mol
-----------------------------------------------------------------------
Total Enthalpy                    ...   -488.10339072 Eh


Note: Only C1 symmetry has been detected, increase convergence thresholds 
      if your molecule has a higher symmetry. Symmetry factor of 1.0 is   
      used for the rotational entropy correction. 
 

Note: Rotational entropy computed according to Herzberg 
Infrared and Raman Spectra, Chapter V,1, Van Nostrand Reinhold, 1945 
Point Group:  C1, Symmetry Number:   1  
Rotational constants in cm-1:     1.530631     0.151246     0.144060 

Vibrational entropy computed according to the QRRHO of S. Grimme
Chem.Eur.J. 2012 18 9955 using a reference frequency of 100.0 cm-1


-------
ENTROPY
-------

The entropy contributions are T*S = T*(S(el)+S(vib)+S(rot)+S(trans))
     S(el)   - electronic entropy
     S(vib)  - vibrational entropy
     S(rot)  - rotational entropy
     S(trans)- translational entropy
The entropies will be listed as multiplied by the temperature to get
units of energy

Electronic entropy                ...      0.00000000 Eh      0.00 kcal/mol
Vibrational entropy               ...      0.00343732 Eh      2.16 kcal/mol
Rotational entropy                ...      0.01111625 Eh      6.98 kcal/mol
Translational entropy             ...      0.01814806 Eh     11.39 kcal/mol
-----------------------------------------------------------------------
Final entropy term                ...      0.03270163 Eh     20.52 kcal/mol

In case the symmetry of your molecule has not been determined correctly
or in case you have a reason to use a different symmetry number we print 
out the resulting rotational entropy values for sn=1,12:

 non-linear molecules -----------------------------------
|  sn= 1 | S(rot)=       0.01111625 Eh      6.98 kcal/mol|
|  sn= 2 | S(rot)=       0.01046179 Eh      6.56 kcal/mol|
|  sn= 3 | S(rot)=       0.01007896 Eh      6.32 kcal/mol|
|  sn= 4 | S(rot)=       0.00980733 Eh      6.15 kcal/mol|
|  sn= 5 | S(rot)=       0.00959664 Eh      6.02 kcal/mol|
|  sn= 6 | S(rot)=       0.00942450 Eh      5.91 kcal/mol|
|  sn= 7 | S(rot)=       0.00927895 Eh      5.82 kcal/mol|
|  sn= 8 | S(rot)=       0.00915288 Eh      5.74 kcal/mol|
|  sn= 9 | S(rot)=       0.00904167 Eh      5.67 kcal/mol|
|  sn=10 | S(rot)=       0.00894219 Eh      5.61 kcal/mol|
|  sn=11 | S(rot)=       0.00885220 Eh      5.55 kcal/mol|
|  sn=12 | S(rot)=       0.00877004 Eh      5.50 kcal/mol|
 linear molecules ---------------------------------------
|  Dinfh | S(rot)=       0.00715518 Eh      4.49 kcal/mol|
|  Cinfv | S(rot)=       0.00780964 Eh      4.90 kcal/mol|
 --------------------------------------------------------


-------------------
GIBBS FREE ENERGY
-------------------

The Gibbs free energy is G = H - T*S

Total enthalpy                    ...   -488.10339072 Eh 
Total entropy correction          ...     -0.03270163 Eh    -20.52 kcal/mol
-----------------------------------------------------------------------
Final Gibbs free energy         ...   -488.13609235 Eh

For completeness - the Gibbs free energy minus the electronic energy
G-E(el)                           ...      0.01613558 Eh     10.13 kcal/mol


Maximum memory used throughout the entire PROP-calculation: 26.6 MB

--------------------------------
SUGGESTED CITATIONS FOR THIS RUN
--------------------------------

Below you find a list of papers that are relevant to this ORCA run
We neither can nor want to force you to cite these papers, but we appreciate if you do
You receive ORCA, which is the product of decades of hard work by many enthusiastic individuals, for free
The only thing we kindly ask in return is that you cite our papers,
We deeply appreciate it, if you show your appreciation for ORCA by not just citing the generic ORCA reference.

Please note that relegating all ORCA citations to the supporting information does *not* help us.
SI sections are not indexed - citations you put there will not count into any citation statistics
But we need these citations in order to attract the funding resources that allow us to do what we are doing

Therefore, if you are a happy ORCA user, please consider citing a few of the papers listed below in the main body of your paper

In addition to the list printed below, the program has created the file run.bibtex that contains the list in bibtex format
You can import this file easily into all common literature databanks and citation aid programs


List of essential papers. We consider these as the minimum necessary citations

  1. Neese, F.
     Software update: the ORCA program system, version 6.0
     WIRES Comput. Molec. Sci. 2025 15(1), e70019
     doi.org/10.1002/wcms.7019

List of papers to cite with high priority. The work reported in these papers was absolutely
necessary for this run to complete.
Our perspective: the developers of density functionals and basis sets usually get cited in chemistry papers
Good! But without the algorithms to do something with them, the functionals or basis sets would not do anything.
Hence, in our opinion, the algorithm design and method developments papers are equally worthy of getting cited

  1. Neese, F.
     An improvement of the resolution of the identity approximation for the formation of the Coulomb matrix
     J. Comp. Chem. 2003 24(14), 1740-1747
     doi.org/10.1002/jcc.10318
  2. Grimme, S.; Antony, J.; Ehrlich, S.; Krieg, H.
     A consistent and accurate ab initio parametrization of density functional dispersion correction (DFT-D) for the 94 elements H-Pu
     J. Chem. Phys. 2010 132 , 154104
     doi.org/10.1063/1.3382344
  3. Grimme, S.; Ehrlich, S.; Goerigk, L.
     Effect of the damping function in dispersion corrected density functional theory
     J. Comput. Chem. 2011 32(7), 1456-1465
     doi.org/10.1002/jcc.21759
  4. Bykov, D.; Petrenko, T.; Izsak, R.; Kossmann, S.; Becker, U.; Valeev, E.; Neese, F.
     Efficient implementation of the analytic second derivatives of Hartree-Fock and hybrid DFT energies: a detailed analysis of different approximations
     Molec. Phys. 2015 113 , 1961-1977
     doi.org/10.1080/00268976.2015.1025114
  5. Neese, F.
     The SHARK Integral Generation and Digestion System
     J. Comp. Chem. 2022 44(3), 381
     doi.org/10.1002/jcc.26942

List of suggested additional citations. These are papers that are important in the 'surrounding' of 
of this run, or papers that preceded the highly important papers. If you like your results we are grateful for a citation.

  1. Neese, F.
     The ORCA program system
     WIRES Comput. Molec. Sci. 2012 2(1), 73-78
     doi.org/10.1002/wcms.81
  2. Neese, F.
     Software update: the ORCA program system, version 4.0
     WIRES Comput. Molec. Sci. 2018 8(1), 1-6
     doi.org/10.1002/wcms.1327
  3. Neese, F.; Wennmohs, F.; Becker, U.; Riplinger, C.
     The ORCA quantum chemistry program package
     J. Chem. Phys. 2020 152(22), 224108
     doi.org/10.1063/5.0004608
  4. Neese, F.
     Software update: The ORCA program system—Version 5.0
     WIRES Comput. Molec. Sci. 2022 12(1), e1606
     doi.org/10.1002/wcms.1606

List of optional additional citations

  1. Neese, F.
     Approximate second-order SCF convergence for spin unrestricted wavefunctions
     Chem. Phys. Lett. 2000 325(1-3), 93-98
     doi.org/10.1016/s0009-2614(00)00662-x

Timings for individual modules:

Sum of individual times          ...      133.673 sec (=   2.228 min)
Startup calculation              ...       47.069 sec (=   0.784 min)  35.2 %
SCF iterations                   ...       42.362 sec (=   0.706 min)  31.7 %
Property integrals               ...       15.319 sec (=   0.255 min)  11.5 %
SCF Response                     ...        1.852 sec (=   0.031 min)   1.4 %
Property calculations            ...        3.554 sec (=   0.059 min)   2.7 %
SCF Gradient evaluation          ...       23.392 sec (=   0.390 min)  17.5 %
Geometry relaxation              ...        0.125 sec (=   0.002 min)   0.1 %
                             ****ORCA TERMINATED NORMALLY****
TOTAL RUN TIME: 0 days 0 hours 2 minutes 27 seconds 441 msec
