
                                 *****************
                                 * O   R   C   A *
                                 *****************

                                            #,                                       
                                            ###                                      
                                            ####                                     
                                            #####                                    
                                            ######                                   
                                           ########,                                 
                                     ,,################,,,,,                         
                               ,,#################################,,                 
                          ,,##########################################,,             
                       ,#########################################, ''#####,          
                    ,#############################################,,   '####,        
                  ,##################################################,,,,####,       
                ,###########''''           ''''###############################       
              ,#####''   ,,,,##########,,,,          '''####'''          '####       
            ,##' ,,,,###########################,,,                        '##       
           ' ,,###''''                  '''############,,,                           
         ,,##''                                '''############,,,,        ,,,,,,###''
      ,#''                                            '''#######################'''  
     '                                                          ''''####''''         
             ,#######,   #######,   ,#######,      ##                                
            ,#'     '#,  ##    ##  ,#'     '#,    #''#        ,####,    ,#,          
            ##       ##  ##   ,#'  ##            #'  '#       #'       ,# #          
            ##       ##  #######   ##           ,######,      #####,      #          
            '#,     ,#'  ##    ##  '#,     ,#' ,#      #,     #,   #      #          
             '#######'   ##     ##  '#######'  #'      '#     '####' #    #          



                #########################################################
                #                        -***-                          #
                #          Department of theory and spectroscopy        #
                #                                                       #
                #                      Frank Neese                      #
                #                                                       #
                #     Directorship, Architecture, Infrastructure        #
                #                    SHARK, DRIVERS                     #
                #        Core code/Algorithms in most modules           #
                #                                                       #
                #        Max Planck Institute fuer Kohlenforschung      #
                #                Kaiser Wilhelm Platz 1                 #
                #                 D-45470 Muelheim/Ruhr                 #
                #                      Germany                          #
                #                                                       #
                #                  All rights reserved                  #
                #                        -***-                          #
                #########################################################


                         Program Version 6.1.0  -  RELEASE   -
                                (GIT: $679e74b$)
                          ($2025-06-10 18:02:51 +0200$)


 With contributions from (in alphabetic order):
[Max-Planck-Institut fuer Kohlenforschung]                               
  Daniel Aravena         : Magnetic Suceptibility                        
  Michael Atanasov       : Ab Initio Ligand Field Theory (pilot matlab implementation)
  Alexander A. Auer      : GIAO ZORA, VPT2 properties, NMR spectrum      
  Ute Becker             : All parallelization in ORCA, NUMFREQ, NUMCALC 
  Giovanni Bistoni       : ED, misc. LED, open-shell LED, HFLD           
  Dmytro Bykov           : pre 5.0 version of the SCF Hessian            
  Marcos Casanova-Páez   : Triplet and SCS-CIS(D). UHF-(DLPNO)-IP/EA/STEOM-CCSD. UHF-CVS-IP/STEOM-CCSD   
  Vijay G. Chilkuri      : MRCI spin determinant printing, contributions to CSF-ICE 
  Pauline Colinet        : FMM embedding                                 
  Dipayan Datta          : RHF DLPNO-CCSD density                        
  Achintya Kumar Dutta   : EOM-CC, STEOM-CC                              
  Nicolas Foglia         : Exact transition moments, OPA infrastructure, MCD improvements    
  Dmitry Ganyushin       : Spin-Orbit,Spin-Spin,Magnetic field MRCI      
  Miquel Garcia-Rates    : C-PCM and meta-GGA Hessian, CCSD/C-PCM, Gaussian charge scheme 
  Tiago L. C. Gouveia    : GS-ROHF, GS-ROCIS                             
  Yang Guo               : DLPNO-NEVPT2, F12-NEVPT2, CIM, IAO-localization        
  Andreas Hansen         : Spin unrestricted coupled pair/coupled cluster methods 
  Ingolf Harden          : AUTO-CI MPn and infrastructure                
  Benjamin Helmich-Paris : MC-RPA, TRAH-(SCF,CASSCF), AVAS, COSX integrals, SCF dyn. polar., MC-PDFT, srDFT 
  Lee Huntington         : MR-EOM, pCC                                   
  Robert Izsak           : Overlap fitted RIJCOSX, COSX-SCS-MP3, EOM     
  Riya Kayal             : Wick's Theorem for AUTO-CI, AUTO-CI UHF-CCSDT 
  Emily Kempfer          : AUTO-CI RHF CISDT and CCSDT, approximate NEVPT4
  Christian Kollmar      : KDIIS, OOCD, Brueckner-CCSD(T), CCSD density, CASPT2, CASPT2-K, improved NEVPT2 
  Axel Koslowski         : Symmetry handling                             
  Simone Kossmann        : meta-GGA functionals, TD-DFT gradient, OOMP2, (MP2 Hessian; deprecated post 5.0) 
  Lucas Lang             : DCDCAS, Hyperfine gauge corrections, ICE-SOC+SSC
  Marvin Lechner         : AUTO-CI (C++ implementation), FIC-MRCC        
  Spencer Leger          : CASSCF response                               
  Dagmar Lenk            : GEPOL surface, SMD, ORCA-2-JSON               
  Dimitrios Liakos       : Extrapolation schemes; Compound Job, Property file
  Dimitrios Manganas     : Further ROCIS development; embedding schemes. LFT, Crystal Embedding 
  Dimitrios Pantazis     : SARC Basis sets                               
  Anastasios Papadopoulos: AUTO-CI, single reference methods and gradients 
  Taras Petrenko         : pre 6.0 DFT Hessian and TD-DFT gradient,  ECA, NRVS 
  Petra Pikulova         : Analytic Raman intensities                    
  Peter Pinski           : DLPNO-MP2, DLPNO-MP2 Gradient                 
  Shashank Vittal Rao    : ES-AILFT, MagRelax                            
  Christoph Reimann      : Effective Core Potentials                     
  Marius Retegan         : Local ZFS, SOC                                
  Christoph Riplinger    : Optimizer, TS searches, QM/MM, DLPNO-CCSD(T), (RO)-DLPNO pert. Triples 
  Michael Roemelt        : Original ROCIS implementation, recursive CI coupling coefficients
  Masaaki Saitow         : Open-shell DLPNO-CCSD energy and density      
  Barbara Sandhoefer     : DKH picture change effects                    
  Yorick L. A. Schmerwitz: GMF and freeze-and-release deltaSCF, NEB S-IDPP initial path                    
  Kantharuban Sivalingam : CASSCF convergence/infrastructure, NEVPT2, NEVPT3, NEVPT4(SD), FIC-MRCI and CEPA variants
  Bernardo de Souza      : ESD, SOC TD-DFT                               
  Georgi L. Stoychev     : AutoAux, RI-MP2 NMR, DLPNO-MP2 response, X2C  
  Van Anh Tran           : RI-MP2 g-tensors                              
  Willem Van den Heuvel  : Paramagnetic NMR                              
  Zikuan Wang            : NOTCH, Electric field optimization            
  Frank Wennmohs         : Technical directorship and infrastructure     
  Hang Xu                : AUTO-CI-Response properties                   
                                                                         
[FACCTs GmbH]                                                            
  Markus Bursch, Nicolas Foglia, Miquel Garcia-Rates, Ingolf Harden, Hagen Neugebauer, Anastasios Papadopoulos, 
  Christoph Riplinger, Bernardo de Souza, Georgi L. Stoychev                                                    
                                                                 
  APM, various basis sets, CI-OPT, improved COSX, DLPNO-Multilevel,           
  DOCKER, DRACO, updates on ESD, Fragmentator, GOAT, IRC, LR-CPCM, L-BFGS, MBIS, meta-GGA TD-DFT gradient, ML-optimized integration grids, 
  MM, NACMEs, nearIR, NEB, NEB-TS, NL-DFT gradient (VV10), 2- and 3-layer-ONIOM, interface openCOSMO-RS, QMMM,   
  Crystal-QMMM, RESP, rigid body optimization, SF, symmetry and pop. for TD-DFT, various functionals, SOLVATOR                                   
                                                                         
[Other institutions]                                                     
  V. Asgeirsson          : NEB                                           
  Christoph Bannwarth    : sTDA-DFT, sTD-DFT, PBEh-3c, B97-3c, D3        
  Giovanni Bistoni       : ETS/NOCV, ADLD/ADEX, COVALED                  
  Martin Brehm           : Molecular dynamics                            
  Ronald Cardenas        : ETS/NOCV                                      
  Martina Colucci        : COVALED                                       
  Sebastian Ehlert       : rSCAN, r2SCAN, r2SCAN-3c, D4, dhf basis sets  
  Marvin Friede          : D4 for Fr, Ra, Ac-Lr                          
  Lars Goerigk           : TD-DFT with DH, B97 family of functionals     
  Stefan Grimme          : VdW corrections, initial TS optimization, DFT functionals, gCP, sTDA/sTD-DF 
  Waldemar Hujo          : DFT-NL                                        
  H. Jonsson             : NEB                                           
  Holger Kruse           : gCP                                           
  Marcel Mueller         : wB97X-3c, vDZP basis set                      
  Hagen Neugebauer       : wr2SCAN, Native XTB                           
  Gianluca Regni         : ADLD/ADEX                                     
  Tobias Risthaus        : pre 6.0 range-separated hybrid DFT and stability analysis
  Lukas Wittmann         : regularized MP2, r2SCAN double-hybrids, wr2SCAN        
                                                                         
We gratefully acknowledge several colleagues who have allowed us to      
interface, adapt or use parts of their codes:                            
  Ed Valeev, F. Pavosevic, A. Kumar             : LibInt (2-el integral package), F12 methods 
  Garnet Chan, S. Sharma, J. Yang, R. Olivares  : DMRG                   
  Ulf Ekstrom                                   : XCFun DFT Library      
  Mihaly Kallay                                 : mrcc  (arbitrary order and MRCC methods)
  Frank Weinhold                                : gennbo (NPA and NBO analysis)           
  Simon Mueller                                 : openCOSMO-RS                            
  Christopher J. Cramer and Donald G. Truhlar   : smd solvation model                     
  S Lehtola, MJT Oliveira, MAL Marques          : LibXC Library                           
  Liviu Ungur et al                             : ANISO software                          


 Your calculation uses the libint2 library for the computation of 2-el integrals
 For citations please refer to: http://libint.valeyev.net

 Your ORCA version has been built with support for libXC version: 7.0.0
 For citations please refer to: https://libxc.gitlab.io

 This ORCA versions uses:
   CBLAS   interface :  Fast vector & matrix operations
   LAPACKE interface :  Fast linear algebra routines
   SCALAPACK package :  Parallel linear algebra routines
   Shared memory     :  Shared parallel matrices
   BLAS/LAPACK       :  OpenBLAS 0.3.29  USE64BITINT DYNAMIC_ARCH NO_AFFINITY Bulldozer SINGLE_THREADED
        Core in use  :  Bulldozer
   Copyright (c) 2011-2014, The OpenBLAS Project


  ***********************************
  * Starting time: Fri Aug 15 10:29:07 2025
  * Host name:     chromium09
  * Process ID:    268876
  * Working dir.:  /local/scratch/mehlhorn/61941
  ***********************************



***************************************
The coordinates will be read from file: start.xyz
***************************************


Your calculation utilizes the geometrical counterpoise correction gCP
Please cite in your paper:
H.Kruse, S. Grimme J.Chem.Phys., 136, (2012), 154101 
   

Your calculation utilizes the atom-pairwise dispersion correction
with the Becke-Johnson damping scheme (D3BJ)


Warning: RI is on but no J-basis has been assigned. Assigning Def2/J (nothing to worry about!)
================================================================================

----- Orbital basis set information -----
Your calculation utilizes the basis: def2-SV(P)
   F. Weigend and R. Ahlrichs, Phys. Chem. Chem. Phys. 7, 3297 (2005).

----- AuxJ basis set information -----
Your calculation utilizes the auxiliary basis: def2/J
   H-Rn: F. Weigend, Phys. Chem. Chem. Phys. 8, 1057 (2006).
   Fr-Lr: K. Eichkorn, F. Weigend, O. Treutler, R. Ahlrichs; Theor. Chem. Acc. 97, 119 (1997).

================================================================================
                                        WARNINGS
                       Please study these warnings very carefully!
================================================================================


WARNING: Gradients are needed
  ===> : At least TightSCF should be used for SCF convergence

WARNING: Geometry Optimization
  ===> : Switching off AutoStart
         For restart on a previous wavefunction, please use MOREAD

================================================================================
                                       INPUT FILE
================================================================================
NAME = run.inp
|  1> # Geometry optimization for (AlH3)n cluster
|  2> 
|  3> %pal nprocs 24  end
|  4> 
|  5> %geom MaxIter 500 end
|  6> 
|  7> 
|  8> ! PBE def2-SV(P)
|  9> ! RKS	# closed shell for AlH3
| 10> ! D3    #  dispersion correction
| 11> ! gCP(DFT/SV(P))
| 12> ! Freq 	# Frequency analysis to check the stabiltity of the structures
| 13> 
| 14> ! NoPop # population analysis not necessary	
| 15> 
| 16> ! RI
| 17> ! DEFGRID2
| 18> ! NormalSCF
| 19> ! SloppyOpt
| 20> 
| 21> ! SmallPrint
| 22> 
| 23> 
| 24> * xyzFile 0 1 start.xyz # only maingroup elements H and Al so there should be no net spin
| 25> 
| 26>                          ****END OF INPUT****
================================================================================

                       *****************************
                       * Geometry Optimization Run *
                       *****************************

Geometry optimization settings:
Update method            Update   .... BFGS
Choice of coordinates    CoordSys .... (2022) Redundant Internals
Initial Hessian          InHess   .... Almloef's Model
Max. no of cycles        MaxIter  .... 500

Convergence Tolerances:
Energy Change            TolE     ....  8.0000e-05 Eh
Max. Gradient            TolMAXG  ....  5.0000e-03 Eh/bohr
RMS Gradient             TolRMSG  ....  1.0000e-03 Eh/bohr
Max. Displacement        TolMAXD  ....  3.0000e-02 bohr
RMS Displacement         TolRMSD  ....  2.0000e-02 bohr
Strict Convergence                .... False

------------------------------------------------------------------------------
                        ORCA OPTIMIZATION COORDINATE SETUP
------------------------------------------------------------------------------

The optimization will be done in redundant internal coordinates (2022)
Making redundant internal coordinates   ...  (2022 redundants) done
Evaluating the initial hessian          ...  (Almloef) done
Evaluating the coordinates              ...  done
Calculating the B-matrix                .... done
Calculating the G-matrix                .... done
The number of degrees of freedom        ....  487

    -----------------------------------------------------------------
                    Redundant Internal Coordinates


    -----------------------------------------------------------------
         Definition                    Initial Value    Approx d2E/dq
    -----------------------------------------------------------------
      1. B(Al  1,Al  0)                  3.1210         0.053122   
      2. B(Al  3,Al  1)                  3.3028         0.027237   
      3. B(Al  5,Al  4)                  2.9540         0.098093   
      4. B(Al  6,Al  5)                  3.0925         0.058985   
      5. B(Al  6,Al  3)                  3.2243         0.036334   
      6. B(H   7,Al  0)                  1.9668         0.100725   
      7. B(H   8,Al  0)                  2.2299         0.038316   
      8. B(H   9,Al  1)                  1.8741         0.141590   
      9. B(H  10,Al  0)                  2.7173         0.010000   
     10. B(H  10,Al  1)                  2.1447         0.052393   
     11. B(H  11,Al  1)                  2.0090         0.086255   
     12. B(H  12,Al  0)                  2.1583         0.049836   
     13. B(H  12,Al  2)                  1.8368         0.162371   
     14. B(H  13,Al  2)                  2.3503         0.024616   
     15. B(H  14,H  12)                  3.0713         0.010000   
     16. B(H  14,Al  2)                  2.3944         0.020935   
     17. B(H  15,Al  5)                  1.7940         0.190035   
     18. B(H  16,Al  4)                  2.2722         0.032801   
     19. B(H  16,H  14)                  2.5380         0.010000   
     20. B(H  17,Al  4)                  2.3019         0.029414   
     21. B(H  17,Al  2)                  2.1569         0.050096   
     22. B(H  17,H  13)                  2.7540         0.010000   
     23. B(H  18,H  15)                  2.5805         0.010000   
     24. B(H  18,Al  4)                  2.6535         0.010000   
     25. B(H  19,Al  5)                  1.9066         0.125640   
     26. B(H  20,Al  6)                  1.5454         0.473665   
     27. B(H  21,Al  6)                  1.6515         0.320767   
     28. B(H  22,Al  6)                  2.0558         0.072634   
     29. B(H  22,Al  3)                  2.0328         0.079035   
     30. B(H  22,H  16)                  2.0236         0.010000   
     31. B(H  23,Al  3)                  1.9817         0.095340   
     32. B(H  23,Al  1)                  1.8308         0.166015   
     33. B(H  24,H  17)                  2.0983         0.010000   
     34. B(H  24,Al  3)                  2.4303         0.018349   
     35. B(H  24,Al  2)                  1.7550         0.219266   
     36. B(H  25,H  14)                  2.7094         0.010000   
     37. B(H  25,H  22)                  2.7582         0.010000   
     38. B(H  25,H  23)                  2.6925         0.010000   
     39. B(H  25,H  12)                  2.5175         0.010000   
     40. B(H  25,H  24)                  2.4779         0.010000   
     41. B(H  25,Al  2)                  2.4741         0.015621   
     42. B(H  25,Al  3)                  2.2706         0.032996   
     43. B(H  26,H  24)                  2.2681         0.010000   
     44. B(H  26,H  16)                  2.3148         0.010000   
     45. B(H  26,Al  3)                  1.8479         0.155916   
     46. B(H  27,H  21)                  2.8228         0.010000   
     47. B(H  27,Al  5)                  2.2581         0.034544   
     48. A(H   8,Al  0,H  10)           75.4686         0.157090   
     49. A(Al  1,Al  0,H  10)           42.4039         0.178432   
     50. A(Al  1,Al  0,H  12)           94.8287         0.231343   
     51. A(Al  1,Al  0,H   8)          102.0818         0.223121   
     52. A(H   8,Al  0,H  12)          138.6338         0.197375   
     53. A(H   7,Al  0,H   8)           99.8634         0.216086   
     54. A(Al  1,Al  0,H   7)          123.5301         0.255918   
     55. A(H  10,Al  0,H  12)           93.5449         0.161264   
     56. A(H   7,Al  0,H  12)          101.6176         0.223876   
     57. A(H   7,Al  0,H  10)          160.8187         0.173741   
     58. A(H  11,Al  1,H  23)          112.9189         0.259992   
     59. A(Al  3,Al  1,H   9)          134.6752         0.243993   
     60. A(Al  0,Al  1,Al  3)          105.3757         0.240440   
     61. A(Al  0,Al  1,H  23)          130.3576         0.275905   
     62. A(H   9,Al  1,H  10)          103.7806         0.236342   
     63. A(Al  0,Al  1,H   9)          116.9645         0.269292   
     64. A(Al  0,Al  1,H  10)           58.6919         0.232964   
     65. A(H   9,Al  1,H  11)          111.2643         0.253942   
     66. A(Al  0,Al  1,H  11)           43.9236         0.250160   
     67. A(H  10,Al  1,H  23)          113.0398         0.241746   
     68. A(H  10,Al  1,H  11)          102.5492         0.220707   
     69. A(Al  3,Al  1,H  10)           84.1997         0.212763   
     70. A(Al  3,Al  1,H  23)           31.3036         0.249678   
     71. A(H   9,Al  1,H  23)          112.5156         0.280290   
     72. A(Al  3,Al  1,H  11)          110.1826         0.227546   
     73. A(H  13,Al  2,H  25)          157.0561         0.164404   
     74. A(H  14,Al  2,H  25)           67.6052         0.161690   
     75. A(H  24,Al  2,H  25)           69.3594         0.212697   
     76. A(H  13,Al  2,H  17)           75.1876         0.187162   
     77. A(H  13,Al  2,H  24)          101.7573         0.226109   
     78. A(H  13,Al  2,H  14)          134.4478         0.169571   
     79. A(H  12,Al  2,H  14)           92.1230         0.212485   
     80. A(H  12,Al  2,H  25)           69.6709         0.204566   
     81. A(H  12,Al  2,H  17)          174.1467         0.239446   
     82. A(H  17,Al  2,H  25)          116.1823         0.177560   
     83. A(H  14,Al  2,H  24)          110.1119         0.221173   
     84. A(H  14,Al  2,H  17)           90.3086         0.183629   
     85. A(H  12,Al  2,H  24)          120.0020         0.299137   
     86. A(H  17,Al  2,H  24)           63.9112         0.250031   
     87. A(H  12,Al  2,H  13)           99.3655         0.217096   
     88. A(Al  1,Al  3,H  24)           90.5222         0.186601   
     89. A(Al  6,Al  3,H  25)          117.7076         0.207978   
     90. A(Al  1,Al  3,H  26)          152.6571         0.247412   
     91. A(H  22,Al  3,H  23)          109.0875         0.236865   
     92. A(H  22,Al  3,H  26)           64.5805         0.254277   
     93. A(Al  6,Al  3,H  24)          124.1611         0.193180   
     94. A(Al  1,Al  3,H  25)           66.2044         0.200465   
     95. A(H  25,Al  3,H  26)           96.6611         0.224628   
     96. A(H  23,Al  3,H  25)           78.2451         0.210339   
     97. A(H  22,Al  3,H  25)           79.5149         0.205296   
     98. A(Al  6,Al  3,H  26)           62.2540         0.258089   
     99. A(Al  1,Al  3,Al  6)          144.0090         0.227965   
    100. A(Al  1,Al  3,H  22)          127.7554         0.224832   
    101. A(H  23,Al  3,H  26)          172.7441         0.261444   
    102. A(Al  6,Al  3,H  22)           38.1952         0.233987   
    103. A(H  24,Al  3,H  25)           63.5155         0.172564   
    104. A(H  24,Al  3,H  26)           62.2867         0.207759   
    105. A(Al  6,Al  3,H  23)          115.3944         0.240275   
    106. A(H  22,Al  3,H  24)          108.5662         0.190831   
    107. A(Al  1,Al  3,H  23)           28.6848         0.230722   
    108. A(H  23,Al  3,H  24)          118.7820         0.195247   
    109. A(Al  5,Al  4,H  17)          117.7113         0.234142   
    110. A(H  17,Al  4,H  18)           99.4613         0.156631   
    111. A(H  16,Al  4,H  18)          148.1347         0.158320   
    112. A(Al  5,Al  4,H  18)           93.2533         0.197350   
    113. A(Al  5,Al  4,H  16)           97.3448         0.237768   
    114. A(H  16,Al  4,H  17)          101.9332         0.181858   
    115. A(Al  4,Al  5,Al  6)           90.9983         0.296245   
    116. A(H  15,Al  5,H  19)          110.3389         0.280968   
    117. A(Al  6,Al  5,H  19)           43.3060         0.268689   
    118. A(Al  4,Al  5,H  19)           73.6922         0.290613   
    119. A(Al  6,Al  5,H  15)          149.7287         0.286331   
    120. A(Al  4,Al  5,H  15)           62.8785         0.310408   
    121. A(H  15,Al  5,H  27)          132.2784         0.232320   
    122. A(Al  6,Al  5,H  27)           77.8940         0.223153   
    123. A(Al  4,Al  5,H  27)          145.3276         0.239521   
    124. A(H  19,Al  5,H  27)          114.7681         0.219507   
    125. A(Al  3,Al  6,Al  5)           79.1274         0.254524   
    126. A(H  21,Al  6,H  22)          106.9468         0.279907   
    127. A(H  20,Al  6,H  22)          126.4144         0.297515   
    128. A(Al  5,Al  6,H  22)           94.8859         0.247729   
    129. A(Al  3,Al  6,H  22)           37.6928         0.231242   
    130. A(H  20,Al  6,H  21)          102.0265         0.380834   
    131. A(Al  5,Al  6,H  21)           94.1698         0.311154   
    132. A(Al  3,Al  6,H  21)           74.2090         0.288080   
    133. A(Al  5,Al  6,H  20)          126.9860         0.331644   
    134. A(Al  3,Al  6,H  20)          153.8525         0.306441   
    135. A(Al  0,H  10,Al  1)           78.9043         0.162087   
    136. A(Al  0,H  12,Al  2)          133.8745         0.239269   
    137. A(Al  0,H  12,H  14)          159.7297         0.105136   
    138. A(Al  0,H  12,H  25)          104.6262         0.114574   
    139. A(Al  2,H  12,H  25)           67.1577         0.122412   
    140. A(H  14,H  12,H  25)           56.9656         0.092588   
    141. A(Al  2,H  12,H  14)           51.1757         0.110081   
    142. A(Al  2,H  13,H  17)           49.2160         0.106909   
    143. A(Al  2,H  14,H  16)           97.8572         0.109659   
    144. A(H  12,H  14,H  16)          118.5428         0.092527   
    145. A(Al  2,H  14,H  12)           36.7012         0.102260   
    146. A(H  16,H  14,H  25)           70.9782         0.093765   
    147. A(Al  2,H  14,H  25)           57.5982         0.106916   
    148. A(H  12,H  14,H  25)           51.1659         0.092059   
    149. A(Al  5,H  15,H  18)          137.0716         0.121855   
    150. A(Al  4,H  16,H  26)           60.8301         0.116535   
    151. A(H  22,H  16,H  26)           56.7910         0.099147   
    152. A(Al  4,H  16,H  22)          115.5436         0.124076   
    153. A(H  14,H  16,H  26)          107.9931         0.095616   
    154. A(Al  4,H  16,H  14)           94.5031         0.111869   
    155. A(H  14,H  16,H  22)          117.9504         0.097428   
    156. A(Al  2,H  17,Al  4)          115.6454         0.191199   
    157. A(Al  4,H  17,H  24)           94.2668         0.121160   
    158. A(Al  2,H  17,H  24)           48.6925         0.125279   
    159. A(Al  4,H  17,H  13)          170.8220         0.107645   
    160. A(Al  2,H  17,H  13)           55.5963         0.110033   
    161. A(H  13,H  17,H  24)           81.5314         0.095619   
    162. A(Al  4,H  18,H  15)           61.2490         0.105078   
    163. A(Al  6,H  21,H  27)           96.3887         0.119238   
    164. A(H  16,H  22,H  25)           77.5685         0.096018   
    165. A(Al  6,H  22,H  25)          158.1467         0.111797   
    166. A(Al  3,H  22,H  25)           54.0425         0.112237   
    167. A(Al  3,H  22,Al  6)          104.1119         0.228036   
    168. A(Al  6,H  22,H  16)          113.1182         0.130991   
    169. A(Al  3,H  22,H  16)          108.2060         0.131801   
    170. A(Al  3,H  23,H  25)           55.6513         0.114607   
    171. A(Al  1,H  23,H  25)           86.5764         0.118032   
    172. A(Al  1,H  23,Al  3)          120.0116         0.263912   
    173. A(Al  2,H  24,H  26)          125.6586         0.133004   
    174. A(H  17,H  24,H  25)          118.3596         0.097326   
    175. A(Al  3,H  24,H  25)           55.1001         0.110079   
    176. A(H  25,H  24,H  26)           81.0905         0.096230   
    177. A(Al  2,H  24,H  25)           69.1268         0.125957   
    178. A(Al  3,H  24,H  17)          135.6139         0.117902   
    179. A(H  17,H  24,H  26)           90.7875         0.098914   
    180. A(Al  2,H  24,H  17)           67.3963         0.139673   
    181. A(Al  3,H  24,H  26)           46.1594         0.114098   
    182. A(Al  2,H  24,Al  3)          124.0657         0.217287   
    183. A(H  22,H  25,H  23)           73.7230         0.093024   
    184. A(H  12,H  25,H  22)          158.5816         0.093655   
    185. A(H  22,H  25,H  24)           87.6380         0.093810   
    186. A(Al  2,H  25,H  22)          116.0801         0.105099   
    187. A(Al  3,H  25,H  22)           46.4427         0.108068   
    188. A(H  12,H  25,H  23)          121.8270         0.093916   
    189. A(H  23,H  25,H  24)           94.6509         0.094080   
    190. A(Al  2,H  25,H  23)          129.7946         0.106004   
    191. A(Al  3,H  25,H  23)           46.1036         0.109140   
    192. A(H  12,H  25,H  24)           77.0314         0.094876   
    193. A(Al  2,H  25,H  12)           43.1714         0.108668   
    194. A(Al  3,H  25,H  12)          131.8067         0.112295   
    195. A(Al  2,H  25,H  24)           41.5138         0.109325   
    196. A(Al  3,H  25,H  24)           61.3844         0.113073   
    197. A(Al  2,H  25,Al  3)          102.7942         0.169574   
    198. A(H  14,H  25,H  22)           91.5441         0.092968   
    199. A(H  14,H  25,H  23)          165.1175         0.093191   
    200. A(H  12,H  25,H  14)           71.8685         0.093848   
    201. A(H  14,H  25,H  24)           82.3933         0.094010   
    202. A(Al  2,H  25,H  14)           54.7965         0.105767   
    203. A(Al  3,H  25,H  14)          121.3555         0.108860   
    204. A(H  16,H  26,H  24)           98.0600         0.097281   
    205. A(Al  3,H  26,H  24)           71.5539         0.129736   
    206. A(Al  3,H  26,H  16)          103.6937         0.128184   
    207. A(Al  5,H  27,H  21)           89.8469         0.107260   
    208. D(H   9,Al  1,Al  0,H   8)    -38.1379         0.010000   
    209. D(H   9,Al  1,Al  0,H  10)    -90.1941         0.010000   
    210. D(Al  3,Al  1,Al  0,H  10)     73.1465         0.010000   
    211. D(H   9,Al  1,Al  0,H   7)     72.4711         0.010000   
    212. D(Al  3,Al  1,Al  0,H   8)    125.2027         0.010000   
    213. D(Al  3,Al  1,Al  0,H  12)    -16.8258         0.010000   
    214. D(H  11,Al  1,Al  0,H   7)    -20.8739         0.010000   
    215. D(Al  3,Al  1,Al  0,H   7)   -124.1883         0.010000   
    216. D(H   9,Al  1,Al  0,H  12)    179.8336         0.010000   
    217. D(H  22,Al  3,Al  1,H  23)    -56.3771         0.010000   
    218. D(H  22,Al  3,Al  1,Al  0)     90.8028         0.010000   
    219. D(Al  6,Al  3,Al  1,H  23)     -5.0764         0.010000   
    220. D(Al  6,Al  3,Al  1,H  10)   -162.6215         0.010000   
    221. D(Al  6,Al  3,Al  1,H   9)    -58.9553         0.010000   
    222. D(H  22,Al  3,Al  1,H  11)     44.8131         0.010000   
    223. D(H  23,Al  3,Al  1,Al  0)    147.1798         0.010000   
    224. D(H  22,Al  3,Al  1,H  10)    146.0779         0.010000   
    225. D(H  22,Al  3,Al  1,H   9)   -110.2559         0.010000   
    226. D(Al  6,Al  3,Al  1,Al  0)    142.1034         0.010000   
    227. D(Al  6,Al  3,Al  1,H  11)     96.1137         0.010000   
    228. D(Al  6,Al  5,Al  4,H  18)    148.2034         0.010000   
    229. D(H  15,Al  5,Al  4,H  18)    -15.8604         0.010000   
    230. D(H  19,Al  5,Al  4,H  16)    -41.9157         0.010000   
    231. D(H  15,Al  5,Al  4,H  17)     86.6041         0.010000   
    232. D(H  15,Al  5,Al  4,H  16)   -165.7461         0.010000   
    233. D(Al  6,Al  5,Al  4,H  16)     -1.6823         0.010000   
    234. D(Al  6,Al  5,Al  4,H  17)   -109.3321         0.010000   
    235. D(Al  5,Al  6,Al  3,H  23)    158.0472         0.010000   
    236. D(Al  5,Al  6,Al  3,Al  1)    160.7419         0.010000   
    237. D(Al  5,Al  6,Al  3,H  22)   -112.9809         0.010000   
    238. D(H  20,Al  6,Al  5,H  27)     96.7138         0.010000   
    239. D(Al  5,Al  6,Al  3,H  26)    -29.6297         0.010000   
    240. D(Al  3,Al  6,Al  5,Al  4)     62.1118         0.010000   
    241. D(H  20,Al  6,Al  5,Al  4)   -116.4077         0.010000   
    242. D(Al  3,Al  6,Al  5,H  15)     91.1100         0.010000   
    243. D(Al  3,Al  6,Al  5,H  19)    126.7750         0.010000   
    244. D(Al  3,Al  6,Al  5,H  27)    -84.7666         0.010000   
    245. D(H  20,Al  6,Al  3,H  26)    147.6862         0.010000   
    246. D(H  20,Al  6,Al  3,H  23)    -24.6369         0.010000   
    247. D(H  20,Al  6,Al  5,H  19)    -51.7446         0.010000   
    248. D(Al  5,Al  6,Al  3,H  25)   -112.2629         0.010000   
    249. D(H  20,Al  6,Al  3,Al  1)    -21.9422         0.010000   
    250. D(H  20,Al  6,Al  3,H  22)     64.3350         0.010000   
    251. D(H  20,Al  6,Al  5,H  15)    -87.4096         0.010000   
    252. D(Al  5,Al  6,Al  3,H  24)    -36.8798         0.010000   
    253. D(Al  0,H  10,Al  1,Al  3)   -111.9449         0.010000   
    254. D(Al  0,H  10,Al  1,H  11)     -2.5144         0.010000   
    255. D(Al  0,H  10,Al  1,H   9)    113.4081         0.010000   
    256. D(Al  0,H  10,Al  1,H  23)   -124.3990         0.010000   
    257. D(Al  1,H  10,Al  0,H   8)   -127.1904         0.010000   
    258. D(Al  1,H  10,Al  0,H   7)    -49.1087         0.010000   
    259. D(Al  1,H  10,Al  0,H  12)     93.2809         0.010000   
    260. D(Al  0,H  12,Al  2,H  25)    -88.5734         0.010000   
    261. D(Al  0,H  12,Al  2,H  17)     91.7948         0.010000   
    262. D(Al  0,H  12,Al  2,H  24)    -38.9647         0.010000   
    263. D(Al  2,H  12,Al  0,Al  1)     62.5491         0.010000   
    264. D(Al  2,H  12,Al  0,H  10)     20.0448         0.010000   
    265. D(Al  2,H  12,Al  0,H   8)    -51.8933         0.010000   
    266. D(Al  2,H  12,Al  0,H   7)   -171.7677         0.010000   
    267. D(H  25,H  12,Al  0,H   7)    116.0291         0.010000   
    268. D(H  25,H  12,Al  0,Al  1)     -9.6541         0.010000   
    269. D(Al  0,H  12,Al  2,H  13)     70.5290         0.010000   
    270. D(H  25,H  12,Al  0,H  10)    -52.1584         0.010000   
    271. D(H  25,H  12,Al  2,H  13)    159.1024         0.010000   
    272. D(H  25,H  12,Al  2,H  17)   -179.6318         0.010000   
    273. D(H  25,H  12,Al  2,H  24)     49.6087         0.010000   
    274. D(Al  0,H  12,Al  2,H  14)   -153.7194         0.010000   
    275. D(H  17,H  13,Al  2,H  24)    -58.6901         0.010000   
    276. D(H  17,H  13,Al  2,H  25)   -123.0978         0.010000   
    277. D(H  17,H  13,Al  2,H  12)    177.8074         0.010000   
    278. D(H  17,H  13,Al  2,H  14)     75.4285         0.010000   
    279. D(H  25,H  14,H  12,Al  2)    -85.9237         0.010000   
    280. D(H  16,H  14,H  12,H  25)     23.9132         0.010000   
    281. D(H  16,H  14,H  12,Al  0)     50.8769         0.010000   
    282. D(H  16,H  14,H  12,Al  2)    -62.0105         0.010000   
    283. D(Al  2,H  14,H  12,H  25)     85.9237         0.010000   
    284. D(Al  2,H  14,H  12,Al  0)    112.8875         0.010000   
    285. D(H  25,H  14,Al  2,H  17)   -118.3598         0.010000   
    286. D(H  25,H  14,Al  2,H  24)    -56.1577         0.010000   
    287. D(H  25,H  14,Al  2,H  12)     66.9655         0.010000   
    288. D(H  16,H  14,Al  2,H  13)   -126.2062         0.010000   
    289. D(H  16,H  14,Al  2,H  25)     61.4927         0.010000   
    290. D(H  16,H  14,Al  2,H  17)    -56.8671         0.010000   
    291. D(H  16,H  14,Al  2,H  12)    128.4582         0.010000   
    292. D(H  16,H  14,Al  2,H  24)      5.3350         0.010000   
    293. D(H  18,H  15,Al  5,Al  6)     -8.6696         0.010000   
    294. D(H  18,H  15,Al  5,H  19)    -33.9151         0.010000   
    295. D(H  18,H  15,Al  5,Al  4)     24.3271         0.010000   
    296. D(H  18,H  15,Al  5,H  27)    165.8779         0.010000   
    297. D(Al  4,H  16,H  14,H  12)     89.6942         0.010000   
    298. D(Al  4,H  16,H  14,H  25)    109.2055         0.010000   
    299. D(Al  4,H  16,H  14,Al  2)     57.5034         0.010000   
    300. D(H  22,H  16,H  14,H  12)    -32.4084         0.010000   
    301. D(H  22,H  16,H  14,H  25)    -12.8971         0.010000   
    302. D(H  22,H  16,H  14,Al  2)    -64.5992         0.010000   
    303. D(H  26,H  16,Al  4,H  18)   -152.1936         0.010000   
    304. D(H  26,H  16,Al  4,H  17)     76.6407         0.010000   
    305. D(H  22,H  16,Al  4,H  18)   -136.3392         0.010000   
    306. D(H  22,H  16,Al  4,Al  5)    -27.9333         0.010000   
    307. D(H  22,H  16,Al  4,H  17)     92.4951         0.010000   
    308. D(H  26,H  16,Al  4,Al  5)    -43.7877         0.010000   
    309. D(H  24,H  17,Al  2,H  12)   -133.0818         0.010000   
    310. D(H  24,H  17,H  13,Al  2)     45.0164         0.010000   
    311. D(Al  2,H  17,Al  4,H  18)   -161.0378         0.010000   
    312. D(Al  2,H  17,Al  4,Al  5)    100.1892         0.010000   
    313. D(H  24,H  17,Al  4,H  18)    153.2649         0.010000   
    314. D(H  24,H  17,Al  4,H  16)    -50.4952         0.010000   
    315. D(H  24,H  17,Al  4,Al  5)     54.4919         0.010000   
    316. D(Al  4,H  17,Al  2,H  13)    176.8245         0.010000   
    317. D(Al  4,H  17,Al  2,H  25)    -24.5163         0.010000   
    318. D(Al  4,H  17,Al  2,H  24)    -71.8192         0.010000   
    319. D(Al  4,H  17,Al  2,H  12)    155.0990         0.010000   
    320. D(Al  2,H  17,Al  4,H  16)     -4.7979         0.010000   
    321. D(H  24,H  17,Al  2,H  14)    112.3480         0.010000   
    322. D(Al  4,H  17,H  13,Al  2)    -18.2452         0.010000   
    323. D(H  24,H  17,Al  2,H  13)   -111.3563         0.010000   
    324. D(H  24,H  17,Al  2,H  25)     47.3029         0.010000   
    325. D(H  15,H  18,Al  4,H  17)   -107.6729         0.010000   
    326. D(Al  4,H  18,H  15,Al  5)    -27.7473         0.010000   
    327. D(H  15,H  18,Al  4,H  16)    120.6322         0.010000   
    328. D(H  15,H  18,Al  4,Al  5)     11.1212         0.010000   
    329. D(H  27,H  21,Al  6,H  20)   -120.0079         0.010000   
    330. D(H  27,H  21,Al  6,Al  3)     86.6687         0.010000   
    331. D(H  27,H  21,Al  6,H  22)    105.6123         0.010000   
    332. D(H  27,H  21,Al  6,Al  5)      9.2110         0.010000   
    333. D(Al  6,H  22,Al  3,Al  1)    132.1229         0.010000   
    334. D(Al  6,H  22,Al  3,H  23)    107.1025         0.010000   
    335. D(Al  6,H  22,H  16,H  14)    172.1887         0.010000   
    336. D(Al  6,H  22,H  16,H  26)     78.1392         0.010000   
    337. D(Al  6,H  22,H  16,Al  4)     61.5737         0.010000   
    338. D(Al  3,H  22,H  16,H  14)     57.3865         0.010000   
    339. D(Al  3,H  22,H  16,Al  4)    -53.2286         0.010000   
    340. D(H  16,H  22,Al  6,H  21)   -147.9577         0.010000   
    341. D(H  16,H  22,Al  6,H  20)     92.3430         0.010000   
    342. D(H  16,H  22,Al  6,Al  5)    -52.0839         0.010000   
    343. D(H  16,H  22,Al  6,Al  3)   -117.2332         0.010000   
    344. D(Al  3,H  22,Al  6,H  20)   -150.4238         0.010000   
    345. D(H  16,H  22,Al  3,H  26)     43.8599         0.010000   
    346. D(H  16,H  22,Al  3,H  23)   -132.3090         0.010000   
    347. D(H  16,H  22,Al  3,Al  6)    120.5885         0.010000   
    348. D(Al  3,H  22,Al  6,Al  5)     65.1493         0.010000   
    349. D(Al  3,H  22,H  16,H  26)    -36.6631         0.010000   
    350. D(H  16,H  22,Al  3,Al  1)   -107.2886         0.010000   
    351. D(Al  6,H  22,Al  3,H  25)   -179.3535         0.010000   
    352. D(Al  6,H  22,Al  3,H  24)   -122.0773         0.010000   
    353. D(Al  6,H  22,Al  3,H  26)    -76.7287         0.010000   
    354. D(Al  3,H  22,Al  6,H  21)    -30.7246         0.010000   
    355. D(H  25,H  23,Al  3,H  22)     74.4131         0.010000   
    356. D(H  25,H  23,Al  3,Al  6)    115.2730         0.010000   
    357. D(H  25,H  23,Al  3,Al  1)    -61.4272         0.010000   
    358. D(Al  1,H  23,Al  3,H  24)     10.7750         0.010000   
    359. D(Al  1,H  23,Al  3,H  26)    107.2976         0.010000   
    360. D(Al  1,H  23,Al  3,H  22)    135.8403         0.010000   
    361. D(Al  1,H  23,Al  3,Al  6)    176.7002         0.010000   
    362. D(H  25,H  23,Al  1,H   9)   -171.8658         0.010000   
    363. D(H  25,H  23,Al  1,Al  3)     46.5824         0.010000   
    364. D(H  25,H  23,Al  1,Al  0)      3.2824         0.010000   
    365. D(Al  1,H  23,Al  3,H  25)     61.4272         0.010000   
    366. D(Al  3,H  23,Al  1,H  10)     24.3896         0.010000   
    367. D(Al  3,H  23,Al  1,H  11)    -91.4698         0.010000   
    368. D(Al  3,H  23,Al  1,H   9)    141.5518         0.010000   
    369. D(Al  3,H  23,Al  1,Al  0)    -43.2999         0.010000   
    370. D(Al  3,H  24,H  17,Al  4)      4.5751         0.010000   
    371. D(H  26,H  24,H  17,H  13)   -179.7177         0.010000   
    372. D(H  26,H  24,H  17,Al  4)     -7.9300         0.010000   
    373. D(H  26,H  24,H  17,Al  2)   -128.7407         0.010000   
    374. D(Al  2,H  24,H  17,Al  4)    120.8106         0.010000   
    375. D(H  26,H  24,Al  3,H  23)    171.8513         0.010000   
    376. D(H  26,H  24,Al  3,H  22)     46.5340         0.010000   
    377. D(H  26,H  24,Al  3,Al  6)      7.2479         0.010000   
    378. D(H  26,H  24,Al  3,Al  1)    176.9999         0.010000   
    379. D(Al  2,H  24,Al  3,H  25)      5.0419         0.010000   
    380. D(Al  2,H  24,Al  3,H  26)   -109.0450         0.010000   
    381. D(Al  2,H  24,Al  3,H  23)     62.8063         0.010000   
    382. D(Al  2,H  24,Al  3,H  22)    -62.5110         0.010000   
    383. D(Al  2,H  24,Al  3,Al  6)   -101.7970         0.010000   
    384. D(Al  2,H  24,Al  3,Al  1)     67.9549         0.010000   
    385. D(Al  3,H  24,Al  2,H  13)   -162.3567         0.010000   
    386. D(Al  3,H  24,Al  2,H  25)     -4.4242         0.010000   
    387. D(Al  3,H  24,Al  2,H  17)    130.7640         0.010000   
    388. D(Al  3,H  24,Al  2,H  12)    -54.1701         0.010000   
    389. D(Al  2,H  24,H  17,H  13)    -50.9770         0.010000   
    390. D(H  26,H  24,Al  2,H  14)     -6.3260         0.010000   
    391. D(H  26,H  24,Al  2,H  13)    140.5959         0.010000   
    392. D(H  26,H  24,Al  2,H  25)    -61.4716         0.010000   
    393. D(Al  3,H  24,H  17,Al  2)   -116.2356         0.010000   
    394. D(H  26,H  24,Al  2,H  17)     73.7167         0.010000   
    395. D(H  26,H  24,Al  2,H  12)   -111.2174         0.010000   
    396. D(H  12,H  25,H  24,H  26)    163.3930         0.010000   
    397. D(H  12,H  25,H  24,Al  2)     29.6600         0.010000   
    398. D(Al  2,H  25,H  24,H  17)     47.6786         0.010000   
    399. D(Al  2,H  25,H  24,H  26)    133.7330         0.010000   
    400. D(Al  3,H  25,H  24,H  17)   -127.8526         0.010000   
    401. D(Al  3,H  25,H  24,H  26)    -41.7982         0.010000   
    402. D(H  22,H  25,H  23,Al  1)   -174.7113         0.010000   
    403. D(H  12,H  25,H  23,Al  3)    119.4449         0.010000   
    404. D(H  12,H  25,H  23,Al  1)    -10.9299         0.010000   
    405. D(H  24,H  25,H  23,Al  3)     41.8317         0.010000   
    406. D(H  24,H  25,H  23,Al  1)    -88.5432         0.010000   
    407. D(Al  2,H  25,H  23,Al  3)     66.3248         0.010000   
    408. D(Al  2,H  25,H  23,Al  1)    -64.0501         0.010000   
    409. D(H  12,H  25,H  22,Al  3)    -95.4487         0.010000   
    410. D(H  24,H  25,H  22,H  16)     72.2003         0.010000   
    411. D(H  24,H  25,H  22,Al  6)    -49.8368         0.010000   
    412. D(Al  2,H  25,H  22,H  16)     40.9137         0.010000   
    413. D(Al  2,H  25,H  22,Al  6)    -81.1234         0.010000   
    414. D(Al  2,H  25,H  22,Al  3)    -82.8080         0.010000   
    415. D(Al  3,H  25,H  22,Al  6)      1.6846         0.010000   
    416. D(H  12,H  25,H  14,Al  2)    -44.9148         0.010000   
    417. D(H  24,H  25,H  14,H  12)     78.7840         0.010000   
    418. D(H  24,H  25,H  14,H  16)    -79.0895         0.010000   
    419. D(H  24,H  25,H  14,Al  2)     33.8692         0.010000   
    420. D(Al  2,H  25,H  14,H  12)     44.9148         0.010000   
    421. D(Al  2,H  25,H  14,H  16)   -112.9587         0.010000   
    422. D(Al  3,H  25,H  14,H  16)    -29.4199         0.010000   
    423. D(Al  3,H  25,H  14,Al  2)     83.5388         0.010000   
    424. D(H  23,H  25,H  12,Al  2)   -116.0659         0.010000   
    425. D(H  24,H  25,H  12,H  14)    -86.1282         0.010000   
    426. D(H  24,H  25,H  12,Al  0)    103.2151         0.010000   
    427. D(H  24,H  25,H  12,Al  2)    -28.6454         0.010000   
    428. D(Al  2,H  25,H  12,H  14)    -57.4829         0.010000   
    429. D(Al  3,H  25,H  14,H  12)    128.4536         0.010000   
    430. D(Al  2,H  25,H  12,Al  0)    131.8605         0.010000   
    431. D(Al  3,H  25,H  12,H  14)   -116.2126         0.010000   
    432. D(Al  3,H  25,H  12,Al  0)     73.1307         0.010000   
    433. D(Al  3,H  25,H  12,Al  2)    -58.7298         0.010000   
    434. D(H  12,H  25,Al  3,Al  1)    -69.5348         0.010000   
    435. D(H  24,H  25,Al  3,H  26)     54.4585         0.010000   
    436. D(H  24,H  25,Al  3,H  23)   -130.7782         0.010000   
    437. D(Al  3,H  25,H  22,H  16)    123.7217         0.010000   
    438. D(H  24,H  25,Al  3,H  22)    116.9996         0.010000   
    439. D(H  24,H  25,Al  3,Al  6)    116.5481         0.010000   
    440. D(H  24,H  25,Al  3,Al  1)   -103.3462         0.010000   
    441. D(H  24,H  25,H  22,Al  3)    -51.5213         0.010000   
    442. D(Al  2,H  25,Al  3,H  24)     -3.0357         0.010000   
    443. D(Al  2,H  25,Al  3,H  26)     51.4228         0.010000   
    444. D(Al  2,H  25,Al  3,H  23)   -133.8139         0.010000   
    445. D(Al  3,H  25,H  23,Al  1)   -130.3748         0.010000   
    446. D(Al  2,H  25,Al  3,H  22)    113.9639         0.010000   
    447. D(Al  2,H  25,Al  3,Al  6)    113.5124         0.010000   
    448. D(Al  2,H  25,Al  3,Al  1)   -106.3818         0.010000   
    449. D(H  12,H  25,Al  2,H  17)    179.9582         0.010000   
    450. D(H  12,H  25,Al  2,H  24)   -135.1845         0.010000   
    451. D(H  24,H  25,Al  2,H  14)   -123.5478         0.010000   
    452. D(H  24,H  25,Al  2,H  13)     70.6538         0.010000   
    453. D(Al  3,H  25,H  24,Al  2)   -175.5312         0.010000   
    454. D(H  24,H  25,Al  2,H  17)    -44.8573         0.010000   
    455. D(H  24,H  25,Al  2,H  12)    135.1845         0.010000   
    456. D(Al  3,H  25,Al  2,H  14)   -119.5257         0.010000   
    457. D(Al  2,H  25,H  24,Al  3)    175.5312         0.010000   
    458. D(Al  3,H  25,Al  2,H  13)     74.6758         0.010000   
    459. D(Al  3,H  25,Al  2,H  17)    -40.8353         0.010000   
    460. D(Al  3,H  25,Al  2,H  24)      4.0221         0.010000   
    461. D(H  12,H  25,H  24,Al  3)   -154.8088         0.010000   
    462. D(Al  3,H  25,Al  2,H  12)    139.2065         0.010000   
    463. D(H  12,H  25,H  24,H  17)     77.3386         0.010000   
    464. D(H  16,H  26,H  24,H  17)     66.0601         0.010000   
    465. D(H  16,H  26,H  24,Al  3)   -101.8183         0.010000   
    466. D(H  16,H  26,H  24,Al  2)      3.6559         0.010000   
    467. D(Al  3,H  26,H  24,H  25)     49.2781         0.010000   
    468. D(Al  3,H  26,H  24,Al  2)    105.4742         0.010000   
    469. D(H  24,H  26,H  16,Al  4)    -84.2971         0.010000   
    470. D(H  24,H  26,H  16,H  22)    112.8368         0.010000   
    471. D(Al  3,H  26,H  16,H  14)    -72.1515         0.010000   
    472. D(Al  3,H  26,H  16,Al  4)   -157.1746         0.010000   
    473. D(Al  3,H  26,H  16,H  22)     39.9593         0.010000   
    474. D(H  24,H  26,Al  3,Al  6)   -173.2257         0.010000   
    475. D(H  24,H  26,Al  3,Al  1)     -6.5427         0.010000   
    476. D(H  16,H  26,Al  3,H  25)     38.7097         0.010000   
    477. D(Al  3,H  26,H  24,H  17)    167.8784         0.010000   
    478. D(H  16,H  26,Al  3,H  24)     94.0631         0.010000   
    479. D(H  16,H  26,Al  3,H  23)     -6.3214         0.010000   
    480. D(H  16,H  26,Al  3,H  22)    -36.3176         0.010000   
    481. D(H  16,H  26,Al  3,Al  6)    -79.1626         0.010000   
    482. D(H  16,H  26,Al  3,Al  1)     87.5205         0.010000   
    483. D(Al  5,H  27,H  21,Al  6)    -12.6290         0.010000   
    484. D(H  21,H  27,Al  5,H  19)     30.0911         0.010000   
    485. D(H  21,H  27,Al  5,H  15)   -170.3764         0.010000   
    486. D(H  21,H  27,Al  5,Al  6)      6.8156         0.010000   
    487. D(H  21,H  27,Al  5,Al  4)    -66.9982         0.010000   
    -----------------------------------------------------------------

Number of atoms                         .... 28
Number of degrees of freedom            .... 487


         *************************************************************
         *                GEOMETRY OPTIMIZATION CYCLE   1            *
         *************************************************************
---------------------------------
CARTESIAN COORDINATES (ANGSTROEM)
---------------------------------
  Al     2.347890   -4.513450    0.565970
  Al     1.609270   -4.901660    3.573310
  Al     0.492170   -1.350640    0.849920
  Al    -0.232140   -2.277690    4.368580
  Al    -1.653450    1.136710    2.709480
  Al    -1.322560    1.383810    5.634470
  Al    -2.784640   -1.304290    6.081370
  H      1.958850   -5.844400   -0.828840
  H      4.573340   -4.646670    0.610990
  H      2.624390   -6.142130    4.544390
  H      3.047270   -3.433640    2.959410
  H      0.997530   -5.672580    1.821860
  H      0.820910   -3.034300    0.193330
  H      2.272360   -0.192940   -0.157430
  H     -1.852790   -1.537530    0.403230
  H     -1.067860    2.864810    4.654590
  H     -2.697790   -0.881260    2.704740
  H      0.225560    0.703160    1.452520
  H     -1.819720    3.761060    2.354510
  H     -3.077600    0.695020    5.350510
  H     -4.123300   -1.522640    6.821990
  H     -1.686850   -1.856070    7.184910
  H     -2.254010   -2.097090    4.260330
  H      0.238140   -4.193460    4.558290
  H      0.756950   -1.004530    2.550000
  H     -0.604610   -3.055620    2.268190
  H     -0.861010   -0.564710    4.077370
  H     -0.270940    0.570470    7.459740

----------------------------
CARTESIAN COORDINATES (A.U.)
----------------------------
  NO LB      ZA    FRAG     MASS         X           Y           Z
   0 Al   13.0000    0    26.982    4.436869   -8.529184    1.069528
   1 Al   13.0000    0    26.982    3.041080   -9.262795    6.752577
   2 Al   13.0000    0    26.982    0.930067   -2.552340    1.606116
   3 Al   13.0000    0    26.982   -0.438681   -4.304210    8.255420
   4 Al   13.0000    0    26.982   -3.124568    2.148071    5.120175
   5 Al   13.0000    0    26.982   -2.499276    2.615022   10.647605
   6 Al   13.0000    0    26.982   -5.262207   -2.464751   11.492124
   7 H     1.0000    0     1.008    3.701690  -11.044315   -1.566281
   8 H     1.0000    0     1.008    8.642360   -8.780934    1.154604
   9 H     1.0000    0     1.008    4.959378  -11.606944    8.587653
  10 H     1.0000    0     1.008    5.758506   -6.488639    5.592474
  11 H     1.0000    0     1.008    1.885059  -10.719623    3.442816
  12 H     1.0000    0     1.008    1.551295   -5.733996    0.365341
  13 H     1.0000    0     1.008    4.294138   -0.364604   -0.297500
  14 H     1.0000    0     1.008   -3.501266   -2.905511    0.761994
  15 H     1.0000    0     1.008   -2.017963    5.413706    8.795900
  16 H     1.0000    0     1.008   -5.098084   -1.665340    5.111218
  17 H     1.0000    0     1.008    0.426247    1.328780    2.744865
  18 H     1.0000    0     1.008   -3.438772    7.107373    4.449379
  19 H     1.0000    0     1.008   -5.815821    1.313397   10.110999
  20 H     1.0000    0     1.008   -7.791908   -2.877373   12.891693
  21 H     1.0000    0     1.008   -3.187685   -3.507464   13.577512
  22 H     1.0000    0     1.008   -4.259462   -3.962926    8.050857
  23 H     1.0000    0     1.008    0.450019   -7.924491    8.613920
  24 H     1.0000    0     1.008    1.430428   -1.898287    4.818802
  25 H     1.0000    0     1.008   -1.142547   -5.774285    4.286258
  26 H     1.0000    0     1.008   -1.627073   -1.067147    7.705113
  27 H     1.0000    0     1.008   -0.512002    1.078032   14.096866

--------------------------------
INTERNAL COORDINATES (ANGSTROEM)
--------------------------------
 Al     0   0   0     0.000000000000     0.00000000     0.00000000
 Al     1   0   0     3.120955043588     0.00000000     0.00000000
 Al     1   2   0     3.678001008292    85.01842986     0.00000000
 Al     2   1   3     3.302796348838   105.37565874     1.87821650
 Al     3   1   2     3.774726294780   153.05883268   355.30318696
 Al     5   3   1     2.953999509512   118.63618549    32.50119633
 Al     6   5   3     3.092455197153    90.99831380   285.95372948
 H      1   2   3     1.966793064916   123.53008616   233.93343640
 H      1   2   3     2.229888353999   102.08180164   123.32450205
 H      2   1   3     1.874094661883   116.96447269   198.53763908
 H      2   1   3     2.144714416980    58.69187819   288.73174491
 H      2   1   3     2.009009849777    43.92362780   105.19264063
 H      3   1   2     1.836815562679    25.02523205   242.57434356
 H      3   1   2     2.350340347397    90.47731106   131.05212327
 H      3   1   2     2.394430460423   114.36828403   271.63505624
 H      6   5   3     1.793989382466    62.87847932   121.88993216
 H      5   3   1     2.272195287404    71.03472358   304.42835529
 H      3   1   2     2.156919584060   154.52172265    76.28136602
 H     16   6   5     2.580489397091   137.07159621    24.32711053
 H      6   5   3     1.906628004436    73.69215197   245.72031524
 H      7   6   5     1.545381927712   126.98602616   243.59225677
 H      7   6   5     1.651485568844    94.16981894   135.14355334
 H     17   5   3     2.023621388847   115.54364268    89.88388270
 H      2   1   3     1.830773147416   130.35763266    23.56667418
 H      3   1   2     1.755042047046    99.68607497    29.03861440
 H      4   2   1     2.270582995158    66.20437783    37.17661598
 H      4   2   1     1.847858550160   152.65714510   342.40064720
 H      6   5   3     2.258104770134   145.32758983   355.86238520

---------------------------
INTERNAL COORDINATES (A.U.)
---------------------------
 Al     0   0   0     0.000000000000     0.00000000     0.00000000
 Al     1   0   0     5.897750308662     0.00000000     0.00000000
 Al     1   2   0     6.950414625959    85.01842986     0.00000000
 Al     2   1   3     6.241380575420   105.37565874     1.87821650
 Al     3   1   2     7.133198927645   153.05883268   355.30318696
 Al     5   3   1     5.582250072716   118.63618549    32.50119633
 Al     6   5   3     5.843893404041    90.99831380   285.95372948
 H      1   2   3     3.716700254786   123.53008616   233.93343640
 H      1   2   3     4.213878298278   102.08180164   123.32450205
 H      2   1   3     3.541525660003   116.96447269   198.53763908
 H      2   1   3     4.052922883564    58.69187819   288.73174491
 H      2   1   3     3.796478416428    43.92362780   105.19264063
 H      3   1   2     3.471078371988    25.02523205   242.57434356
 H      3   1   2     4.441499578085    90.47731106   131.05212327
 H      3   1   2     4.524817816918   114.36828403   271.63505624
 H      6   5   3     3.390148620023    62.87847932   121.88993216
 H      5   3   1     4.293826815980    71.03472358   304.42835529
 H      3   1   2     4.075987306764   154.52172265    76.28136602
 H     16   6   5     4.876418251990   137.07159621    24.32711053
 H      6   5   3     3.603004767649    73.69215197   245.72031524
 H      7   6   5     2.920348615688   126.98602616   243.59225677
 H      7   6   5     3.120855439238    94.16981894   135.14355334
 H     17   5   3     3.824090223667   115.54364268    89.88388270
 H      2   1   3     3.459659861954   130.35763266    23.56667418
 H      3   1   2     3.316548822434    99.68607497    29.03861440
 H      4   2   1     4.290780025187    66.20437783    37.17661598
 H      4   2   1     3.491946594027   152.65714510   342.40064720
 H      6   5   3     4.267199597254   145.32758983   355.86238520

---------------------
BASIS SET INFORMATION
---------------------
There are 2 groups of distinct atoms

 Group   1 Type Al  : 10s7p1d contracted to 4s3p1d pattern {5311/511/1}
 Group   2 Type H   : 4s contracted to 2s pattern {31}

Atom   0Al   basis set group =>   1
Atom   1Al   basis set group =>   1
Atom   2Al   basis set group =>   1
Atom   3Al   basis set group =>   1
Atom   4Al   basis set group =>   1
Atom   5Al   basis set group =>   1
Atom   6Al   basis set group =>   1
Atom   7H    basis set group =>   2
Atom   8H    basis set group =>   2
Atom   9H    basis set group =>   2
Atom  10H    basis set group =>   2
Atom  11H    basis set group =>   2
Atom  12H    basis set group =>   2
Atom  13H    basis set group =>   2
Atom  14H    basis set group =>   2
Atom  15H    basis set group =>   2
Atom  16H    basis set group =>   2
Atom  17H    basis set group =>   2
Atom  18H    basis set group =>   2
Atom  19H    basis set group =>   2
Atom  20H    basis set group =>   2
Atom  21H    basis set group =>   2
Atom  22H    basis set group =>   2
Atom  23H    basis set group =>   2
Atom  24H    basis set group =>   2
Atom  25H    basis set group =>   2
Atom  26H    basis set group =>   2
Atom  27H    basis set group =>   2
---------------------------------
AUXILIARY/J BASIS SET INFORMATION
---------------------------------
There are 2 groups of distinct atoms

 Group   1 Type Al  : 14s5p5d2f1g contracted to 8s4p3d1f1g pattern {71111111/2111/311/2/1}
 Group   2 Type H   : 5s2p1d contracted to 3s1p1d pattern {311/2/1}

Atom   0Al   basis set group =>   1
Atom   1Al   basis set group =>   1
Atom   2Al   basis set group =>   1
Atom   3Al   basis set group =>   1
Atom   4Al   basis set group =>   1
Atom   5Al   basis set group =>   1
Atom   6Al   basis set group =>   1
Atom   7H    basis set group =>   2
Atom   8H    basis set group =>   2
Atom   9H    basis set group =>   2
Atom  10H    basis set group =>   2
Atom  11H    basis set group =>   2
Atom  12H    basis set group =>   2
Atom  13H    basis set group =>   2
Atom  14H    basis set group =>   2
Atom  15H    basis set group =>   2
Atom  16H    basis set group =>   2
Atom  17H    basis set group =>   2
Atom  18H    basis set group =>   2
Atom  19H    basis set group =>   2
Atom  20H    basis set group =>   2
Atom  21H    basis set group =>   2
Atom  22H    basis set group =>   2
Atom  23H    basis set group =>   2
Atom  24H    basis set group =>   2
Atom  25H    basis set group =>   2
Atom  26H    basis set group =>   2
Atom  27H    basis set group =>   2


           ************************************************************
           *        Program running with 24 parallel MPI-processes    *
           *              working on a common directory               *
           ************************************************************
------------------------------------------------------------------------------
                             ORCA STARTUP CALCULATIONS
                           -- RI-GTO INTEGRALS CHOSEN --
------------------------------------------------------------------------------
------------------------------------------------------------------------------
                   ___                                                        
                  /   \      - P O W E R E D   B Y -                         
                 /     \                                                     
                 |  |  |   _    _      __       _____    __    __             
                 |  |  |  | |  | |    /  \     |  _  \  |  |  /  |          
                  \  \/   | |  | |   /    \    | | | |  |  | /  /          
                 / \  \   | |__| |  /  /\  \   | |_| |  |  |/  /          
                |  |  |   |  __  | /  /__\  \  |    /   |      \           
                |  |  |   | |  | | |   __   |  |    \   |  |\   \          
                \     /   | |  | | |  |  |  |  | |\  \  |  | \   \       
                 \___/    |_|  |_| |__|  |__|  |_| \__\ |__|  \__/        
                                                                              
                      - O R C A' S   B I G   F R I E N D -                    
                                      &                                       
                       - I N T E G R A L  F E E D E R -                       
                                                                              
 v1 FN, 2020, v2 2021, v3 2022-2024                                           
------------------------------------------------------------------------------


----------------------
SHARK INTEGRAL PACKAGE
----------------------

Number of atoms                             ...     28
Number of basis functions                   ...    168
Number of shells                            ...     98
Maximum angular momentum                    ...      2
Integral batch strategy                     ... SHARK/LIBINT Hybrid
RI-J (if used) integral strategy            ... SPLIT-RIJ (Revised 2003 algorithm where possible)
Printlevel                                  ...      1
Contraction scheme used                     ... SEGMENTED contraction
Prescreening option                         ... SCHWARTZ
   Thresh                                   ... 1.000e-10
   Tcut                                     ... 1.000e-11
   Tpresel                                  ... 1.000e-11 
Coulomb Range Separation                    ... NOT USED
Exchange Range Separation                   ... NOT USED
Multipole approximations                    ... NOT USED
Finite Nucleus Model                        ... NOT USED
CABS basis                                  ... NOT available
Auxiliary Coulomb fitting basis             ... AVAILABLE
   # of basis functions in Aux-J            ...    588
   # of shells in Aux-J                     ...    224
   Maximum angular momentum in Aux-J        ...      4
Auxiliary J/K fitting basis                 ... NOT available
Auxiliary Correlation fitting basis         ... NOT available
Auxiliary 'external' fitting basis          ... NOT available

Checking pre-screening integrals            ... done (  0.0 sec) Dimension = 98
   => SHARK Basis and OBASIS are compatible. Storing Pre-screening
Shell pair information
Shell pair cut-off parameter TPreSel        ...   1.0e-11
Total number of shell pairs                 ...      4851
Shell pairs after pre-screening             ...      4012
Total number of primitive shell pairs       ...     22379
Primitive shell pairs kept                  ...     11262
          la=0 lb=0:   2007 shell pairs
          la=1 lb=0:   1235 shell pairs
          la=1 lb=1:    199 shell pairs
          la=2 lb=0:    416 shell pairs
          la=2 lb=1:    129 shell pairs
          la=2 lb=2:     26 shell pairs

Checking whether 4 symmetric matrices of dimension 168 fit in memory
:Max Core in MB      =   4096.00
 MB in use           =      8.57
 MB left             =   4087.43
 MB needed           =      0.43
 Data fit in memory  = YES
Calculating RI/J V-Matrix + Cholesky decomp.... done (  0.1 sec)
Calculating Nuclear repulsion               ... done (  0.0 sec) ENN=    700.968061085799 Eh

Diagonalization of the overlap matrix:
Smallest eigenvalue                        ... 6.562e-03
Time for diagonalization                   ...    0.030 sec
Threshold for overlap eigenvalues          ... 1.000e-07
Number of eigenvalues below threshold      ... 0
Time for construction of square roots      ...    0.004 sec
Total time needed                          ...    0.036 sec

-------------------
DFT GRID GENERATION
-------------------

General Integration Accuracy     IntAcc      ... 4.388
Radial Grid Type                 RadialGrid  ... OptM3 with GC (2021)
Angular Grid (max. ang.)         AngularGrid ... 4 (Lebedev-302)
Angular grid pruning method      GridPruning ... 4 (adaptive)
Weight generation scheme         WeightScheme... mBecke (2022)
Basis function cutoff            BFCut       ... 1.0000e-10
Integration weight cutoff        WCut        ... 1.0000e-14
Partially contracted basis set               ... off
Rotationally invariant grid construction     ... off
Angular grids for H and He will be reduced by one unit

Total number of grid points                  ...   118876
Total number of batches                      ...     1873
Average number of points per batch           ...       63
Average number of grid points per atom       ...     4246
Grids setup in   1.8 sec
Initializing property integral containers    ... done (  0.0 sec)

SHARK setup successfully completed in   2.3 seconds

Maximum memory used throughout the entire STARTUP-calculation: 28.1 MB


           ************************************************************
           *        Program running with 24 parallel MPI-processes    *
           *              working on a common directory               *
           ************************************************************
-------------------------------------------------------------------------------
                                 ORCA GUESS
                   Start orbitals & Density for SCF / CASSCF
-------------------------------------------------------------------------------

------------
SCF SETTINGS
------------
Hamiltonian:
 Density Functional     Method          .... DFT(GTOs)
 Exchange Functional    Exchange        .... PBE
   PBE kappa parameter   XKappa         ....  0.804000
   PBE mue parameter    XMuePBE         ....  0.219520
 Correlation Functional Correlation     .... PBE
   PBE beta parameter  CBetaPBE         ....  0.066725
 LDA part of GGA corr.  LDAOpt          .... PW91-LDA
 Gradients option       PostSCFGGA      .... off
   NL short-range parameter             ....  6.400000
 RI-approximation to the Coulomb term is turned on
   Number of AuxJ basis functions       .... 588


General Settings:
 Integral files         IntName         .... run
 Hartree-Fock type      HFTyp           .... RHF
 Total Charge           Charge          ....    0
 Multiplicity           Mult            ....    1
 Number of Electrons    NEL             ....  112
 Basis Dimension        Dim             ....  168
 Nuclear Repulsion      ENuc            ....    700.9680610858 Eh

Convergence Acceleration:
 AO-DIIS                CNVDIIS         .... on
   Start iteration      DIISMaxIt       ....    12
   Startup error        DIISStart       ....  0.200000
   # of expansion vecs  DIISMaxEq       ....     5
   Bias factor          DIISBfac        ....   1.050
   Max. coefficient     DIISMaxC        ....  10.000
 MO-DIIS                CNVKDIIS        .... off
 Trust-Rad. Augm. Hess. CNVTRAH         .... auto
   Auto Start mean grad. ratio tolernc. ....  1.125000
   Auto Start start iteration           ....    50
   Auto Start num. interpolation iter.  ....    10
   Max. Number of Micro iterations      ....    24
   Max. Number of Macro iterations      .... Maxiter - #DIIS iter
   Number of Davidson start vectors     ....     2
   Converg. threshold    (grad. norm)   ....   5.000e-05
   Grad. Scal. Fac. for Micro threshold ....   0.100
   Minimum threshold for Micro iter.    ....   1.000e-02
   NR start threshold (gradient norm)   ....   1.000e-04
   Initial trust radius                 ....   0.400
   Minimum AH scaling param. (alpha)    ....   1.000
   Maximum AH scaling param. (alpha)    .... 1000.000
   Quad. conv. algorithm                .... NR
   White noise on init. David. guess    .... on
   Maximum white noise                  ....   0.010
   Pseudo random numbers                .... off
   Inactive MOs                         .... canonical
   Orbital update algorithm             .... Taylor
   Preconditioner                       .... Diag
   Full preconditioner red. dimension   ....   250
 SOSCF                 CNVSOSCF           .... on
   Start iteration     SOSCFMaxIt         ....   150
   Startup grad/error  SOSCFStart         ....  0.003300
   Hessian update      SOSCFHessUp        .... L-BFGS
   Autom. constraints  SOSCFAutoConstrain .... off
 Level Shifting         CNVShift        .... on
   Level shift para.    LevelShift      ....    0.2500
   Turn off err/grad.   ShiftErr        ....    0.0010
 Zerner damping         CNVZerner       .... off
 Static damping         CNVDamp         .... on
   Fraction old density DampFac         ....    0.7000
   Max. Damping (<1)    DampMax         ....    0.9800
   Min. Damping (>=0)   DampMin         ....    0.0000
   Turn off err/grad.   DampErr         ....    0.1000

SCF Procedure:
 Maximum # iterations   MaxIter         ....   125
 SCF integral mode      SCFMode         .... Direct
   Integral package                     .... SHARK and LIBINT hybrid scheme
 Reset frequency        DirectResetFreq ....    20
 Integral Threshold     Thresh          ....  1.000e-10 Eh
 Primitive CutOff       TCut            ....  1.000e-11 Eh

Convergence Tolerance:
 Convergence Check Mode ConvCheckMode   .... Total+1el-Energy
 Convergence forced     ConvForced      .... 0
 Energy Change          TolE            ....  1.000e-06 Eh
 1-El. energy change                    ....  1.000e-03 Eh
 Orbital Gradient       TolG            ....  5.000e-05
 Orbital Rotation angle TolX            ....  5.000e-05
 DIIS Error             TolErr          ....  1.000e-05

------------------------------
INITIAL GUESS: MODEL POTENTIAL
------------------------------
Loading Hartree-Fock densities                     ... done
Calculating cut-offs                               ... done
Initializing the effective Hamiltonian             ... done
Setting up the integral package (SHARK)            ... done
Starting the Coulomb interaction                   ... done (   0.1 sec)
Making the grid                                    ... done (   0.3 sec)
Mapping shells                                     ... done
Starting the XC term evaluation                    ... done (   0.0 sec)
  promolecular density results
     # of electrons  =    111.988741477
     EX              =   -131.819120896
     EC              =     -3.800722843
     EX+EC           =   -135.619843739
Transforming the Hamiltonian                       ... done (   0.0 sec)
Diagonalizing the Hamiltonian                      ... done (   0.0 sec)
Back transforming the eigenvectors                 ... done (   0.0 sec)
Now organizing SCF variables                       ... done
                      ------------------
                      INITIAL GUESS DONE (   0.4 sec)
                      ------------------
             **** ENERGY FILE WAS UPDATED (run.en.tmp) ****
Finished Guess after   1.0 sec
Maximum memory used throughout the entire GUESS-calculation: 11.1 MB


           ************************************************************
           *        Program running with 24 parallel MPI-processes    *
           *              working on a common directory               *
           ************************************************************

-------------------------------------------------------------------------------------------
                                      ORCA LEAN-SCF
                              memory conserving SCF solver
-------------------------------------------------------------------------------------------

----------------------------------------D-I-I-S--------------------------------------------
Iteration    Energy (Eh)           Delta-E    RMSDP     MaxDP     DIISErr   Damp  Time(sec)
-------------------------------------------------------------------------------------------
               ***  Starting incremental Fock matrix formation  ***
    1    -1706.9395336128964118     0.00e+00  2.17e-02  1.65e-01  8.11e-02  0.700   0.4
Warning: op=0 Small HOMO/LUMO gap (  -0.109) - skipping pre-diagonalization
         Will do a full diagonalization
    2    -1707.0613386221380097    -1.22e-01  2.50e-02  1.91e-01  4.67e-02  0.700   0.3
                               ***Turning on AO-DIIS***
    3    -1707.1117222624448004    -5.04e-02  1.18e-02  6.32e-02  2.21e-02  0.700   0.3
    4    -1707.1209166059475137    -9.19e-03  2.05e-02  8.54e-02  2.27e-02  0.000   0.3
    5    -1707.1455660708634241    -2.46e-02  7.59e-03  3.61e-02  3.23e-02  0.000   0.3
    6    -1707.1688399607282918    -2.33e-02  4.89e-03  2.82e-02  1.91e-02  0.000   0.3
    7    -1707.1780270400781774    -9.19e-03  3.47e-03  1.98e-02  1.23e-02  0.000   0.3
    8    -1707.1820839396964402    -4.06e-03  2.23e-03  1.12e-02  6.54e-03  0.000   0.3
    9    -1707.1835601521561330    -1.48e-03  1.47e-03  5.69e-03  4.37e-03  0.000   0.3
                              *** Initializing SOSCF ***
---------------------------------------S-O-S-C-F--------------------------------------
Iteration    Energy (Eh)           Delta-E    RMSDP     MaxDP     MaxGrad    Time(sec)
--------------------------------------------------------------------------------------
   10    -1707.1841253862908161    -5.65e-04  1.07e-03  3.69e-03  2.35e-03     0.3
               *** Restarting incremental Fock matrix formation ***
   11    -1707.1843761754184925    -2.51e-04  2.87e-03  1.84e-02  1.70e-03     0.3
   12    -1707.1844520152467339    -7.58e-05  1.96e-03  9.66e-03  2.61e-03     0.3
   13    -1707.1847961630555801    -3.44e-04  3.56e-03  1.28e-02  1.74e-03     0.3
   14    -1707.1850026413726482    -2.06e-04  4.35e-03  1.84e-02  1.05e-03     0.3
   15    -1707.1852082127916219    -2.06e-04  3.20e-03  1.32e-02  1.05e-03     0.3
   16    -1707.1853679839618962    -1.60e-04  2.02e-03  6.87e-03  6.89e-04     0.3
   17    -1707.1854146509390375    -4.67e-05  4.82e-04  1.83e-03  4.12e-04     0.3
   18    -1707.1854318895957476    -1.72e-05  4.15e-04  1.28e-03  1.79e-04     0.3
   19    -1707.1854367115183777    -4.82e-06  3.14e-04  1.08e-03  1.53e-04     0.3
   20    -1707.1854394756528563    -2.76e-06  2.55e-04  8.98e-04  1.11e-04     0.3
   21    -1707.1854406512120477    -1.18e-06  1.05e-04  3.77e-04  6.68e-05     0.3
   22    -1707.1854411842150512    -5.33e-07  1.23e-04  4.22e-04  3.61e-05     0.3
                 **** Energy Check signals convergence ****

               *****************************************************
               *                     SUCCESS                       *
               *           SCF CONVERGED AFTER  22 CYCLES          *
               *****************************************************

             **** ENERGY FILE WAS UPDATED (run.en.tmp) ****

----------------
TOTAL SCF ENERGY
----------------

Total Energy       :      -1707.18544142231667 Eh          -46454.87758 eV

Components:
Nuclear Repulsion  :        700.96806108579892 Eh           19074.31066 eV
Electronic Energy  :      -2408.15350250811571 Eh          -65529.18824 eV
One Electron Energy:      -3763.95823238777120 Eh         -102422.51056 eV
Two Electron Energy:       1355.80472987965527 Eh           36893.32232 eV

Virial components:
Potential Energy   :      -3405.40476157626654 Eh          -92665.77460 eV
Kinetic Energy     :       1698.21932015395009 Eh           46210.89702 eV
Virial Ratio       :          2.00527971926945

DFT components:
N(Alpha)           :       55.999973775172 electrons
N(Beta)            :       55.999973775172 electrons
N(Total)           :      111.999947550345 electrons
E(X)               :     -131.931375599551 Eh       
E(C)               :       -3.789084827852 Eh       
E(XC)              :     -135.720460427403 Eh       

---------------
SCF CONVERGENCE
---------------

  Last Energy change         ...    5.3300e-07  Tolerance :   1.0000e-06
  Last MAX-Density change    ...    4.2168e-04  Tolerance :   1.0000e-05
  Last RMS-Density change    ...    1.2302e-04  Tolerance :   1.0000e-06
  Last DIIS Error            ...    2.3538e-03  Tolerance :   1.0000e-05
  Last Orbital Gradient      ...    3.6066e-05  Tolerance :   5.0000e-05
  Last Orbital Rotation      ...    1.1526e-03  Tolerance :   5.0000e-05


----------------
ORBITAL ENERGIES
----------------

  NO   OCC          E(Eh)            E(eV) 
   0   2.0000     -55.489960     -1509.9586 
   1   2.0000     -55.487070     -1509.8799 
   2   2.0000     -55.477234     -1509.6123 
   3   2.0000     -55.461380     -1509.1809 
   4   2.0000     -55.458183     -1509.0939 
   5   2.0000     -55.448768     -1508.8377 
   6   2.0000     -55.446931     -1508.7877 
   7   2.0000      -4.034407      -109.7818 
   8   2.0000      -4.032477      -109.7293 
   9   2.0000      -4.020230      -109.3960 
  10   2.0000      -4.004325      -108.9632 
  11   2.0000      -4.003496      -108.9407 
  12   2.0000      -4.001284      -108.8805 
  13   2.0000      -3.988416      -108.5303 
  14   2.0000      -2.644440       -71.9589 
  15   2.0000      -2.640327       -71.8470 
  16   2.0000      -2.639630       -71.8280 
  17   2.0000      -2.638450       -71.7959 
  18   2.0000      -2.636563       -71.7445 
  19   2.0000      -2.636497       -71.7427 
  20   2.0000      -2.627951       -71.5102 
  21   2.0000      -2.626293       -71.4651 
  22   2.0000      -2.624692       -71.4215 
  23   2.0000      -2.612277       -71.0837 
  24   2.0000      -2.611094       -71.0515 
  25   2.0000      -2.610871       -71.0454 
  26   2.0000      -2.610840       -71.0446 
  27   2.0000      -2.608821       -70.9896 
  28   2.0000      -2.608224       -70.9734 
  29   2.0000      -2.607038       -70.9411 
  30   2.0000      -2.606001       -70.9129 
  31   2.0000      -2.602810       -70.8261 
  32   2.0000      -2.595883       -70.6376 
  33   2.0000      -2.594923       -70.6114 
  34   2.0000      -2.592454       -70.5442 
  35   2.0000      -0.485594       -13.2137 
  36   2.0000      -0.445941       -12.1347 
  37   2.0000      -0.415571       -11.3083 
  38   2.0000      -0.412621       -11.2280 
  39   2.0000      -0.397029       -10.8037 
  40   2.0000      -0.368611       -10.0304 
  41   2.0000      -0.347958        -9.4684 
  42   2.0000      -0.345204        -9.3935 
  43   2.0000      -0.326529        -8.8853 
  44   2.0000      -0.307641        -8.3713 
  45   2.0000      -0.304122        -8.2756 
  46   2.0000      -0.297657        -8.0997 
  47   2.0000      -0.285884        -7.7793 
  48   2.0000      -0.278900        -7.5893 
  49   2.0000      -0.275302        -7.4914 
  50   2.0000      -0.261142        -7.1060 
  51   2.0000      -0.247072        -6.7232 
[...]
  9:     68.35   0.000105    0.53  0.000478  ( 0.009081 -0.012089 -0.015789)
 10:     85.11   0.000705    3.56  0.002586  ( 0.011503 -0.045373 -0.019876)
 11:    101.81   0.000533    2.70  0.001635  (-0.016632 -0.018691  0.031767)
 12:    113.92   0.001917    9.69  0.005251  (-0.022189  0.016875  0.066884)
 13:    134.69   0.000206    1.04  0.000478  ( 0.020101 -0.006997 -0.005004)
 14:    152.52   0.000134    0.68  0.000273  ( 0.010745 -0.012114  0.003341)
 15:    163.10   0.000111    0.56  0.000211  (-0.001569  0.007954 -0.012073)
 16:    173.47   0.000216    1.09  0.000388  (-0.019290 -0.003691  0.001503)
 17:    199.40   0.001050    5.31  0.001643  ( 0.040018 -0.006129 -0.001979)
 18:    230.31   0.002307   11.66  0.003127  (-0.015825  0.038546  0.037286)
 19:    250.34   0.001085    5.48  0.001352  ( 0.011163 -0.027448 -0.021774)
 20:    263.35   0.000599    3.03  0.000709  (-0.002410  0.013527 -0.022818)
 21:    283.68   0.001425    7.20  0.001567  ( 0.012332 -0.035034 -0.013707)
 22:    295.78   0.003506   17.72  0.003700  (-0.036540  0.048622  0.000487)
 23:    302.36   0.000621    3.14  0.000640  (-0.020095 -0.011907  0.009739)
 24:    328.17   0.000899    4.54  0.000855  ( 0.001273  0.027889 -0.008669)
 25:    348.50   0.001765    8.92  0.001580  (-0.038669  0.007757  0.004963)
 26:    354.49   0.001365    6.90  0.001201  (-0.025585  0.014836  0.018075)
 27:    375.52   0.001096    5.54  0.000910  ( 0.017676 -0.023220 -0.007671)
 28:    388.46   0.003938   19.90  0.003163  (-0.021066  0.051355  0.009064)
 29:    417.71   0.003945   19.93  0.002947  (-0.021282 -0.010023  0.048925)
 30:    432.61   0.010411   52.61  0.007510  ( 0.034465 -0.035831 -0.070982)
 31:    452.00   0.008352   42.21  0.005766  ( 0.045260 -0.033286 -0.051084)
 32:    476.22   0.001802    9.11  0.001181  (-0.005113  0.005405 -0.033546)
 33:    486.70   0.001823    9.21  0.001169  ( 0.004385 -0.029295  0.017072)
 34:    491.86   0.006061   30.63  0.003845  (-0.018994  0.041303 -0.042173)
 35:    518.39   0.032053  161.98  0.019295  ( 0.039776 -0.108985 -0.076390)
 36:    540.23   0.001517    7.67  0.000877  ( 0.007720  0.026983 -0.009427)
 37:    556.18   0.009462   47.82  0.005309  (-0.006141  0.068562 -0.023890)
 38:    595.37   0.035274  178.26  0.018489  (-0.121379  0.024389  0.056224)
 39:    637.78   0.053345  269.58  0.026101  (-0.095588  0.102522  0.080332)
 40:    656.22   0.264599  1337.18  0.125829  (-0.165684  0.085399  0.301803)
 41:    666.13   0.028011  141.56  0.013122  (-0.070194 -0.044125 -0.079046)
 42:    682.09   0.186636  943.18  0.085388  (-0.094057  0.257869 -0.100226)
 43:    685.05   0.014483   73.19  0.006597  (-0.059876  0.005336  0.054624)
 44:    699.83   0.006956   35.15  0.003102  ( 0.016188  0.052933  0.006151)
 45:    717.80   0.096473  487.53  0.041941  ( 0.074146 -0.104954 -0.159463)
 46:    730.75   0.082039  414.59  0.035034  (-0.023989  0.174318 -0.063811)
 47:    737.17   0.004022   20.32  0.001703  ( 0.013432  0.012251  0.037041)
 48:    740.03   0.034850  176.12  0.014696  ( 0.017754 -0.069209 -0.097932)
 49:    753.94   0.043370  219.17  0.017951  (-0.033543 -0.085317 -0.097711)
 50:    777.97   0.021118  106.72  0.008471  (-0.011035  0.039352 -0.082467)
 51:    801.36   0.059418  300.28  0.023138  ( 0.056150  0.131984 -0.050656)
 52:    844.84   0.027855  140.77  0.010289  ( 0.073471 -0.067563 -0.018056)
 53:    860.52   0.024713  124.89  0.008962  (-0.060987 -0.041952  0.059015)
 54:    903.68   0.010010   50.59  0.003457  ( 0.054765  0.000251  0.021392)
 55:    907.67   0.028749  145.29  0.009884  ( 0.027073  0.010809  0.095049)
 56:    957.42   0.031944  161.43  0.010412  ( 0.100030  0.006569  0.019046)
 57:    978.16   0.004317   21.82  0.001377  (-0.035920  0.000702  0.009306)
 58:   1014.33   0.046046  232.70  0.014166  (-0.086940 -0.007440  0.080946)
 59:   1032.14   0.034924  176.49  0.010559  (-0.054580 -0.046213 -0.073786)
 60:   1058.78   0.009555   48.29  0.002816  ( 0.022234  0.040828 -0.025592)
 61:   1127.86   0.038480  194.46  0.010647  ( 0.062660 -0.080950 -0.012950)
 62:   1142.68   0.043591  220.29  0.011905  ( 0.034194 -0.067779 -0.078367)
 63:   1552.60   0.026310  132.96  0.005288  (-0.065524  0.031539  0.000197)
 64:   1589.00   0.136901  691.84  0.026886  (-0.111528  0.083981  0.085992)
 65:   1612.43   0.030267  152.96  0.005858  ( 0.011819 -0.067644 -0.033799)
 66:   1659.49   0.012756   64.46  0.002399  ( 0.045817  0.011937  0.012534)
 67:   1684.17   0.206606  1044.10  0.038282  (-0.081436 -0.106023  0.142863)
 68:   1692.24   0.224906  1136.58  0.041475  (-0.112213  0.138172  0.098952)
 69:   1713.17   0.080032  404.45  0.014578  ( 0.052587 -0.077909 -0.075784)
 70:   1747.50   0.067387  340.55  0.012034  (-0.057183  0.063796 -0.068512)
 71:   1779.08   0.038430  194.21  0.006741  (-0.074309  0.021162 -0.027771)
 72:   1804.63   0.231091  1167.84  0.039961  (-0.028154  0.134431 -0.145248)
 73:   1823.56   0.173122  874.89  0.029626  (-0.001539 -0.131880 -0.110596)
 74:   1856.45   0.029736  150.27  0.004998  (-0.029639 -0.044082  0.046656)
 75:   1870.04   0.024199  122.29  0.004038  ( 0.036672  0.045284 -0.025352)
 76:   1873.89   0.008190   41.39  0.001364  ( 0.034530  0.002804 -0.012795)
 77:   1879.41   0.022199  112.18  0.003686  ( 0.020462 -0.002757  0.057094)
 78:   1888.61   0.055806  282.02  0.009221  ( 0.058432  0.074053  0.017972)
 79:   1896.38   0.010679   53.97  0.001757  ( 0.036939 -0.007119 -0.018497)
 80:   1900.78   0.007184   36.30  0.001179  (-0.029165  0.015543  0.009340)
 81:   1904.51   0.045713  231.01  0.007490  (-0.058662 -0.013014 -0.062287)
 82:   1911.46   0.021495  108.63  0.003509  (-0.047135  0.034804 -0.008726)
 83:   1919.32   0.019905  100.59  0.003236  (-0.043264 -0.012729  0.034677)

* The epsilon (eps) is given for a Dirac delta lineshape.
** The dipole moment derivative (T) already includes vibrational overlap.

The first frequency considered to be a vibration is 6
The total number of vibrations considered is 78


--------------------------
THERMOCHEMISTRY AT 298.15K
--------------------------

Temperature         ...   298.15 K
Pressure            ...     1.00 atm
Total Mass          ...   210.04 AMU
Quasi RRHO          ...     True
Cut-Off Frequency   ...     1.00 cm^-1

Throughout the following assumptions are being made:
  (1) The electronic state is orbitally nondegenerate
  (2) There are no thermally accessible electronically excited states
  (3) Hindered rotations indicated by low frequency modes are not
      treated as such but are treated as vibrations and this may
      cause some error
  (4) All equations used are the standard statistical mechanics
      equations for an ideal gas
  (5) All vibrations are strictly harmonic

freq.      21.32  E(vib)   ...       0.56 
freq.      34.68  E(vib)   ...       0.54 
freq.      63.74  E(vib)   ...       0.51 
freq.      68.35  E(vib)   ...       0.50 
freq.      85.11  E(vib)   ...       0.48 
freq.     101.81  E(vib)   ...       0.46 
freq.     113.92  E(vib)   ...       0.44 
freq.     134.69  E(vib)   ...       0.42 
freq.     152.52  E(vib)   ...       0.40 
freq.     163.10  E(vib)   ...       0.39 
freq.     173.47  E(vib)   ...       0.38 
freq.     199.40  E(vib)   ...       0.35 
freq.     230.31  E(vib)   ...       0.32 
freq.     250.34  E(vib)   ...       0.30 
freq.     263.35  E(vib)   ...       0.29 
freq.     283.68  E(vib)   ...       0.28 
freq.     295.78  E(vib)   ...       0.27 
freq.     302.36  E(vib)   ...       0.26 
freq.     328.17  E(vib)   ...       0.24 
freq.     348.50  E(vib)   ...       0.23 
freq.     354.49  E(vib)   ...       0.22 
freq.     375.52  E(vib)   ...       0.21 
freq.     388.46  E(vib)   ...       0.20 
freq.     417.71  E(vib)   ...       0.18 
freq.     432.61  E(vib)   ...       0.18 
freq.     452.00  E(vib)   ...       0.16 
freq.     476.22  E(vib)   ...       0.15 
freq.     486.70  E(vib)   ...       0.15 
freq.     491.86  E(vib)   ...       0.14 
freq.     518.39  E(vib)   ...       0.13 
freq.     540.23  E(vib)   ...       0.12 
freq.     556.18  E(vib)   ...       0.12 
freq.     595.37  E(vib)   ...       0.10 
freq.     637.78  E(vib)   ...       0.09 
freq.     656.22  E(vib)   ...       0.08 
freq.     666.13  E(vib)   ...       0.08 
freq.     682.09  E(vib)   ...       0.08 
freq.     685.05  E(vib)   ...       0.07 
freq.     699.83  E(vib)   ...       0.07 
freq.     717.80  E(vib)   ...       0.07 
freq.     730.75  E(vib)   ...       0.06 
freq.     737.17  E(vib)   ...       0.06 
freq.     740.03  E(vib)   ...       0.06 
freq.     753.94  E(vib)   ...       0.06 
freq.     777.97  E(vib)   ...       0.05 
freq.     801.36  E(vib)   ...       0.05 
freq.     844.84  E(vib)   ...       0.04 
freq.     860.52  E(vib)   ...       0.04 
freq.     903.68  E(vib)   ...       0.03 
freq.     907.67  E(vib)   ...       0.03 
freq.     957.42  E(vib)   ...       0.03 
freq.     978.16  E(vib)   ...       0.03 
freq.    1014.33  E(vib)   ...       0.02 
freq.    1032.14  E(vib)   ...       0.02 
freq.    1058.78  E(vib)   ...       0.02 
freq.    1127.86  E(vib)   ...       0.01 
freq.    1142.68  E(vib)   ...       0.01 
freq.    1552.60  E(vib)   ...       0.00 
freq.    1589.00  E(vib)   ...       0.00 
freq.    1612.43  E(vib)   ...       0.00 
freq.    1659.49  E(vib)   ...       0.00 
freq.    1684.17  E(vib)   ...       0.00 
freq.    1692.24  E(vib)   ...       0.00 
freq.    1713.17  E(vib)   ...       0.00 
freq.    1747.50  E(vib)   ...       0.00 
freq.    1779.08  E(vib)   ...       0.00 
freq.    1804.63  E(vib)   ...       0.00 
freq.    1823.56  E(vib)   ...       0.00 
freq.    1856.45  E(vib)   ...       0.00 
freq.    1870.04  E(vib)   ...       0.00 
freq.    1873.89  E(vib)   ...       0.00 
freq.    1879.41  E(vib)   ...       0.00 
freq.    1888.61  E(vib)   ...       0.00 
freq.    1896.38  E(vib)   ...       0.00 
freq.    1900.78  E(vib)   ...       0.00 
freq.    1904.51  E(vib)   ...       0.00 
freq.    1911.46  E(vib)   ...       0.00 
freq.    1919.32  E(vib)   ...       0.00 

------------
INNER ENERGY
------------

The inner energy is: U= E(el) + E(ZPE) + E(vib) + E(rot) + E(trans)
    E(el)   - is the total energy from the electronic structure calculation
              = E(kin-el) + E(nuc-el) + E(el-el) + E(nuc-nuc)
    E(ZPE)  - the the zero temperature vibrational energy from the frequency calculation
    E(vib)  - the the finite temperature correction to E(ZPE) due to population
              of excited vibrational states
    E(rot)  - is the rotational thermal energy
    E(trans)- is the translational thermal energy

Summary of contributions to the inner energy U:
Electronic energy                ...  -1707.89861730 Eh
Zero point energy                ...      0.15348758 Eh      96.31 kcal/mol
Thermal vibrational correction   ...      0.01737635 Eh      10.90 kcal/mol
Thermal rotational correction    ...      0.00141627 Eh       0.89 kcal/mol
Thermal translational correction ...      0.00141627 Eh       0.89 kcal/mol
-----------------------------------------------------------------------
Total thermal energy                  -1707.72492083 Eh


Summary of corrections to the electronic energy:
(perhaps to be used in another calculation)
Total thermal correction                  0.02020889 Eh      12.68 kcal/mol
Non-thermal (ZPE) correction              0.15348758 Eh      96.31 kcal/mol
-----------------------------------------------------------------------
Total correction                          0.17369647 Eh     109.00 kcal/mol


--------
ENTHALPY
--------

The enthalpy is H = U + kB*T
                kB is Boltzmann's constant
Total thermal energy              ...  -1707.72492083 Eh 
Thermal Enthalpy correction       ...      0.00094421 Eh       0.59 kcal/mol
-----------------------------------------------------------------------
Total Enthalpy                    ...  -1707.72397662 Eh


Note: Only C1 symmetry has been detected, increase convergence thresholds 
      if your molecule has a higher symmetry. Symmetry factor of 1.0 is   
      used for the rotational entropy correction. 
 

Note: Rotational entropy computed according to Herzberg 
Infrared and Raman Spectra, Chapter V,1, Van Nostrand Reinhold, 1945 
Point Group:  C1, Symmetry Number:   1  
Rotational constants in cm-1:     0.021775     0.012420     0.009084 

Vibrational entropy computed according to the QRRHO of S. Grimme
Chem.Eur.J. 2012 18 9955 using a reference frequency of 100.0 cm-1


-------
ENTROPY
-------

The entropy contributions are T*S = T*(S(el)+S(vib)+S(rot)+S(trans))
     S(el)   - electronic entropy
     S(vib)  - vibrational entropy
     S(rot)  - rotational entropy
     S(trans)- translational entropy
The entropies will be listed as multiplied by the temperature to get
units of energy

Electronic entropy                ...      0.00000000 Eh      0.00 kcal/mol
Vibrational entropy               ...      0.03052479 Eh     19.15 kcal/mol
Rotational entropy                ...      0.01560868 Eh      9.79 kcal/mol
Translational entropy             ...      0.01992231 Eh     12.50 kcal/mol
-----------------------------------------------------------------------
Final entropy term                ...      0.06605577 Eh     41.45 kcal/mol

In case the symmetry of your molecule has not been determined correctly
or in case you have a reason to use a different symmetry number we print 
out the resulting rotational entropy values for sn=1,12:

 non-linear molecules -----------------------------------
|  sn= 1 | S(rot)=       0.01560868 Eh      9.79 kcal/mol|
|  sn= 2 | S(rot)=       0.01495422 Eh      9.38 kcal/mol|
|  sn= 3 | S(rot)=       0.01457139 Eh      9.14 kcal/mol|
|  sn= 4 | S(rot)=       0.01429976 Eh      8.97 kcal/mol|
|  sn= 5 | S(rot)=       0.01408908 Eh      8.84 kcal/mol|
|  sn= 6 | S(rot)=       0.01391693 Eh      8.73 kcal/mol|
|  sn= 7 | S(rot)=       0.01377138 Eh      8.64 kcal/mol|
|  sn= 8 | S(rot)=       0.01364531 Eh      8.56 kcal/mol|
|  sn= 9 | S(rot)=       0.01353410 Eh      8.49 kcal/mol|
|  sn=10 | S(rot)=       0.01343462 Eh      8.43 kcal/mol|
|  sn=11 | S(rot)=       0.01334463 Eh      8.37 kcal/mol|
|  sn=12 | S(rot)=       0.01326247 Eh      8.32 kcal/mol|
 linear molecules ---------------------------------------
|  Dinfh | S(rot)=       0.00976466 Eh      6.13 kcal/mol|
|  Cinfv | S(rot)=       0.01041912 Eh      6.54 kcal/mol|
 --------------------------------------------------------


-------------------
GIBBS FREE ENERGY
-------------------

The Gibbs free energy is G = H - T*S

Total enthalpy                    ...  -1707.72397662 Eh 
Total entropy correction          ...     -0.06605577 Eh    -41.45 kcal/mol
-----------------------------------------------------------------------
Final Gibbs free energy         ...  -1707.79003239 Eh

For completeness - the Gibbs free energy minus the electronic energy
G-E(el)                           ...      0.10858491 Eh     68.14 kcal/mol


Maximum memory used throughout the entire PROP-calculation: 32.2 MB

--------------------------------
SUGGESTED CITATIONS FOR THIS RUN
--------------------------------

Below you find a list of papers that are relevant to this ORCA run
We neither can nor want to force you to cite these papers, but we appreciate if you do
You receive ORCA, which is the product of decades of hard work by many enthusiastic individuals, for free
The only thing we kindly ask in return is that you cite our papers,
We deeply appreciate it, if you show your appreciation for ORCA by not just citing the generic ORCA reference.

Please note that relegating all ORCA citations to the supporting information does *not* help us.
SI sections are not indexed - citations you put there will not count into any citation statistics
But we need these citations in order to attract the funding resources that allow us to do what we are doing

Therefore, if you are a happy ORCA user, please consider citing a few of the papers listed below in the main body of your paper

In addition to the list printed below, the program has created the file run.bibtex that contains the list in bibtex format
You can import this file easily into all common literature databanks and citation aid programs


List of essential papers. We consider these as the minimum necessary citations

  1. Neese, F.
     Software update: the ORCA program system, version 6.0
     WIRES Comput. Molec. Sci. 2025 15(1), e70019
     doi.org/10.1002/wcms.7019

List of papers to cite with high priority. The work reported in these papers was absolutely
necessary for this run to complete.
Our perspective: the developers of density functionals and basis sets usually get cited in chemistry papers
Good! But without the algorithms to do something with them, the functionals or basis sets would not do anything.
Hence, in our opinion, the algorithm design and method developments papers are equally worthy of getting cited

  1. Neese, F.
     An improvement of the resolution of the identity approximation for the formation of the Coulomb matrix
     J. Comp. Chem. 2003 24(14), 1740-1747
     doi.org/10.1002/jcc.10318
  2. Grimme, S.; Antony, J.; Ehrlich, S.; Krieg, H.
     A consistent and accurate ab initio parametrization of density functional dispersion correction (DFT-D) for the 94 elements H-Pu
     J. Chem. Phys. 2010 132 , 154104
     doi.org/10.1063/1.3382344
  3. Grimme, S.; Ehrlich, S.; Goerigk, L.
     Effect of the damping function in dispersion corrected density functional theory
     J. Comput. Chem. 2011 32(7), 1456-1465
     doi.org/10.1002/jcc.21759
  4. Bykov, D.; Petrenko, T.; Izsak, R.; Kossmann, S.; Becker, U.; Valeev, E.; Neese, F.
     Efficient implementation of the analytic second derivatives of Hartree-Fock and hybrid DFT energies: a detailed analysis of different approximations
     Molec. Phys. 2015 113 , 1961-1977
     doi.org/10.1080/00268976.2015.1025114
  5. Neese, F.
     The SHARK Integral Generation and Digestion System
     J. Comp. Chem. 2022 44(3), 381
     doi.org/10.1002/jcc.26942

List of suggested additional citations. These are papers that are important in the 'surrounding' of 
of this run, or papers that preceded the highly important papers. If you like your results we are grateful for a citation.

  1. Neese, F.
     The ORCA program system
     WIRES Comput. Molec. Sci. 2012 2(1), 73-78
     doi.org/10.1002/wcms.81
  2. Neese, F.
     Software update: the ORCA program system, version 4.0
     WIRES Comput. Molec. Sci. 2018 8(1), 1-6
     doi.org/10.1002/wcms.1327
  3. Neese, F.; Wennmohs, F.; Becker, U.; Riplinger, C.
     The ORCA quantum chemistry program package
     J. Chem. Phys. 2020 152(22), 224108
     doi.org/10.1063/5.0004608
  4. Neese, F.
     Software update: The ORCA program system—Version 5.0
     WIRES Comput. Molec. Sci. 2022 12(1), e1606
     doi.org/10.1002/wcms.1606

List of optional additional citations

  1. Neese, F.
     Approximate second-order SCF convergence for spin unrestricted wavefunctions
     Chem. Phys. Lett. 2000 325(1-3), 93-98
     doi.org/10.1016/s0009-2614(00)00662-x

Timings for individual modules:

Sum of individual times          ...      490.679 sec (=   8.178 min)
Startup calculation              ...      111.774 sec (=   1.863 min)  22.8 %
SCF iterations                   ...      179.802 sec (=   2.997 min)  36.6 %
Property integrals               ...       52.047 sec (=   0.867 min)  10.6 %
SCF Response                     ...       12.928 sec (=   0.215 min)   2.6 %
Property calculations            ...       20.803 sec (=   0.347 min)   4.2 %
SCF Gradient evaluation          ...      106.674 sec (=   1.778 min)  21.7 %
Geometry relaxation              ...        6.651 sec (=   0.111 min)   1.4 %
                             ****ORCA TERMINATED NORMALLY****
TOTAL RUN TIME: 0 days 0 hours 8 minutes 45 seconds 652 msec
