
                                 *****************
                                 * O   R   C   A *
                                 *****************

                                            #,                                       
                                            ###                                      
                                            ####                                     
                                            #####                                    
                                            ######                                   
                                           ########,                                 
                                     ,,################,,,,,                         
                               ,,#################################,,                 
                          ,,##########################################,,             
                       ,#########################################, ''#####,          
                    ,#############################################,,   '####,        
                  ,##################################################,,,,####,       
                ,###########''''           ''''###############################       
              ,#####''   ,,,,##########,,,,          '''####'''          '####       
            ,##' ,,,,###########################,,,                        '##       
           ' ,,###''''                  '''############,,,                           
         ,,##''                                '''############,,,,        ,,,,,,###''
      ,#''                                            '''#######################'''  
     '                                                          ''''####''''         
             ,#######,   #######,   ,#######,      ##                                
            ,#'     '#,  ##    ##  ,#'     '#,    #''#        ,####,    ,#,          
            ##       ##  ##   ,#'  ##            #'  '#       #'       ,# #          
            ##       ##  #######   ##           ,######,      #####,      #          
            '#,     ,#'  ##    ##  '#,     ,#' ,#      #,     #,   #      #          
             '#######'   ##     ##  '#######'  #'      '#     '####' #    #          



                #########################################################
                #                        -***-                          #
                #          Department of theory and spectroscopy        #
                #                                                       #
                #                      Frank Neese                      #
                #                                                       #
                #     Directorship, Architecture, Infrastructure        #
                #                    SHARK, DRIVERS                     #
                #        Core code/Algorithms in most modules           #
                #                                                       #
                #        Max Planck Institute fuer Kohlenforschung      #
                #                Kaiser Wilhelm Platz 1                 #
                #                 D-45470 Muelheim/Ruhr                 #
                #                      Germany                          #
                #                                                       #
                #                  All rights reserved                  #
                #                        -***-                          #
                #########################################################


                         Program Version 6.1.0  -  RELEASE   -
                                (GIT: $679e74b$)
                          ($2025-06-10 18:02:51 +0200$)


 With contributions from (in alphabetic order):
[Max-Planck-Institut fuer Kohlenforschung]                               
  Daniel Aravena         : Magnetic Suceptibility                        
  Michael Atanasov       : Ab Initio Ligand Field Theory (pilot matlab implementation)
  Alexander A. Auer      : GIAO ZORA, VPT2 properties, NMR spectrum      
  Ute Becker             : All parallelization in ORCA, NUMFREQ, NUMCALC 
  Giovanni Bistoni       : ED, misc. LED, open-shell LED, HFLD           
  Dmytro Bykov           : pre 5.0 version of the SCF Hessian            
  Marcos Casanova-Páez   : Triplet and SCS-CIS(D). UHF-(DLPNO)-IP/EA/STEOM-CCSD. UHF-CVS-IP/STEOM-CCSD   
  Vijay G. Chilkuri      : MRCI spin determinant printing, contributions to CSF-ICE 
  Pauline Colinet        : FMM embedding                                 
  Dipayan Datta          : RHF DLPNO-CCSD density                        
  Achintya Kumar Dutta   : EOM-CC, STEOM-CC                              
  Nicolas Foglia         : Exact transition moments, OPA infrastructure, MCD improvements    
  Dmitry Ganyushin       : Spin-Orbit,Spin-Spin,Magnetic field MRCI      
  Miquel Garcia-Rates    : C-PCM and meta-GGA Hessian, CCSD/C-PCM, Gaussian charge scheme 
  Tiago L. C. Gouveia    : GS-ROHF, GS-ROCIS                             
  Yang Guo               : DLPNO-NEVPT2, F12-NEVPT2, CIM, IAO-localization        
  Andreas Hansen         : Spin unrestricted coupled pair/coupled cluster methods 
  Ingolf Harden          : AUTO-CI MPn and infrastructure                
  Benjamin Helmich-Paris : MC-RPA, TRAH-(SCF,CASSCF), AVAS, COSX integrals, SCF dyn. polar., MC-PDFT, srDFT 
  Lee Huntington         : MR-EOM, pCC                                   
  Robert Izsak           : Overlap fitted RIJCOSX, COSX-SCS-MP3, EOM     
  Riya Kayal             : Wick's Theorem for AUTO-CI, AUTO-CI UHF-CCSDT 
  Emily Kempfer          : AUTO-CI RHF CISDT and CCSDT, approximate NEVPT4
  Christian Kollmar      : KDIIS, OOCD, Brueckner-CCSD(T), CCSD density, CASPT2, CASPT2-K, improved NEVPT2 
  Axel Koslowski         : Symmetry handling                             
  Simone Kossmann        : meta-GGA functionals, TD-DFT gradient, OOMP2, (MP2 Hessian; deprecated post 5.0) 
  Lucas Lang             : DCDCAS, Hyperfine gauge corrections, ICE-SOC+SSC
  Marvin Lechner         : AUTO-CI (C++ implementation), FIC-MRCC        
  Spencer Leger          : CASSCF response                               
  Dagmar Lenk            : GEPOL surface, SMD, ORCA-2-JSON               
  Dimitrios Liakos       : Extrapolation schemes; Compound Job, Property file
  Dimitrios Manganas     : Further ROCIS development; embedding schemes. LFT, Crystal Embedding 
  Dimitrios Pantazis     : SARC Basis sets                               
  Anastasios Papadopoulos: AUTO-CI, single reference methods and gradients 
  Taras Petrenko         : pre 6.0 DFT Hessian and TD-DFT gradient,  ECA, NRVS 
  Petra Pikulova         : Analytic Raman intensities                    
  Peter Pinski           : DLPNO-MP2, DLPNO-MP2 Gradient                 
  Shashank Vittal Rao    : ES-AILFT, MagRelax                            
  Christoph Reimann      : Effective Core Potentials                     
  Marius Retegan         : Local ZFS, SOC                                
  Christoph Riplinger    : Optimizer, TS searches, QM/MM, DLPNO-CCSD(T), (RO)-DLPNO pert. Triples 
  Michael Roemelt        : Original ROCIS implementation, recursive CI coupling coefficients
  Masaaki Saitow         : Open-shell DLPNO-CCSD energy and density      
  Barbara Sandhoefer     : DKH picture change effects                    
  Yorick L. A. Schmerwitz: GMF and freeze-and-release deltaSCF, NEB S-IDPP initial path                    
  Kantharuban Sivalingam : CASSCF convergence/infrastructure, NEVPT2, NEVPT3, NEVPT4(SD), FIC-MRCI and CEPA variants
  Bernardo de Souza      : ESD, SOC TD-DFT                               
  Georgi L. Stoychev     : AutoAux, RI-MP2 NMR, DLPNO-MP2 response, X2C  
  Van Anh Tran           : RI-MP2 g-tensors                              
  Willem Van den Heuvel  : Paramagnetic NMR                              
  Zikuan Wang            : NOTCH, Electric field optimization            
  Frank Wennmohs         : Technical directorship and infrastructure     
  Hang Xu                : AUTO-CI-Response properties                   
                                                                         
[FACCTs GmbH]                                                            
  Markus Bursch, Nicolas Foglia, Miquel Garcia-Rates, Ingolf Harden, Hagen Neugebauer, Anastasios Papadopoulos, 
  Christoph Riplinger, Bernardo de Souza, Georgi L. Stoychev                                                    
                                                                 
  APM, various basis sets, CI-OPT, improved COSX, DLPNO-Multilevel,           
  DOCKER, DRACO, updates on ESD, Fragmentator, GOAT, IRC, LR-CPCM, L-BFGS, MBIS, meta-GGA TD-DFT gradient, ML-optimized integration grids, 
  MM, NACMEs, nearIR, NEB, NEB-TS, NL-DFT gradient (VV10), 2- and 3-layer-ONIOM, interface openCOSMO-RS, QMMM,   
  Crystal-QMMM, RESP, rigid body optimization, SF, symmetry and pop. for TD-DFT, various functionals, SOLVATOR                                   
                                                                         
[Other institutions]                                                     
  V. Asgeirsson          : NEB                                           
  Christoph Bannwarth    : sTDA-DFT, sTD-DFT, PBEh-3c, B97-3c, D3        
  Giovanni Bistoni       : ETS/NOCV, ADLD/ADEX, COVALED                  
  Martin Brehm           : Molecular dynamics                            
  Ronald Cardenas        : ETS/NOCV                                      
  Martina Colucci        : COVALED                                       
  Sebastian Ehlert       : rSCAN, r2SCAN, r2SCAN-3c, D4, dhf basis sets  
  Marvin Friede          : D4 for Fr, Ra, Ac-Lr                          
  Lars Goerigk           : TD-DFT with DH, B97 family of functionals     
  Stefan Grimme          : VdW corrections, initial TS optimization, DFT functionals, gCP, sTDA/sTD-DF 
  Waldemar Hujo          : DFT-NL                                        
  H. Jonsson             : NEB                                           
  Holger Kruse           : gCP                                           
  Marcel Mueller         : wB97X-3c, vDZP basis set                      
  Hagen Neugebauer       : wr2SCAN, Native XTB                           
  Gianluca Regni         : ADLD/ADEX                                     
  Tobias Risthaus        : pre 6.0 range-separated hybrid DFT and stability analysis
  Lukas Wittmann         : regularized MP2, r2SCAN double-hybrids, wr2SCAN        
                                                                         
We gratefully acknowledge several colleagues who have allowed us to      
interface, adapt or use parts of their codes:                            
  Ed Valeev, F. Pavosevic, A. Kumar             : LibInt (2-el integral package), F12 methods 
  Garnet Chan, S. Sharma, J. Yang, R. Olivares  : DMRG                   
  Ulf Ekstrom                                   : XCFun DFT Library      
  Mihaly Kallay                                 : mrcc  (arbitrary order and MRCC methods)
  Frank Weinhold                                : gennbo (NPA and NBO analysis)           
  Simon Mueller                                 : openCOSMO-RS                            
  Christopher J. Cramer and Donald G. Truhlar   : smd solvation model                     
  S Lehtola, MJT Oliveira, MAL Marques          : LibXC Library                           
  Liviu Ungur et al                             : ANISO software                          


 Your calculation uses the libint2 library for the computation of 2-el integrals
 For citations please refer to: http://libint.valeyev.net

 Your ORCA version has been built with support for libXC version: 7.0.0
 For citations please refer to: https://libxc.gitlab.io

 This ORCA versions uses:
   CBLAS   interface :  Fast vector & matrix operations
   LAPACKE interface :  Fast linear algebra routines
   SCALAPACK package :  Parallel linear algebra routines
   Shared memory     :  Shared parallel matrices
   BLAS/LAPACK       :  OpenBLAS 0.3.29  USE64BITINT DYNAMIC_ARCH NO_AFFINITY Bulldozer SINGLE_THREADED
        Core in use  :  Bulldozer
   Copyright (c) 2011-2014, The OpenBLAS Project


  ***********************************
  * Starting time: Wed Aug  6 13:25:02 2025
  * Host name:     chromium03
  * Process ID:    52777
  * Working dir.:  /local/scratch/mehlhorn/61709
  ***********************************



***************************************
The coordinates will be read from file: start.xyz
***************************************


Your calculation utilizes the atom-pairwise dispersion correction
with the Becke-Johnson damping scheme (D3BJ)


Warning: RI is on but no J-basis has been assigned. Assigning Def2/J (nothing to worry about!)
================================================================================

----- Orbital basis set information -----
Your calculation utilizes the basis: pc-1
   H, C-F              : F. Jensen, J. Chem. Phys. 115, 9113 (2001).
                         F. Jensen, J. Chem. Phys. 116, 7372 (2002).
                         F. Jensen, J. Chem. Phys. 117, 9234 (2002).
   Si-Cl               : F. Jensen, T. Helgaker, J. Chem. Phys. 121, 3463 (2004).
   He-B, Ne-Mg, Al, Ar : F. Jensen, J. Phys. Chem. A 111, 11198 (2007).
   K, Ca, Ga-Kr        : F. Jensen, J. Chem. Phys. 136, 094110 (2012).
   Sc-Zn               : F. Jensen, J. Chem. Phys. 138, 014107 (2013).

----- AuxJ basis set information -----
Your calculation utilizes the auxiliary basis: def2/J
   H-Rn: F. Weigend, Phys. Chem. Chem. Phys. 8, 1057 (2006).
   Fr-Lr: K. Eichkorn, F. Weigend, O. Treutler, R. Ahlrichs; Theor. Chem. Acc. 97, 119 (1997).

================================================================================
                                        WARNINGS
                       Please study these warnings very carefully!
================================================================================


WARNING: Geometry Optimization
  ===> : Switching off AutoStart
         For restart on a previous wavefunction, please use MOREAD

================================================================================
                                       INPUT FILE
================================================================================
NAME = run.inp
|  1> # Geometry optimization for (AlH3)n cluster
|  2> 
|  3> %pal nprocs 24  end
|  4> 
|  5> %geom MaxIter 500 end
|  6> 
|  7> 
|  8> ! PBE pc-1
|  9> ! RKS	# closed shell for AlH3
| 10> ! D3    #  dispersion correction
| 11> ! Freq 	# Frequency analysis to check the stabiltity of the structures
| 12> 
| 13> ! NoPop # population analysis not necessary	
| 14> 
| 15> ! DEFGRID3
| 16> ! TightSCF
| 17> ! TightOpt
| 18> 
| 19> ! SmallPrint
| 20> 
| 21> 
| 22> * xyzFile 0 1 start.xyz # only maingroup elements H and Al so there should be no net spin
| 23> 
| 24>                          ****END OF INPUT****
================================================================================

                       *****************************
                       * Geometry Optimization Run *
                       *****************************

Geometry optimization settings:
Update method            Update   .... BFGS
Choice of coordinates    CoordSys .... (2022) Redundant Internals
Initial Hessian          InHess   .... Almloef's Model
Max. no of cycles        MaxIter  .... 500

Convergence Tolerances:
Energy Change            TolE     ....  1.0000e-06 Eh
Max. Gradient            TolMAXG  ....  1.0000e-04 Eh/bohr
RMS Gradient             TolRMSG  ....  3.0000e-05 Eh/bohr
Max. Displacement        TolMAXD  ....  1.0000e-03 bohr
RMS Displacement         TolRMSD  ....  6.0000e-04 bohr
Strict Convergence                .... False

------------------------------------------------------------------------------
                        ORCA OPTIMIZATION COORDINATE SETUP
------------------------------------------------------------------------------

The optimization will be done in redundant internal coordinates (2022)
Making redundant internal coordinates   ...  (2022 redundants) done
Evaluating the initial hessian          ...  (Almloef) done
Evaluating the coordinates              ...  done
Calculating the B-matrix                .... done
Calculating the G-matrix                .... done
The number of degrees of freedom        ....  117

    -----------------------------------------------------------------
                    Redundant Internal Coordinates


    -----------------------------------------------------------------
         Definition                    Initial Value    Approx d2E/dq
    -----------------------------------------------------------------
      1. B(Al  1,Al  0)                  2.9515         0.098995   
      2. B(H   2,Al  1)                  1.7070         0.261623   
      3. B(H   3,Al  1)                  1.5960         0.393329   
      4. B(H   4,Al  1)                  1.7066         0.262021   
      5. B(H   4,Al  0)                  1.7046         0.263943   
      6. B(H   5,Al  0)                  1.5961         0.393082   
      7. B(H   6,Al  0)                  1.7042         0.264283   
      8. B(H   7,Al  1)                  1.5961         0.393196   
      9. B(Al  8,H   6)                  1.7043         0.264197   
     10. B(Al  8,H   2)                  1.7046         0.263861   
     11. B(Al  8,Al  1)                  2.9546         0.097878   
     12. B(Al  8,Al  0)                  2.9840         0.087870   
     13. B(H   9,Al  8)                  1.5963         0.392877   
     14. B(H  10,Al  8)                  1.5968         0.392142   
     15. B(H  11,Al  0)                  1.5977         0.390783   
     16. A(H   4,Al  0,H   6)          109.7551         0.333689   
     17. A(Al  1,Al  0,H   4)           30.1066         0.327993   
     18. A(Al  1,Al  0,Al  8)           59.7044         0.316280   
     19. A(Al  8,Al  0,H  11)          109.8662         0.343238   
     20. A(H   4,Al  0,H   5)          109.6380         0.356694   
     21. A(H   6,Al  0,H  11)          109.0822         0.356417   
     22. A(Al  1,Al  0,H   5)          138.8827         0.350538   
     23. A(Al  1,Al  0,H  11)           97.6938         0.350191   
     24. A(H   5,Al  0,H  11)          109.6240         0.381558   
     25. A(H   5,Al  0,H   6)          109.6103         0.356772   
     26. A(H   4,Al  0,Al  8)           82.9016         0.321630   
     27. A(Al  1,Al  0,H   6)           88.6036         0.328062   
     28. A(H   5,Al  0,Al  8)          131.1858         0.343575   
     29. A(H   4,Al  0,H  11)          109.1155         0.356339   
     30. A(H   6,Al  0,Al  8)           28.9033         0.321698   
     31. A(H   2,Al  1,H   7)          109.1743         0.356177   
     32. A(H   3,Al  1,H   4)          109.1827         0.356290   
     33. A(Al  0,Al  1,H   3)          132.2255         0.350575   
     34. A(H   2,Al  1,H   4)          111.1851         0.332726   
     35. A(H   4,Al  1,Al  8)           83.7977         0.326986   
     36. A(H   3,Al  1,Al  8)          108.6900         0.349904   
     37. A(H   2,Al  1,H   3)          108.8247         0.356198   
     38. A(H   2,Al  1,Al  8)           29.9756         0.326904   
     39. A(Al  0,Al  1,Al  8)           60.6936         0.321897   
     40. A(H   7,Al  1,Al  8)          132.2967         0.349884   
     41. A(Al  0,Al  1,H   4)           30.0679         0.327598   
     42. A(H   4,Al  1,H   7)          108.8221         0.356269   
     43. A(Al  0,Al  1,H   7)          108.8718         0.350555   
     44. A(Al  0,Al  1,H   2)           83.6336         0.327516   
     45. A(H   3,Al  1,H   7)          109.6359         0.382008   
     46. A(Al  1,H   2,Al  8)          120.0038         0.333113   
     47. A(Al  0,H   4,Al  1)          119.8255         0.333214   
     48. A(Al  0,H   6,Al  8)          122.1951         0.333743   
     49. A(Al  1,Al  8,H   2)           30.0206         0.327363   
     50. A(Al  0,Al  8,H   2)           82.6469         0.321614   
     51. A(Al  0,Al  8,Al  1)           59.6020         0.315697   
     52. A(H   6,Al  8,H  10)          109.1142         0.356607   
     53. A(H   2,Al  8,H  10)          109.1092         0.356530   
     54. A(Al  1,Al  8,H  10)           98.1275         0.349726   
     55. A(Al  0,Al  8,H  10)          110.9832         0.343438   
     56. A(H   6,Al  8,H   9)          109.5292         0.356721   
     57. A(H   9,Al  8,H  10)          109.6307         0.381754   
     58. A(H   2,Al  8,H   9)          109.5737         0.356644   
     59. A(Al  1,Al  8,H   9)          138.6092         0.349836   
     60. A(Al  0,Al  8,H   9)          130.2850         0.343546   
     61. A(H   2,Al  8,H   6)          109.8690         0.333654   
     62. A(Al  1,Al  8,H   6)           88.4996         0.327431   
     63. A(Al  0,Al  8,H   6)           28.9016         0.321681   
     64. D(H   2,Al  1,Al  0,H   4)   -156.7054         0.010000   
     65. D(H   3,Al  1,Al  0,H   6)     88.7318         0.010000   
     66. D(H   3,Al  1,Al  0,H   5)    -30.1232         0.010000   
     67. D(H   3,Al  1,Al  0,Al  8)     89.2451         0.010000   
     68. D(H   2,Al  1,Al  0,Al  8)    -20.4609         0.010000   
     69. D(H   3,Al  1,Al  0,H   4)    -46.9994         0.010000   
     70. D(H   2,Al  1,Al  0,H   6)    -20.9742         0.010000   
     71. D(H   2,Al  1,Al  0,H   5)   -139.8292         0.010000   
     72. D(H   2,Al  1,Al  0,H  11)     88.0943         0.010000   
     73. D(H   3,Al  1,Al  0,H  11)   -162.1997         0.010000   
     74. D(Al  8,H   2,Al  1,H   7)    145.4021         0.010000   
     75. D(Al  8,H   2,Al  1,H   3)    -94.9657         0.010000   
     76. D(Al  8,H   2,Al  1,Al  0)     37.5972         0.010000   
     77. D(Al  8,H   2,Al  1,H   4)     25.3285         0.010000   
     78. D(Al  1,H   4,Al  0,H   5)   -168.3054         0.010000   
     79. D(Al  0,H   4,Al  1,H   7)    -95.3523         0.010000   
     80. D(Al  0,H   4,Al  1,Al  8)     37.3456         0.010000   
     81. D(Al  0,H   4,Al  1,H   3)    145.0121         0.010000   
     82. D(Al  0,H   4,Al  1,H   2)     24.9298         0.010000   
     83. D(Al  1,H   4,Al  0,H  11)     71.6238         0.010000   
     84. D(Al  1,H   4,Al  0,Al  8)    -36.9952         0.010000   
     85. D(Al  1,H   4,Al  0,H   6)    -47.8556         0.010000   
     86. D(Al  8,H   6,Al  0,H   4)     22.7580         0.010000   
     87. D(Al  8,H   6,Al  0,Al  1)      0.9170         0.010000   
     88. D(Al  8,H   6,Al  0,H   5)    143.2246         0.010000   
     89. D(Al  8,H   6,Al  0,H  11)    -96.7418         0.010000   
     90. D(Al  1,Al  8,Al  0,H  11)    -87.3497         0.010000   
     91. D(Al  1,Al  8,Al  0,H   6)    178.9383         0.010000   
     92. D(Al  1,Al  8,Al  0,H   5)    130.4030         0.010000   
     93. D(H   2,Al  8,Al  0,Al  1)     20.5344         0.010000   
     94. D(Al  1,Al  8,Al  0,H   4)     20.4619         0.010000   
     95. D(H   9,Al  8,H   6,Al  0)    140.9893         0.010000   
     96. D(H   2,Al  8,H   6,Al  0)     20.5817         0.010000   
     97. D(Al  1,Al  8,H   6,Al  0)     -0.9161         0.010000   
     98. D(H  10,Al  8,H   2,Al  1)     72.5102         0.010000   
     99. D(H   9,Al  8,H   2,Al  1)   -167.4537         0.010000   
    100. D(H   6,Al  8,H   2,Al  1)    -47.0731         0.010000   
    101. D(H   6,Al  8,Al  1,H   2)    136.4592         0.010000   
    102. D(H   6,Al  8,Al  1,Al  0)      0.5133         0.010000   
    103. D(H   2,Al  8,Al  1,H   7)    -46.4748         0.010000   
    104. D(H   2,Al  8,Al  1,H   4)   -156.3440         0.010000   
    105. D(H   2,Al  8,Al  1,H   3)     95.4670         0.010000   
    106. D(H   2,Al  8,Al  1,Al  0)   -135.9459         0.010000   
    107. D(Al  0,Al  8,Al  1,H   7)     89.4711         0.010000   
    108. D(Al  0,Al  8,Al  1,H   4)    -20.3981         0.010000   
    109. D(Al  0,Al  8,H   2,Al  1)    -37.2090         0.010000   
    110. D(Al  0,Al  8,Al  1,H   3)   -128.5871         0.010000   
    111. D(Al  0,Al  8,Al  1,H   2)    135.9459         0.010000   
    112. D(H   6,Al  8,Al  0,Al  1)   -178.9383         0.010000   
    113. D(H   2,Al  8,Al  0,H  11)    -66.8153         0.010000   
    114. D(H   2,Al  8,Al  0,H   6)   -160.5273         0.010000   
    115. D(H   2,Al  8,Al  0,H   5)    150.9374         0.010000   
    116. D(H  10,Al  8,H   6,Al  0)    -98.9986         0.010000   
    117. D(H   2,Al  8,Al  0,H   4)     40.9963         0.010000   
    -----------------------------------------------------------------

Number of atoms                         .... 12
Number of degrees of freedom            .... 117


         *************************************************************
         *                GEOMETRY OPTIMIZATION CYCLE   1            *
         *************************************************************
---------------------------------
CARTESIAN COORDINATES (ANGSTROEM)
---------------------------------
  Al    -0.290400    1.462690    2.547080
  Al     0.000000    0.000000    0.000000
  H      0.843190   -1.128760    0.963670
  H     -1.048990   -0.783770   -0.912390
  H     -0.833610    1.133940    0.965190
  H     -1.395550    2.308350    3.328860
  H     -0.000000    0.000000    3.372030
  H      1.040310    0.778650   -0.926760
  Al     0.313310   -1.459560    2.549740
  H      1.438820   -2.280270    3.329350
  H     -1.029590   -2.320930    2.483270
  H      1.069450    2.297970    2.470320

----------------------------
CARTESIAN COORDINATES (A.U.)
----------------------------
  NO LB      ZA    FRAG     MASS         X           Y           Z
   0 Al   13.0000    0    26.982   -0.548776    2.764084    4.813284
   1 Al   13.0000    0    26.982    0.000000    0.000000    0.000000
   2 H     1.0000    0     1.008    1.593398   -2.133047    1.821072
   3 H     1.0000    0     1.008   -1.982304   -1.481111   -1.724167
   4 H     1.0000    0     1.008   -1.575295    2.142836    1.823945
   5 H     1.0000    0     1.008   -2.637207    4.362149    6.290634
   6 H     1.0000    0     1.008   -0.000000    0.000000    6.372213
   7 H     1.0000    0     1.008    1.965901    1.471435   -1.751323
   8 Al   13.0000    0    26.982    0.592070   -2.758169    4.818310
   9 H     1.0000    0     1.008    2.718976   -4.309086    6.291560
  10 H     1.0000    0     1.008   -1.945643   -4.385922    4.692700
  11 H     1.0000    0     1.008    2.020968    4.342534    4.668228

--------------------------------
INTERNAL COORDINATES (ANGSTROEM)
--------------------------------
 Al     0   0   0     0.000000000000     0.00000000     0.00000000
 Al     1   0   0     2.951509905540     0.00000000     0.00000000
 H      2   1   0     1.706964669406    83.63362024     0.00000000
 H      2   1   3     1.595973353506   132.22554339   109.70597532
 H      1   2   3     1.704561421217    30.10661081   203.29464752
 H      1   2   3     1.596144519303   138.88271663   220.17079937
 H      1   2   3     1.704211459473    88.60356904   339.02580351
 H      2   1   3     1.596065417268   108.87176096   251.87343405
 Al     7   1   2     1.704300265153   122.19506105     0.91697015
 H      9   7   1     1.596286132340   109.52915818   140.98929866
 H      9   7   1     1.596795837858   109.11420692   261.00144991
 H      1   2   3     1.597741155037    97.69382328    88.09433498

---------------------------
INTERNAL COORDINATES (A.U.)
---------------------------
 Al     0   0   0     0.000000000000     0.00000000     0.00000000
 Al     1   0   0     5.577545403026     0.00000000     0.00000000
 H      2   1   0     3.225695745457    83.63362024     0.00000000
 H      2   1   3     3.015952555162   132.22554339   109.70597532
 H      1   2   3     3.221154264547    30.10661081   203.29464752
 H      1   2   3     3.016276011641   138.88271663   220.17079937
 H      1   2   3     3.220492932695    88.60356904   339.02580351
 H      2   1   3     3.016126530460   108.87176096   251.87343405
 Al     7   1   2     3.220660751108   122.19506105     0.91697015
 H      9   7   1     3.016543621498   109.52915818   140.98929866
 H      9   7   1     3.017506825337   109.11420692   261.00144991
 H      1   2   3     3.019293215916    97.69382328    88.09433498

---------------------
BASIS SET INFORMATION
---------------------
There are 2 groups of distinct atoms

 Group   1 Type Al  : 25s13p1d contracted to 4s3p1d pattern {8881/661/1}
 Group   2 Type H   : 4s1p contracted to 2s1p pattern {31/1}

Atom   0Al   basis set group =>   1
Atom   1Al   basis set group =>   1
Atom   2H    basis set group =>   2
Atom   3H    basis set group =>   2
Atom   4H    basis set group =>   2
Atom   5H    basis set group =>   2
Atom   6H    basis set group =>   2
Atom   7H    basis set group =>   2
Atom   8Al   basis set group =>   1
Atom   9H    basis set group =>   2
Atom  10H    basis set group =>   2
Atom  11H    basis set group =>   2
---------------------------------
AUXILIARY/J BASIS SET INFORMATION
---------------------------------
There are 2 groups of distinct atoms

 Group   1 Type Al  : 14s5p5d2f1g contracted to 8s4p3d1f1g pattern {71111111/2111/311/2/1}
 Group   2 Type H   : 5s2p1d contracted to 3s1p1d pattern {311/2/1}

Atom   0Al   basis set group =>   1
Atom   1Al   basis set group =>   1
Atom   2H    basis set group =>   2
Atom   3H    basis set group =>   2
Atom   4H    basis set group =>   2
Atom   5H    basis set group =>   2
Atom   6H    basis set group =>   2
Atom   7H    basis set group =>   2
Atom   8Al   basis set group =>   1
Atom   9H    basis set group =>   2
Atom  10H    basis set group =>   2
Atom  11H    basis set group =>   2


           ************************************************************
           *        Program running with 24 parallel MPI-processes    *
           *              working on a common directory               *
           ************************************************************
------------------------------------------------------------------------------
                             ORCA STARTUP CALCULATIONS
                           -- RI-GTO INTEGRALS CHOSEN --
------------------------------------------------------------------------------
------------------------------------------------------------------------------
                   ___                                                        
                  /   \      - P O W E R E D   B Y -                         
                 /     \                                                     
                 |  |  |   _    _      __       _____    __    __             
                 |  |  |  | |  | |    /  \     |  _  \  |  |  /  |          
                  \  \/   | |  | |   /    \    | | | |  |  | /  /          
                 / \  \   | |__| |  /  /\  \   | |_| |  |  |/  /          
                |  |  |   |  __  | /  /__\  \  |    /   |      \           
                |  |  |   | |  | | |   __   |  |    \   |  |\   \          
                \     /   | |  | | |  |  |  |  | |\  \  |  | \   \       
                 \___/    |_|  |_| |__|  |__|  |_| \__\ |__|  \__/        
                                                                              
                      - O R C A' S   B I G   F R I E N D -                    
                                      &                                       
                       - I N T E G R A L  F E E D E R -                       
                                                                              
 v1 FN, 2020, v2 2021, v3 2022-2024                                           
------------------------------------------------------------------------------


----------------------
SHARK INTEGRAL PACKAGE
----------------------

Number of atoms                             ...     12
Number of basis functions                   ...     99
Number of shells                            ...     51
Maximum angular momentum                    ...      2
Integral batch strategy                     ... SHARK/LIBINT Hybrid
RI-J (if used) integral strategy            ... SPLIT-RIJ (Revised 2003 algorithm where possible)
Printlevel                                  ...      1
Contraction scheme used                     ... SEGMENTED contraction
Prescreening option                         ... SCHWARTZ
   Thresh                                   ... 2.500e-11
   Tcut                                     ... 2.500e-12
   Tpresel                                  ... 2.500e-12 
Coulomb Range Separation                    ... NOT USED
Exchange Range Separation                   ... NOT USED
Multipole approximations                    ... NOT USED
Finite Nucleus Model                        ... NOT USED
CABS basis                                  ... NOT available
Auxiliary Coulomb fitting basis             ... AVAILABLE
   # of basis functions in Aux-J            ...    252
   # of shells in Aux-J                     ...     96
   Maximum angular momentum in Aux-J        ...      4
Auxiliary J/K fitting basis                 ... NOT available
Auxiliary Correlation fitting basis         ... NOT available
Auxiliary 'external' fitting basis          ... NOT available

Checking pre-screening integrals            ... done (  0.0 sec) Dimension = 51
   => SHARK Basis and OBASIS are compatible. Storing Pre-screening
Shell pair information
Shell pair cut-off parameter TPreSel        ...   2.5e-12
Total number of shell pairs                 ...      1326
Shell pairs after pre-screening             ...      1262
Total number of primitive shell pairs       ...     13572
Primitive shell pairs kept                  ...      8170
          la=0 lb=0:    450 shell pairs
          la=1 lb=0:    511 shell pairs
          la=1 lb=1:    151 shell pairs
          la=2 lb=0:     90 shell pairs
          la=2 lb=1:     54 shell pairs
          la=2 lb=2:      6 shell pairs

Checking whether 4 symmetric matrices of dimension 99 fit in memory
:Max Core in MB      =   4096.00
 MB in use           =      5.58
 MB left             =   4090.42
 MB needed           =      0.15
 Data fit in memory  = YES
Calculating RI/J V-Matrix + Cholesky decomp.... done (  0.1 sec)
Calculating Nuclear repulsion               ... done (  0.0 sec) ENN=    173.343242350548 Eh

Diagonalization of the overlap matrix:
Smallest eigenvalue                        ... 6.828e-03
Time for diagonalization                   ...    0.032 sec
Threshold for overlap eigenvalues          ... 1.000e-07
Number of eigenvalues below threshold      ... 0
Time for construction of square roots      ...    0.001 sec
Total time needed                          ...    0.036 sec

-------------------
DFT GRID GENERATION
-------------------

General Integration Accuracy     IntAcc      ... 4.959
Radial Grid Type                 RadialGrid  ... OptM3 with GC (2021)
Angular Grid (max. ang.)         AngularGrid ... 6 (Lebedev-590)
Angular grid pruning method      GridPruning ... 4 (adaptive)
Weight generation scheme         WeightScheme... mBecke (2022)
Basis function cutoff            BFCut       ... 1.0000e-11
Integration weight cutoff        WCut        ... 1.0000e-14
Partially contracted basis set               ... off
Rotationally invariant grid construction     ... off
Angular grids for H and He will be reduced by one unit

Total number of grid points                  ...   128192
Total number of batches                      ...     2008
Average number of points per batch           ...       63
Average number of grid points per atom       ...    10683
Grids setup in   3.0 sec
Initializing property integral containers    ... done (  0.0 sec)

SHARK setup successfully completed in   3.4 seconds

Maximum memory used throughout the entire STARTUP-calculation: 27.2 MB


           ************************************************************
           *        Program running with 24 parallel MPI-processes    *
           *              working on a common directory               *
           ************************************************************
-------------------------------------------------------------------------------
                                 ORCA GUESS
                   Start orbitals & Density for SCF / CASSCF
-------------------------------------------------------------------------------

------------
SCF SETTINGS
------------
Hamiltonian:
 Density Functional     Method          .... DFT(GTOs)
 Exchange Functional    Exchange        .... PBE
   PBE kappa parameter   XKappa         ....  0.804000
   PBE mue parameter    XMuePBE         ....  0.219520
 Correlation Functional Correlation     .... PBE
   PBE beta parameter  CBetaPBE         ....  0.066725
 LDA part of GGA corr.  LDAOpt          .... PW91-LDA
 Gradients option       PostSCFGGA      .... off
   NL short-range parameter             ....  6.400000
 RI-approximation to the Coulomb term is turned on
   Number of AuxJ basis functions       .... 252


General Settings:
 Integral files         IntName         .... run
 Hartree-Fock type      HFTyp           .... RHF
 Total Charge           Charge          ....    0
 Multiplicity           Mult            ....    1
 Number of Electrons    NEL             ....   48
 Basis Dimension        Dim             ....   99
 Nuclear Repulsion      ENuc            ....    173.3432423505 Eh

Convergence Acceleration:
 AO-DIIS                CNVDIIS         .... on
   Start iteration      DIISMaxIt       ....    12
   Startup error        DIISStart       ....  0.200000
   # of expansion vecs  DIISMaxEq       ....     5
   Bias factor          DIISBfac        ....   1.050
   Max. coefficient     DIISMaxC        ....  10.000
 MO-DIIS                CNVKDIIS        .... off
 Trust-Rad. Augm. Hess. CNVTRAH         .... auto
   Auto Start mean grad. ratio tolernc. ....  1.125000
   Auto Start start iteration           ....    50
   Auto Start num. interpolation iter.  ....    10
   Max. Number of Micro iterations      ....    24
   Max. Number of Macro iterations      .... Maxiter - #DIIS iter
   Number of Davidson start vectors     ....     2
   Converg. threshold    (grad. norm)   ....   1.000e-05
   Grad. Scal. Fac. for Micro threshold ....   0.100
   Minimum threshold for Micro iter.    ....   1.000e-02
   NR start threshold (gradient norm)   ....   1.000e-04
   Initial trust radius                 ....   0.400
   Minimum AH scaling param. (alpha)    ....   1.000
   Maximum AH scaling param. (alpha)    .... 1000.000
   Quad. conv. algorithm                .... NR
   White noise on init. David. guess    .... on
   Maximum white noise                  ....   0.010
   Pseudo random numbers                .... off
   Inactive MOs                         .... canonical
   Orbital update algorithm             .... Taylor
   Preconditioner                       .... Diag
   Full preconditioner red. dimension   ....   250
 SOSCF                 CNVSOSCF           .... on
   Start iteration     SOSCFMaxIt         ....   150
   Startup grad/error  SOSCFStart         ....  0.003300
   Hessian update      SOSCFHessUp        .... L-BFGS
   Autom. constraints  SOSCFAutoConstrain .... off
 Level Shifting         CNVShift        .... on
   Level shift para.    LevelShift      ....    0.2500
   Turn off err/grad.   ShiftErr        ....    0.0010
 Zerner damping         CNVZerner       .... off
 Static damping         CNVDamp         .... on
   Fraction old density DampFac         ....    0.7000
   Max. Damping (<1)    DampMax         ....    0.9800
   Min. Damping (>=0)   DampMin         ....    0.0000
   Turn off err/grad.   DampErr         ....    0.1000

SCF Procedure:
 Maximum # iterations   MaxIter         ....   125
 SCF integral mode      SCFMode         .... Direct
   Integral package                     .... SHARK and LIBINT hybrid scheme
 Reset frequency        DirectResetFreq ....    20
 Integral Threshold     Thresh          ....  2.500e-11 Eh
 Primitive CutOff       TCut            ....  2.500e-12 Eh

Convergence Tolerance:
 Convergence Check Mode ConvCheckMode   .... Total+1el-Energy
 Convergence forced     ConvForced      .... 0
 Energy Change          TolE            ....  1.000e-08 Eh
 1-El. energy change                    ....  1.000e-05 Eh
 Orbital Gradient       TolG            ....  1.000e-05
 Orbital Rotation angle TolX            ....  1.000e-05
 DIIS Error             TolErr          ....  5.000e-07

------------------------------
INITIAL GUESS: MODEL POTENTIAL
------------------------------
Loading Hartree-Fock densities                     ... done
Calculating cut-offs                               ... done
Initializing the effective Hamiltonian             ... done
Setting up the integral package (SHARK)            ... done
Starting the Coulomb interaction                   ... done (   0.0 sec)
Making the grid                                    ... done (   0.1 sec)
Mapping shells                                     ... done
Starting the XC term evaluation                    ... done (   0.0 sec)
  promolecular density results
     # of electrons  =     47.990855835
     EX              =    -56.702109935
     EC              =     -1.652248407
     EX+EC           =    -58.354358342
Transforming the Hamiltonian                       ... done (   0.0 sec)
Diagonalizing the Hamiltonian                      ... done (   0.0 sec)
Back transforming the eigenvectors                 ... done (   0.0 sec)
Now organizing SCF variables                       ... done
                      ------------------
                      INITIAL GUESS DONE (   0.2 sec)
                      ------------------
             **** ENERGY FILE WAS UPDATED (run.en.tmp) ****
Finished Guess after   0.8 sec
Maximum memory used throughout the entire GUESS-calculation: 7.9 MB


           ************************************************************
           *        Program running with 24 parallel MPI-processes    *
           *              working on a common directory               *
           ************************************************************

-------------------------------------------------------------------------------------------
                                      ORCA LEAN-SCF
                              memory conserving SCF solver
-------------------------------------------------------------------------------------------

----------------------------------------D-I-I-S--------------------------------------------
Iteration    Energy (Eh)           Delta-E    RMSDP     MaxDP     DIISErr   Damp  Time(sec)
-------------------------------------------------------------------------------------------
               ***  Starting incremental Fock matrix formation  ***
    1    -732.1606765789094879     0.00e+00  8.71e-03  3.96e-02  6.83e-02  0.700   0.3
    2    -732.1786517877835649    -1.80e-02  8.10e-03  3.32e-02  4.59e-02  0.700   0.2
                               ***Turning on AO-DIIS***
    3    -732.1892701276503885    -1.06e-02  4.55e-03  1.67e-02  2.65e-02  0.700   0.2
    4    -732.1952228860141076    -5.95e-03  8.66e-03  3.19e-02  1.65e-02  0.000   0.2
                              *** Initializing SOSCF ***
---------------------------------------S-O-S-C-F--------------------------------------
Iteration    Energy (Eh)           Delta-E    RMSDP     MaxDP     MaxGrad    Time(sec)
--------------------------------------------------------------------------------------
    5    -732.2068851842107051    -1.17e-02  1.14e-03  4.54e-03  2.44e-03     0.2
               *** Restarting incremental Fock matrix formation ***
    6    -732.2069533173482796    -6.81e-05  9.50e-04  3.04e-03  7.19e-04     0.2
    7    -732.2069597653855908    -6.45e-06  3.33e-04  1.03e-03  4.76e-04     0.2
    8    -732.2069647625990001    -5.00e-06  1.06e-04  3.19e-04  1.01e-04     0.2
    9    -732.2069650166249630    -2.54e-07  3.94e-05  1.11e-04  4.81e-05     0.2
   10    -732.2069650936466587    -7.70e-08  5.72e-06  2.48e-05  2.92e-06     0.2
   11    -732.2069650934893161     1.57e-10  2.48e-06  1.08e-05  1.86e-06     0.2
                 **** Energy Check signals convergence ****

               *****************************************************
               *                     SUCCESS                       *
               *           SCF CONVERGED AFTER  11 CYCLES          *
               *****************************************************

             **** ENERGY FILE WAS UPDATED (run.en.tmp) ****

----------------
TOTAL SCF ENERGY
----------------

Total Energy       :       -732.20696509257800 Eh          -19924.36446 eV

Components:
Nuclear Repulsion  :        173.34324235054800 Eh            4716.90943 eV
Electronic Energy  :       -905.55020744312606 Eh          -24641.27388 eV
One Electron Energy:      -1361.15622484312325 Eh          -37038.94390 eV
Two Electron Energy:        455.60601739999720 Eh           12397.67002 eV

Virial components:
Potential Energy   :      -1463.55526317877047 Eh          -39825.36339 eV
Kinetic Energy     :        731.34829808619259 Eh           19900.99894 eV
Virial Ratio       :          2.00117408765240

DFT components:
N(Alpha)           :       24.000001532390 electrons
N(Beta)            :       24.000001532390 electrons
N(Total)           :       48.000003064780 electrons
E(X)               :      -57.154158636312 Eh       
E(C)               :       -1.633776258565 Eh       
E(XC)              :      -58.787934894877 Eh       

---------------
SCF CONVERGENCE
---------------

  Last Energy change         ...   -1.5734e-10  Tolerance :   1.0000e-08
  Last MAX-Density change    ...    1.0817e-05  Tolerance :   1.0000e-07
  Last RMS-Density change    ...    2.4848e-06  Tolerance :   5.0000e-09
  Last DIIS Error            ...    2.4368e-03  Tolerance :   5.0000e-07
  Last Orbital Gradient      ...    1.8637e-06  Tolerance :   1.0000e-05
  Last Orbital Rotation      ...    4.5556e-06  Tolerance :   1.0000e-05


----------------
ORBITAL ENERGIES
----------------

  NO   OCC          E(Eh)            E(eV) 
   0   2.0000     -55.380882     -1506.9904 
   1   2.0000     -55.380742     -1506.9866 
   2   2.0000     -55.378847     -1506.9350 
   3   2.0000      -3.954315      -107.6024 
   4   2.0000      -3.954162      -107.5982 
   5   2.0000      -3.951887      -107.5363 
   6   2.0000      -2.558841       -69.6296 
   7   2.0000      -2.558687       -69.6254 
   8   2.0000      -2.556526       -69.5666 
   9   2.0000      -2.556369       -69.5623 
  10   2.0000      -2.556187       -69.5574 
  11   2.0000      -2.553997       -69.4978 
  12   2.0000      -2.552506       -69.4572 
  13   2.0000      -2.552346       -69.4529 
  14   2.0000      -2.549920       -69.3869 
  15   2.0000      -0.506365       -13.7789 
  16   2.0000      -0.418710       -11.3937 
  17   2.0000      -0.418018       -11.3748 
  18   2.0000      -0.328823        -8.9477 
  19   2.0000      -0.323373        -8.7994 
  20   2.0000      -0.306092        -8.3292 
  21   2.0000      -0.282876        -7.6974 
  22   2.0000      -0.269505        -7.3336 
  23   2.0000      -0.262577        -7.1451 
  24   0.0000      -0.079614        -2.1664 
  25   0.0000      -0.072088        -1.9616 
  26   0.0000      -0.064664        -1.7596 
  27   0.0000      -0.053691        -1.4610 
  28   0.0000      -0.045762        -1.2453 
  29   0.0000       0.006831         0.1859 
  30   0.0000       0.012576         0.3422 
  31   0.0000       0.043055         1.1716 
  32   0.0000       0.046226         1.2579 
  33   0.0000       0.054577         1.4851 
  34   0.0000       0.070884         1.9289 
*Only the first 10 virtual orbitals were printed.
-------
TIMINGS
-------

Total SCF time: 0 days 0 hours 0 min 3 sec 

Total time                  ....       3.243 sec
Sum of individual times     ....       2.981 sec  ( 91.9%)

SCF preparation             ....       0.614 sec  ( 18.9%)
Fock matrix formation       ....       2.048 sec  ( 63.1%)
  Startup                   ....       0.008 sec  (  0.4% of F)
  Split-RI-J                ....       0.497 sec  ( 24.3% of F)
  XC integration            ....       1.517 sec  ( 74.1% of F)
    XC Preparation          ....       0.000 sec  (  0.0% of XC)
    Basis function eval.    ....       0.440 sec  ( 29.0% of XC)
    Density eval.           ....       0.172 sec  ( 11.3% of XC)
    XC-Functional eval.     ....       0.079 sec  (  5.2% of XC)
    XC-Potential eval.      ....       0.156 sec  ( 10.3% of XC)
Diagonalization             ....       0.000 sec  (  0.0%)
Density matrix formation    ....       0.042 sec  (  1.3%)
Total Energy calculation    ....       0.027 sec  (  0.8%)
Population analysis         ....       0.000 sec  (  0.0%)
Orbital Transformation      ....       0.024 sec  (  0.7%)
Orbital Orthonormalization  ....       0.000 sec  (  0.0%)
DIIS solution               ....       0.119 sec  (  3.7%)
SOSCF solution              ....       0.107 sec  (  3.3%)
Finished LeanSCF after   3.3 sec

Maximum memory used throughout the entire LEANSCF-calculation: 7.6 MB


           ************************************************************
           *        Program running with 24 parallel MPI-processes    *
           *              working on a common directory               *
           ************************************************************

------------------------------------------------------------------------------
                         ORCA PROPERTY INTEGRAL CALCULATIONS
------------------------------------------------------------------------------

GBWName                                   ... run.gbw
Number of atoms                           ...     12
Number of basis functions                 ...     99
Max core memory                           ...   4096 MB

Dipole integrals                          ... YES
Quadrupole integrals                      ...  NO
Linear momentum integrals                 ...  NO
Angular momentum integrals                ...  NO
Higher moments length integrals           ...  NO
Higher moments velocity integrals         ...  NO
Kinetic energy integrals                  ...  NO
GIAO right hand sides                     ...  NO
GIAO dipole derivative integrals          ...  NO
SOC integrals                             ...  NO
EPR diamagnetic integrals (GIAO)          ...  NO
EPR gauge integrals                       ...  NO
Field gradient integrals                  ...  NO (   0 nuclei)
Spin-dipole/Fermi contact integrals       ...  NO (   0 nuclei)
Contact density integrals                 ...  NO (   0 nuclei)
Nucleus-orbit integrals                   ...  NO (   0 nuclei)
Geometric perturbations                   ...  NO (  12 nuclei)

Choice of electric origin   ... Center of mass
Position of electric origin ... (  0.0148,  0.0019,  3.2059) 
Choice of magnetic origin   ... GIAO
Position of magnetic origin ... (  0.0000,  0.0000,  0.0000) 

Calculating integrals                     ... Electric Dipole (Length)     done (  0.0 sec)

Property integrals calculated in   0.0 sec

Maximum memory used throughout the entire PROPINT-calculation: 8.0 MB


-------------------------------------------------------------------------------
                          DFT DISPERSION CORRECTION                            
                                                                               
                              DFTD3 V3.1  Rev 1                                
                          USING Becke-Johnson damping                          
-------------------------------------------------------------------------------
The PBE functional is recognized
Active option DFTDOPT                   ...         4   

molecular C6(AA) [au] = 2779.970111 


            DFT-D V3
 parameters
 s6 scaling factor         :     1.0000 
 a1 scaling factor         :     0.4289 
 s8 scaling factor         :     0.7875 
 a2 scaling factor         :     4.4407 
 ad hoc parameters k1-k3   :    16.0000     1.3333    -4.0000 

 Edisp/kcal,au: -5.590729269330  -0.008909393251 
 E6   /kcal   :  -3.510396135 
 E8   /kcal   :  -2.080333134 
 % E8         :  37.210407332 

-------------------------   ----------------
Dispersion correction           -0.008909393
-------------------------   ----------------


-------------------------   --------------------
FINAL SINGLE POINT ENERGY      -732.215874485829
-------------------------   --------------------



           ************************************************************
           *        Program running with 24 parallel MPI-processes    *
           *              working on a common directory               *
           ************************************************************
------------------------------------------------------------------------------
                         ORCA SCF GRADIENT CALCULATION
------------------------------------------------------------------------------

Nuc. rep. gradient        (SHARK) ... done (  0.0 sec)
HCore & Overlap gradient  (SHARK) ... done (  0.0 sec)
Split-RIJ-J gradient      (SHARK) ... done (  0.4 sec)
XC gradient                       ... done (  0.6 sec)
Dispersion correction             ... done (  0.1 sec)

-------------------
DISPERSION GRADIENT
-------------------

   1   Al  :   -0.000053891    0.000283450    0.000170977
   2   Al  :   -0.000001807   -0.000000017   -0.000334378
   3   H   :    0.000072920   -0.000099184   -0.000063088
   4   H   :   -0.000063591   -0.000031399   -0.000153938
   5   H   :   -0.000073568    0.000099117   -0.000062768
   6   H   :   -0.000068641    0.000104033    0.000072993
   7   H   :   -0.000000780   -0.000000076    0.000140641
   8   H   :    0.000062017    0.000030853   -0.000154537
   9   Al  :    0.000055132   -0.000283465    0.000171765
  10   H   :    0.000070265   -0.000103674    0.000073170
  11   H   :   -0.000068105   -0.000161880    0.000069746
  12   H   :    0.000070050    0.000162239    0.000069418

Difference to translation invariance:
           :    0.0000000000   -0.0000000000    0.0000000000

Difference to rotation invariance:
           :   -0.0000000000   -0.0000000000    0.0000000000

Norm of the Dispersion gradient    ...    0.0007525580
RMS gradient                       ...    0.0001254263
MAX gradient                       ...    0.0003343778

------------------
CARTESIAN GRADIENT
------------------

   1   Al  :   -0.003869343   -0.024152897   -0.010579895
   2   Al  :    0.000024986    0.000101811    0.029572273
   3   H   :   -0.000110403   -0.006634433   -0.004749107
   4   H   :    0.004691787    0.002323304   -0.008008595
   5   H   :    0.000218055    0.006510809   -0.004813055
   6   H   :    0.006187746    0.007797256    0.001796142
   7   H   :    0.000129933   -0.000033618    0.005235247
   8   H   :   -0.004723184   -0.002352332   -0.007951694
   9   Al  :    0.003090213    0.024172428   -0.010721181
  10   H   :   -0.006007533   -0.007893459    0.001882097
  11   H   :    0.004311173   -0.007220211    0.004166186
  12   H   :   -0.003943431    0.007381344    0.004171581

Difference to translation invariance:
           :    0.0000000000   -0.0000000000   -0.0000000000

Difference to rotation invariance:
           :    0.0000005787    0.0000010953    0.0000177198

Norm of the Cartesian gradient     ...    0.0549144050
RMS gradient                       ...    0.0091524008
MAX gradient                       ...    0.0295722733

-------
TIMINGS
-------

Total SCF gradient time     ....        1.186 sec

Densities                   ....       0.001 sec  (  0.1%)
One electron gradient       ....       0.047 sec  (  3.9%)
RI-J Coulomb gradient       ....       0.371 sec  ( 31.2%)
XC gradient                 ....       0.641 sec  ( 54.0%)

Maximum memory used throughout the entire SCFGRAD-calculation: 27.8 MB
------------------------------------------------------------------------------
                         ORCA GEOMETRY RELAXATION STEP
------------------------------------------------------------------------------

Reading the OPT-File                    .... done
Getting information on internals        .... done
Copying old internal coords+grads       .... done
Making the new internal coordinates     .... (2022 redundants) done
Validating the new internal coordinates .... (2022 redundants) done
Calculating the B-matrix                .... done
Calculating the G,G- and P matrices     .... done
Transforming gradient to internals      .... done
Projecting the internal gradient        .... done
Number of atoms                         ....  12
Number of internal coordinates          .... 117
Current Energy                          ....  -732.215874486 Eh
Current gradient norm                   ....     0.054914405 Eh/bohr
Maximum allowed component of the step   ....  0.300
Current trust radius                    ....  0.300
Evaluating the initial hessian          ....  (Almloef) done
Projecting the Hessian                  .... done
Forming the augmented Hessian           .... done
Diagonalizing the augmented Hessian     .... done
Last element of RFO vector              ....  0.984005916
Lowest eigenvalues of augmented Hessian:
 -0.004730309  0.019328296  0.022625610  0.029753865  0.065488578
Length of the computed step             ....  0.181031214
The final length of the internal step   ....  0.181031214
Converting the step to Cartesian space:
 Initial RMS(Int)=    0.0167363416
Transforming coordinates:
 Iter   0:  RMS(Cart)=    0.0233134126 RMS(Int)=    0.0167489552
done
Storing new coordinates                 .... done

                                .--------------------.
          ----------------------|Geometry convergence|-------------------------
          Item                value                   Tolerance       Converged
          ---------------------------------------------------------------------
          RMS gradient        0.0027765742            0.0000300000      NO
          MAX gradient        0.0108217039            0.0001000000      NO
          RMS step            0.0167363416            0.0006000000      NO
          MAX step            0.0438072658            0.0010000000      NO
          -------------------------------------------------------------------------
          ........................................................
          Max(Bonds)      0.0122      Max(Angles)    2.51
          Max(Dihed)        2.46      Max(Improp)    0.00
          ---------------------------------------------------------------------

The optimization has not yet converged - more geometry cycles are needed


    ---------------------------------------------------------------------------
                         Redundant Internal Coordinates
                            (Angstroem and degrees)

        Definition                    Value    dE/dq     Step     New-Value
    ----------------------------------------------------------------------------
     1. B(Al  1,Al  0)                2.9515 -0.002997  0.0114    2.9629   
     2. B(H   2,Al  1)                1.7070 -0.000539  0.0020    1.7090   
     3. B(H   3,Al  1)                1.5960  0.000354 -0.0005    1.5955   
     4. B(H   4,Al  1)                1.7066 -0.000197  0.0021    1.7086   
     5. B(H   4,Al  0)                1.7046  0.000616  0.0013    1.7058   
     6. B(H   5,Al  0)                1.5961  0.000726 -0.0010    1.5952   
     7. B(H   6,Al  0)                1.7042  0.000846  0.0006    1.7048   
     8. B(H   7,Al  1)                1.5961  0.000391 -0.0005    1.5955   
     9. B(Al  8,H   6)                1.7043  0.000840  0.0007    1.7050   
    10. B(Al  8,H   2)                1.7046  0.000072  0.0016    1.7062   
    11. B(Al  8,Al  1)                2.9546 -0.004182  0.0122    2.9668   
    12. B(Al  8,Al  0)                2.9840 -0.002569  0.0103    2.9943   
    13. B(H   9,Al  8)                1.5963  0.000742 -0.0010    1.5953   
    14. B(H  10,Al  8)                1.5968  0.000096 -0.0001    1.5967   
    15. B(H  11,Al  0)                1.5977  0.000303 -0.0004    1.5973   
    16. A(H   4,Al  0,H   6)          109.76  0.001920   -1.04    108.71   
    17. A(Al  1,Al  0,H   4)           30.11  0.000967   -0.28     29.83   
    18. A(Al  1,Al  0,Al  8)           59.70 -0.000291    0.03     59.74   
    19. A(Al  8,Al  0,H  11)          109.87  0.003423   -0.81    109.06   
    20. A(H   4,Al  0,H   5)          109.64  0.000994   -0.59    109.04   
    21. A(H   6,Al  0,H  11)          109.08  0.001926   -0.35    108.74   
    22. A(Al  1,Al  0,H   5)          138.88  0.002275   -0.89    137.99   
    23. A(Al  1,Al  0,H  11)           97.69  0.003450   -0.94     96.75   
    24. A(H   5,Al  0,H  11)          109.62 -0.007491    2.45    112.08   
    25. A(H   5,Al  0,H   6)          109.61  0.000762   -0.50    109.11   
    26. A(H   4,Al  0,Al  8)           82.90  0.000815   -0.67     82.23   
    27. A(Al  1,Al  0,H   6)           88.60  0.001006   -0.29     88.31   
    28. A(H   5,Al  0,Al  8)          131.19  0.002896   -1.17    130.01   
    29. A(H   4,Al  0,H  11)          109.12  0.001874    0.03    109.15   
    30. A(H   6,Al  0,Al  8)           28.90  0.001299   -0.32     28.58   
    31. A(H   2,Al  1,H   7)          109.17  0.003312   -0.53    108.64   
    32. A(H   3,Al  1,H   4)          109.18  0.001870   -0.59    108.59   
    33. A(Al  0,Al  1,H   3)          132.23  0.003276   -0.77    131.46   
    34. A(H   2,Al  1,H   4)          111.19  0.002726   -1.19    109.99   
    35. A(H   4,Al  1,Al  8)           83.80  0.001408   -0.75     83.05   
    36. A(H   3,Al  1,Al  8)          108.69  0.002423   -1.07    107.62   
    37. A(H   2,Al  1,H   3)          108.82  0.000186   -0.02    108.80   
    38. A(H   2,Al  1,Al  8)           29.98  0.001226   -0.31     29.67   
    39. A(Al  0,Al  1,Al  8)           60.69  0.000220   -0.04     60.66   
    40. A(H   7,Al  1,Al  8)          132.30  0.005051   -0.83    131.47   
    41. A(Al  0,Al  1,H   4)           30.07  0.001112   -0.29     29.78   
    42. A(H   4,Al  1,H   7)          108.82 -0.000024    0.05    108.87   
    43. A(Al  0,Al  1,H   7)          108.87  0.003255   -1.16    107.71   
    44. A(Al  0,Al  1,H   2)           83.63  0.001447   -0.68     82.95   
    45. A(H   3,Al  1,H   7)          109.64 -0.008269    2.35    111.99   
    46. A(Al  1,H   2,Al  8)          120.00 -0.002344    0.61    120.61   
    47. A(Al  0,H   4,Al  1)          119.83 -0.002079    0.57    120.39   
    48. A(Al  0,H   6,Al  8)          122.20 -0.002599    0.64    122.84   
    49. A(Al  1,Al  8,H   2)           30.02  0.001118   -0.30     29.72   
    50. A(Al  0,Al  8,H   2)           82.65  0.001226   -0.64     82.01   
    51. A(Al  0,Al  8,Al  1)           59.60  0.000071    0.00     59.61   
    52. A(H   6,Al  8,H  10)          109.11  0.002485   -0.40    108.71   
    53. A(H   2,Al  8,H  10)          109.11  0.001437   -0.02    109.09   
    54. A(Al  1,Al  8,H  10)           98.13  0.003328   -0.90     97.23   
    55. A(Al  0,Al  8,H  10)          110.98  0.004154   -0.85    110.13   
    56. A(H   6,Al  8,H   9)          109.53  0.002130   -0.50    109.03   
    57. A(H   9,Al  8,H  10)          109.63 -0.010822    2.51    112.14   
    58. A(H   2,Al  8,H   9)          109.57  0.002305   -0.59    108.98   
    59. A(Al  1,Al  8,H   9)          138.61  0.004172   -0.94    137.67   
    60. A(Al  0,Al  8,H   9)          130.29  0.005083   -1.21    129.08   
    61. A(H   2,Al  8,H   6)          109.87  0.002411   -0.99    108.88   
    62. A(Al  1,Al  8,H   6)           88.50  0.001369   -0.32     88.18   
    63. A(Al  0,Al  8,H   6)           28.90  0.001300   -0.32     28.58   
    64. D(H   2,Al  1,Al  0,H   4)   -156.71 -0.001435    1.24   -155.46   
    65. D(H   3,Al  1,Al  0,H   6)     88.73  0.001740   -1.15     87.58   
    66. D(H   3,Al  1,Al  0,H   5)    -30.12 -0.002182    0.57    -29.55   
    67. D(H   3,Al  1,Al  0,Al  8)     89.25  0.001877   -1.16     88.09   
    68. D(H   2,Al  1,Al  0,Al  8)    -20.46 -0.000390   -0.34    -20.80   
    69. D(H   3,Al  1,Al  0,H   4)    -47.00  0.000832    0.43    -46.57   
    70. D(H   2,Al  1,Al  0,H   6)    -20.97 -0.000528   -0.34    -21.31   
    71. D(H   2,Al  1,Al  0,H   5)   -139.83 -0.004449    1.39   -138.44   
    72. D(H   2,Al  1,Al  0,H  11)     88.09  0.001624   -0.75     87.35   
    73. D(H   3,Al  1,Al  0,H  11)   -162.20  0.003892   -1.56   -163.76   
    74. D(Al  8,H   2,Al  1,H   7)    145.40  0.003169   -0.35    145.05   
    75. D(Al  8,H   2,Al  1,H   3)    -94.97 -0.004789    2.17    -92.80   
    76. D(Al  8,H   2,Al  1,Al  0)     37.60 -0.000735    1.10     38.70   
    77. D(Al  8,H   2,Al  1,H   4)     25.33 -0.000658    0.68     26.01   
    78. D(Al  1,H   4,Al  0,H   5)   -168.31 -0.002522    0.27   -168.04   
    79. D(Al  0,H   4,Al  1,H   7)    -95.35 -0.006765    2.46    -92.89   
    80. D(Al  0,H   4,Al  1,Al  8)     37.35 -0.000855    1.31     38.65   
    81. D(Al  0,H   4,Al  1,H   3)    145.01  0.002169   -0.07    144.95   
    82. D(Al  0,H   4,Al  1,H   2)     24.93 -0.000984    1.09     26.02   
    83. D(Al  1,H   4,Al  0,H  11)     71.62  0.004886   -2.40     69.23   
    84. D(Al  1,H   4,Al  0,Al  8)    -37.00  0.001027   -1.32    -38.32   
    85. D(Al  1,H   4,Al  0,H   6)    -47.86  0.000240   -1.37    -49.23   
    86. D(Al  8,H   6,Al  0,H   4)     22.76  0.000777    0.31     23.07   
    87. D(Al  8,H   6,Al  0,Al  1)      0.92  0.000205    0.00      0.92   
    88. D(Al  8,H   6,Al  0,H   5)    143.22  0.003678   -1.38    141.84   
    89. D(Al  8,H   6,Al  0,H  11)    -96.74 -0.003837    1.11    -95.64   
    90. D(Al  1,Al  8,Al  0,H  11)    -87.35 -0.002042    0.65    -86.70   
    91. D(Al  1,Al  8,Al  0,H   6)    178.94 -0.000241   -0.00    178.94   
    92. D(Al  1,Al  8,Al  0,H   5)    130.40  0.002769   -1.14    129.27   
    93. D(H   2,Al  8,Al  0,Al  1)     20.53  0.000322    0.35     20.88   
    94. D(Al  1,Al  8,Al  0,H   4)     20.46  0.000177    0.47     20.93   
    95. D(H   9,Al  8,H   6,Al  0)    140.99  0.006153   -1.45    139.54   
    96. D(H   2,Al  8,H   6,Al  0)     20.58  0.000473    0.20     20.79   
    97. D(Al  1,Al  8,H   6,Al  0)     -0.92 -0.000208   -0.00     -0.92   
    98. D(H  10,Al  8,H   2,Al  1)     72.51  0.005557   -2.21     70.30   
    99. D(H   9,Al  8,H   2,Al  1)   -167.45 -0.005393    0.49   -166.96   
   100. D(H   6,Al  8,H   2,Al  1)    -47.07  0.000184   -1.11    -48.19   
   101. D(H   6,Al  8,Al  1,H   2)    136.46  0.001024   -1.33    135.13   
   102. D(H   6,Al  8,Al  1,Al  0)      0.51  0.000137   -0.00      0.51   
   103. D(H   2,Al  8,Al  1,H   7)    -46.47  0.001212    0.06    -46.41   
   104. D(H   2,Al  8,Al  1,H   4)   -156.34 -0.001139    0.87   -155.47   
   105. D(H   2,Al  8,Al  1,H   3)     95.47 -0.003555    1.73     97.20   
   106. D(H   2,Al  8,Al  1,Al  0)   -135.95 -0.000887    1.33   -134.62   
   107. D(Al  0,Al  8,Al  1,H   7)     89.47  0.002099   -1.26     88.21   
   108. D(Al  0,Al  8,Al  1,H   4)    -20.40 -0.000251   -0.46    -20.86   
   109. D(Al  0,Al  8,H   2,Al  1)    -37.21  0.000785   -1.11    -38.32   
   110. D(Al  0,Al  8,Al  1,H   3)   -128.59 -0.002668    0.40   -128.19   
   111. D(Al  0,Al  8,Al  1,H   2)    135.95  0.000887   -1.33    134.62   
   112. D(H   6,Al  8,Al  0,Al  1)   -178.94  0.000241    0.00   -178.94   
   113. D(H   2,Al  8,Al  0,H  11)    -66.82 -0.001720    1.00    -65.82   
   114. D(H   2,Al  8,Al  0,H   6)   -160.53  0.000081    0.35   -160.18   
   115. D(H   2,Al  8,Al  0,H   5)    150.94  0.003091   -0.79    150.15   
   116. D(H  10,Al  8,H   6,Al  0)    -99.00 -0.004261    1.07    -97.93   
   117. D(H   2,Al  8,Al  0,H   4)     41.00  0.000500    0.82     41.82   
    ----------------------------------------------------------------------------

Geometry step timings:
Preparation and reading OPT file:      0.000 s ( 0.284 %)
Internal coordinates            :      0.000 s ( 0.409 %)
B/P matrices and projection     :      0.002 s (11.946 %)
Hessian update/contruction      :      0.001 s ( 6.395 %)
Making the step                 :      0.009 s (61.734 %)
Converting the step to Cartesian:      0.001 s ( 3.841 %)
Storing new data                :      0.000 s ( 0.752 %)
Checking convergence            :      0.000 s ( 0.812 %)
Final printing                  :      0.002 s (13.807 %)
Total time                      :      0.015 s

Time for energy+gradient        :     12.343 s
Time for complete geometry iter :     13.111 s

         *************************************************************
         *                GEOMETRY OPTIMIZATION CYCLE   2            *
         *************************************************************
---------------------------------
CARTESIAN COORDINATES (ANGSTROEM)
---------------------------------
  Al    -0.284477    1.468905    2.548342
  Al     0.000211    0.000175   -0.009077
  H      0.844579   -1.117658    0.969843
  H     -1.062951   -0.793494   -0.895309
  H     -0.837137    1.120347    0.972570
  H     -1.411218    2.288384    3.325196
  H      0.000207    0.000058    3.365407
  H      1.055766    0.790364   -0.907504
  Al     0.307848   -1.466223    2.551527
  H      1.455254   -2.259498    3.325579
  H     -1.050644   -2.301162    2.469529
  H      1.089501    2.278113    2.454256

----------------------------
CARTESIAN COORDINATES (A.U.)
----------------------------
  NO LB      ZA    FRAG     MASS         X           Y           Z
   0 Al   13.0000    0    26.982   -0.537583    2.775828    4.815668
   1 Al   13.0000    0    26.982    0.000398    0.000331   -0.017153
   2 H     1.0000    0     1.008    1.596023   -2.112068    1.832738
   3 H     1.0000    0     1.008   -2.008686   -1.499487   -1.691888
   4 H     1.0000    0     1.008   -1.581959    2.117150    1.837891
   5 H     1.0000    0     1.008   -2.666815    4.324419    6.283710
   6 H     1.0000    0     1.008    0.000392    0.000110    6.359698
   7 H     1.0000    0     1.008    1.995108    1.493571   -1.714933
   8 Al   13.0000    0    26.982    0.581749   -2.770761    4.821688
   9 H     1.0000    0     1.008    2.750031   -4.269832    6.284434
  10 H     1.0000    0     1.008   -1.985430   -4.348565    4.666733
  11 H     1.0000    0     1.008    2.058858    4.305009    4.637871

--------------------------------
INTERNAL COORDINATES (ANGSTROEM)
--------------------------------
 Al     0   0   0     0.000000000000     0.00000000     0.00000000
 Al     1   0   0     2.962870743069     0.00000000     0.00000000
 H      2   1   0     1.709033107043    82.95178859     0.00000000
 H      2   1   3     1.595503253343   131.45306943   108.88720326
 H      1   2   3     1.705866945033    29.83205397   204.54631905
 H      1   2   3     1.595178355500   137.97778494   221.54976854
 H      1   2   3     1.704744140573    88.31175041   338.69517183
 H      2   1   3     1.595545407316   107.70379513   252.62764598
 Al     7   1   2     1.704999935216   122.84239727     0.92052051
 H      9   7   1     1.595299254733   109.01396490   139.54590397
 H      9   7   1     1.596667731210   108.70560677   262.05922732
 H      1   2   3     1.597336417325    96.75568900    87.35674620

---------------------------
INTERNAL COORDINATES (A.U.)
---------------------------
 Al     0   0   0     0.000000000000     0.00000000     0.00000000
 Al     1   0   0     5.599014274608     0.00000000     0.00000000
 H      2   1   0     3.229604526116    82.95178859     0.00000000
 H      2   1   3     3.015064194599   131.45306943   108.88720326
 H      1   2   3     3.223621347021    29.83205397   204.54631905
 H      1   2   3     3.014450226654   137.97778494   221.54976854
 H      1   2   3     3.221499554090    88.31175041   338.69517183
 H      2   1   3     3.015143854063   107.70379513   252.62764598
 Al     7   1   2     3.221982935911   122.84239727     0.92052051
 H      9   7   1     3.014678693094   109.01396490   139.54590397
 H      9   7   1     3.017264738856   108.70560677   262.05922732
 H      1   2   3     3.018528372483    96.75568900    87.35674620



           ************************************************************
           *        Program running with 24 parallel MPI-processes    *
           *              working on a common directory               *
           ************************************************************
------------------------------------------------------------------------------
                   ___                                                        
                  /   \      - P O W E R E D   B Y -                         
                 /     \                                                     
                 |  |  |   _    _      __       _____    __    __             
                 |  |  |  | |  | |    /  \     |  _  \  |  |  /  |          
                  \  \/   | |  | |   /    \    | | | |  |  | /  /          
                 / \  \   | |__| |  /  /\  \   | |_| |  |  |/  /          
                |  |  |   |  __  | /  /__\  \  |    /   |      \           
                |  |  |   | |  | | |   __   |  |    \   |  |\   \          
                \     /   | |  | | |  |  |  |  | |\  \  |  | \   \       
                 \___/    |_|  |_| |__|  |__|  |_| \__\ |__|  \__/        
                                                                              
                      - O R C A' S   B I G   F R I E N D -                    
                                      &                                       
                       - I N T E G R A L  F E E D E R -                       
                                                                              
 v1 FN, 2020, v2 2021, v3 2022-2024                                           
------------------------------------------------------------------------------


----------------------
SHARK INTEGRAL PACKAGE
----------------------

Number of atoms                             ...     12
Number of basis functions                   ...     99
Number of shells                            ...     51
Maximum angular momentum                    ...      2
Integral batch strategy                     ... SHARK/LIBINT Hybrid
RI-J (if used) integral strategy            ... SPLIT-RIJ (Revised 2003 algorithm where possible)
Printlevel                                  ...      1
Contraction scheme used                     ... SEGMENTED contraction
Prescreening option                         ... SCHWARTZ
   Thresh                                   ... 2.500e-11
   Tcut                                     ... 2.500e-12
   Tpresel                                  ... 2.500e-12 
Coulomb Range Separation                    ... NOT USED
Exchange Range Separation                   ... NOT USED
Multipole approximations                    ... NOT USED
Finite Nucleus Model                        ... NOT USED
CABS basis                                  ... NOT available
Auxiliary Coulomb fitting basis             ... AVAILABLE
   # of basis functions in Aux-J            ...    252
   # of shells in Aux-J                     ...     96
   Maximum angular momentum in Aux-J        ...      4
Auxiliary J/K fitting basis                 ... NOT available
Auxiliary Correlation fitting basis         ... NOT available
Auxiliary 'external' fitting basis          ... NOT available

Checking pre-screening integrals            ... done (  0.0 sec) Dimension = 51
   => SHARK Basis and OBASIS are compatible. Storing Pre-screening
Shell pair information
Shell pair cut-off parameter TPreSel        ...   2.5e-12
Total number of shell pairs                 ...      1326
Shell pairs after pre-screening             ...      1262
Total number of primitive shell pairs       ...     13572
Primitive shell pairs kept                  ...      8155
          la=0 lb=0:    450 shell pairs
          la=1 lb=0:    511 shell pairs
          la=1 lb=1:    151 shell pairs
          la=2 lb=0:     90 shell pairs
          la=2 lb=1:     54 shell pairs
          la=2 lb=2:      6 shell pairs

Checking whether 4 symmetric matrices of dimension 99 fit in memory
:Max Core in MB      =   4096.00
 MB in use           =      5.65
 MB left             =   4090.35
 MB needed           =      0.15
 Data fit in memory  = YES
Calculating RI/J V-Matrix + Cholesky decomp.... done (  0.0 sec)
Calculating Nuclear repulsion               ... done (  0.0 sec) ENN=    173.050402444329 Eh

Diagonalization of the overlap matrix:
Smallest eigenvalue                        ... 6.799e-03
Time for diagonalization                   ...    0.003 sec
Threshold for overlap eigenvalues          ... 1.000e-07
Number of eigenvalues below threshold      ... 0
Time for construction of square roots      ...    0.001 sec
Total time needed                          ...    0.006 sec

-------------------
DFT GRID GENERATION
-------------------

General Integration Accuracy     IntAcc      ... 4.959
Radial Grid Type                 RadialGrid  ... OptM3 with GC (2021)
Angular Grid (max. ang.)         AngularGrid ... 6 (Lebedev-590)
Angular grid pruning method      GridPruning ... 4 (adaptive)
Weight generation scheme         WeightScheme... mBecke (2022)
Basis function cutoff            BFCut       ... 1.0000e-11
Integration weight cutoff        WCut        ... 1.0000e-14
Partially contracted basis set               ... off
Rotationally invariant grid construction     ... off
Angular grids for H and He will be reduced by one unit

Total number of grid points                  ...   128180
Total number of batches                      ...     2009
Average number of points per batch           ...       63
Average number of grid points per atom       ...    10682
Grids setup in   2.9 sec
Initializing property integral containers    ... done (  0.0 sec)

SHARK setup successfully completed in   3.1 seconds

Maximum memory used throughout the entire STARTUP-calculation: 27.3 MB


           ************************************************************
           *        Program running with 24 parallel MPI-processes    *
           *              working on a common directory               *
           ************************************************************
Occupation numbers will be reassigned to an Aufbau configuration
             **** ENERGY FILE WAS UPDATED (run.en.tmp) ****
Finished Guess after   0.6 sec
Maximum memory used throughout the entire GUESS-calculation: 7.9 MB


           ************************************************************
           *        Program running with 24 parallel MPI-processes    *
           *              working on a common directory               *
           ************************************************************
----------------------------------------D-I-I-S--------------------------------------------
Iteration    Energy (Eh)           Delta-E    RMSDP     MaxDP     DIISErr   Damp  Time(sec)
-------------------------------------------------------------------------------------------
               ***  Starting incremental Fock matrix formation  ***
                              *** Initializing SOSCF ***
---------------------------------------S-O-S-C-F--------------------------------------
Iteration    Energy (Eh)           Delta-E    RMSDP     MaxDP     MaxGrad    Time(sec)
--------------------------------------------------------------------------------------
[...]
      3       0.018793   0.023163  -0.000671   0.006898   0.000117   0.004299
      4      -0.014150  -0.017696   0.000656  -0.011624   0.000023  -0.005701
      5       0.007234  -0.005416   0.011847  -0.000297   0.021445   0.000425
      6      -0.681017  -0.315182  -0.516400  -0.045046  -0.066483  -0.020047
      7       0.115242   0.096799   0.241919   0.307552   0.342633   0.141270
      8       0.135015   0.070805   0.191817  -0.543669  -0.591847  -0.253115
      9      -0.010933  -0.074431   0.024507   0.051786  -0.111874   0.001089
     10       0.011169   0.047675  -0.033728  -0.033263  -0.072869  -0.014049
     11       0.027879   0.061250   0.014672  -0.000771  -0.033764  -0.011724
     12      -0.143431  -0.710232   0.549968  -0.041007   0.060173  -0.015250
     13       0.061046   0.129842  -0.252925   0.318350  -0.340421   0.128228
     14      -0.032679  -0.135576   0.195814   0.560579  -0.585491   0.230419
     15      -0.012702  -0.065447   0.018252  -0.040329   0.084328  -0.129525
     16      -0.053912   0.013967   0.012796   0.024297  -0.021962   0.028149
     17       0.032470  -0.130604   0.015083  -0.043639  -0.012758   0.082469
     18      -0.015500   0.000964   0.005465   0.051170   0.003491  -0.140125
     19      -0.002472  -0.001664   0.000392  -0.410014  -0.022890   0.858445
     20       0.659455  -0.547487  -0.468107   0.000414   0.017559  -0.000582
     21      -0.072588  -0.028186  -0.021181   0.049417   0.112620   0.006581
     22       0.045511   0.023044   0.031195  -0.034679   0.072317  -0.010416
     23      -0.053953  -0.038519   0.017284   0.000900  -0.035780   0.009883
     24       0.016113   0.005661   0.006833  -0.002805  -0.003088   0.000885
     25      -0.009454   0.012606   0.009323   0.001504  -0.005829  -0.020114
     26      -0.031203   0.003940  -0.003031   0.010874   0.012029   0.001243
     27      -0.062046  -0.026277  -0.014992  -0.038743  -0.081231  -0.132650
     28       0.022494  -0.048595  -0.010871   0.023507   0.020800   0.027210
     29       0.135119  -0.001941   0.011554   0.043401  -0.008329  -0.081795
     30      -0.005615   0.008326  -0.003022  -0.009728   0.063019   0.136400
     31       0.029707   0.032133   0.032500   0.019286   0.027958   0.033266
     32      -0.018437  -0.051996  -0.055644   0.038178   0.020538   0.005802
     33       0.008838  -0.001722   0.002593  -0.007955  -0.067715   0.133026
     34       0.026714   0.031994  -0.035840   0.019755  -0.027238   0.030505
     35       0.043734   0.028246  -0.057472  -0.038505   0.019788  -0.005921
                 30         31         32         33         34         35    
      0       0.004654  -0.004278  -0.001238   0.029688   0.023950  -0.021647
      1       0.014033  -0.007914   0.000645  -0.001738  -0.001297  -0.000838
      2       0.003009  -0.004338   0.003474  -0.010600  -0.008400   0.007099
      3      -0.000125   0.002770  -0.000387  -0.024541   0.006752  -0.027340
      4      -0.000224   0.005833  -0.000584  -0.017597   0.004848  -0.020434
      5      -0.005173  -0.001559  -0.017763   0.000105  -0.000569   0.000217
      6       0.005926   0.009346  -0.012451  -0.001199  -0.009121  -0.004858
      7      -0.045139  -0.050029   0.077059  -0.016574   0.017542  -0.003470
      8       0.082082   0.079941  -0.137098   0.023742  -0.031125   0.001818
      9       0.056344  -0.025098   0.500884   0.335634  -0.059224   0.368675
     10       0.041425  -0.017060   0.379600   0.256052  -0.044315   0.277865
     11       0.032032  -0.015053   0.293469   0.206312  -0.038402   0.220449
     12      -0.005744   0.009434   0.009655   0.003174   0.008390  -0.004859
     13       0.048915  -0.056725  -0.068740  -0.022756  -0.007218  -0.003428
     14       0.087784  -0.091744  -0.123022  -0.035297  -0.015407  -0.001611
     15       0.364102  -0.334683   0.026667  -0.443970  -0.334916   0.254477
     16      -0.178875   0.167821  -0.012962   0.226631   0.170905  -0.128291
     17      -0.203017   0.183341  -0.012351   0.250525   0.189574  -0.141395
     18      -0.001483   0.039534  -0.003004   0.012622  -0.003171  -0.007203
     19       0.009476  -0.254212   0.019318  -0.027202   0.005748   0.009564
     20      -0.000361   0.000141  -0.001751  -0.000897  -0.003274  -0.000045
     21      -0.051504  -0.101898  -0.485711   0.320020  -0.121098   0.367094
     22      -0.037849  -0.075204  -0.368662   0.243851  -0.093106   0.276775
     23       0.030072   0.061798   0.293594  -0.203766   0.074934  -0.226374
     24      -0.004225  -0.004091   0.001986   0.013568  -0.035647  -0.021857
     25      -0.013473  -0.008970   0.000590  -0.000676   0.001511  -0.001109
     26       0.002691   0.005081   0.002823   0.004835  -0.012344  -0.007053
     27      -0.340503  -0.365633   0.023178  -0.217391   0.515614   0.260144
     28       0.160716   0.176162  -0.011574   0.106893  -0.253426  -0.126301
     29      -0.187015  -0.196969   0.014774  -0.120299   0.286736   0.142135
     30       0.473586   0.470392  -0.100370  -0.149829   0.450088   0.331433
     31       0.212242   0.211220  -0.043628  -0.069826   0.208869   0.150865
     32       0.067962   0.070657  -0.015378  -0.018471   0.061618   0.046781
     33      -0.508857   0.448488   0.031471  -0.360025  -0.314207   0.331419
     34      -0.219902   0.193842   0.012143  -0.161408  -0.140510   0.145522
     35       0.076349  -0.070262  -0.005330   0.049687   0.045867  -0.048780


-----------
IR SPECTRUM
-----------

 Mode   freq       eps      Int      T**2         TX        TY        TZ
       cm**-1   L/(mol*cm) km/mol    a.u.
----------------------------------------------------------------------------
  7:    127.41   0.000237    1.20  0.000581  ( 0.000763  0.000029 -0.024095)
  8:    148.56   0.000037    0.19  0.000077  ( 0.008375  0.002674 -0.000016)
  9:    227.37   0.000478    2.42  0.000656  (-0.000044  0.000113 -0.025622)
 10:    290.88   0.001706    8.62  0.001830  (-0.035643  0.023655  0.000659)
 11:    314.99   0.000065    0.33  0.000064  (-0.000455  0.000100  0.007983)
 12:    415.15   0.000871    4.40  0.000655  (-0.022332  0.012485  0.000025)
 13:    429.70   0.000003    0.01  0.000002  (-0.000034  0.000088  0.001432)
 14:    440.51   0.002281   11.53  0.001616  ( 0.000175 -0.000478  0.040194)
 15:    488.23   0.000029    0.14  0.000018  (-0.004119  0.001068  0.000434)
 16:    509.39   0.011495   58.09  0.007042  (-0.067388  0.050008  0.000550)
 17:    575.94   0.026171  132.26  0.014180  (-0.000359 -0.000790  0.119077)
 18:    675.36   0.122766  620.41  0.056726  ( 0.008124  0.233189  0.047783)
 19:    675.66   0.095981  485.05  0.044330  (-0.000042 -0.054533  0.203362)
 20:    710.65   0.000108    0.55  0.000048  ( 0.000527  0.000443  0.006858)
 21:    732.68   0.036537  184.64  0.015562  (-0.075810  0.099027 -0.002927)
 22:    753.25   0.037361  188.81  0.015478  (-0.056451 -0.109493 -0.017407)
 23:    757.15   0.032839  165.96  0.013535  (-0.009247 -0.013405  0.115194)
 24:   1057.89   0.043365  219.15  0.012792  ( 0.069341 -0.026818 -0.085234)
 25:   1059.78   0.044327  224.01  0.013052  ( 0.084798 -0.034232  0.068484)
 26:   1111.46   0.000124    0.63  0.000035  (-0.003179  0.001241  0.004823)
 27:   1728.52   0.006307   31.87  0.001139  ( 0.005680 -0.033152 -0.002706)
 28:   1786.22   0.211260  1067.62  0.036908  ( 0.000571  0.003327  0.192086)
 29:   1806.18   0.216611  1094.66  0.037425  ( 0.026839 -0.191541  0.004070)
 30:   1917.20   0.000051    0.26  0.000008  ( 0.000450  0.000168 -0.002849)
 31:   1919.33   0.000870    4.40  0.000141  (-0.009442 -0.007096 -0.001406)
 32:   1919.79   0.001443    7.29  0.000235  ( 0.000659  0.000086 -0.015303)
 33:   1931.80   0.011329   57.25  0.001830  ( 0.029549 -0.029693 -0.008679)
 34:   1931.86   0.007282   36.80  0.001176  (-0.007871  0.007544 -0.032519)
 35:   1939.54   0.084138  425.20  0.013538  (-0.110786 -0.035552  0.000395)

* The epsilon (eps) is given for a Dirac delta lineshape.
** The dipole moment derivative (T) already includes vibrational overlap.

The first frequency considered to be a vibration is 7
The total number of vibrations considered is 29


--------------------------
THERMOCHEMISTRY AT 298.15K
--------------------------

Temperature         ...   298.15 K
Pressure            ...     1.00 atm
Total Mass          ...    90.02 AMU
Quasi RRHO          ...     True
Cut-Off Frequency   ...     1.00 cm^-1

Throughout the following assumptions are being made:
  (1) The electronic state is orbitally nondegenerate
  (2) There are no thermally accessible electronically excited states
  (3) Hindered rotations indicated by low frequency modes are not
      treated as such but are treated as vibrations and this may
      cause some error
  (4) All equations used are the standard statistical mechanics
      equations for an ideal gas
  (5) All vibrations are strictly harmonic

freq.     127.41  E(vib)   ...       0.43 
freq.     148.56  E(vib)   ...       0.41 
freq.     227.37  E(vib)   ...       0.33 
freq.     290.88  E(vib)   ...       0.27 
freq.     314.99  E(vib)   ...       0.25 
freq.     415.15  E(vib)   ...       0.19 
freq.     429.70  E(vib)   ...       0.18 
freq.     440.51  E(vib)   ...       0.17 
freq.     488.23  E(vib)   ...       0.15 
freq.     509.39  E(vib)   ...       0.14 
freq.     575.94  E(vib)   ...       0.11 
freq.     675.36  E(vib)   ...       0.08 
freq.     675.66  E(vib)   ...       0.08 
freq.     710.65  E(vib)   ...       0.07 
freq.     732.68  E(vib)   ...       0.06 
freq.     753.25  E(vib)   ...       0.06 
freq.     757.15  E(vib)   ...       0.06 
freq.    1057.89  E(vib)   ...       0.02 
freq.    1059.78  E(vib)   ...       0.02 
freq.    1111.46  E(vib)   ...       0.01 
freq.    1728.52  E(vib)   ...       0.00 
freq.    1786.22  E(vib)   ...       0.00 
freq.    1806.18  E(vib)   ...       0.00 
freq.    1917.20  E(vib)   ...       0.00 
freq.    1919.33  E(vib)   ...       0.00 
freq.    1919.79  E(vib)   ...       0.00 
freq.    1931.80  E(vib)   ...       0.00 
freq.    1931.86  E(vib)   ...       0.00 
freq.    1939.54  E(vib)   ...       0.00 

------------
INNER ENERGY
------------

The inner energy is: U= E(el) + E(ZPE) + E(vib) + E(rot) + E(trans)
    E(el)   - is the total energy from the electronic structure calculation
              = E(kin-el) + E(nuc-el) + E(el-el) + E(nuc-nuc)
    E(ZPE)  - the the zero temperature vibrational energy from the frequency calculation
    E(vib)  - the the finite temperature correction to E(ZPE) due to population
              of excited vibrational states
    E(rot)  - is the rotational thermal energy
    E(trans)- is the translational thermal energy

Summary of contributions to the inner energy U:
Electronic energy                ...   -732.23631663 Eh
Zero point energy                ...      0.06465996 Eh      40.57 kcal/mol
Thermal vibrational correction   ...      0.00488561 Eh       3.07 kcal/mol
Thermal rotational correction    ...      0.00141627 Eh       0.89 kcal/mol
Thermal translational correction ...      0.00141627 Eh       0.89 kcal/mol
-----------------------------------------------------------------------
Total thermal energy                   -732.16393851 Eh


Summary of corrections to the electronic energy:
(perhaps to be used in another calculation)
Total thermal correction                  0.00771815 Eh       4.84 kcal/mol
Non-thermal (ZPE) correction              0.06465996 Eh      40.57 kcal/mol
-----------------------------------------------------------------------
Total correction                          0.07237811 Eh      45.42 kcal/mol


--------
ENTHALPY
--------

The enthalpy is H = U + kB*T
                kB is Boltzmann's constant
Total thermal energy              ...   -732.16393851 Eh 
Thermal Enthalpy correction       ...      0.00094421 Eh       0.59 kcal/mol
-----------------------------------------------------------------------
Total Enthalpy                    ...   -732.16299430 Eh


Note: Only C1 symmetry has been detected, increase convergence thresholds 
      if your molecule has a higher symmetry. Symmetry factor of 1.0 is   
      used for the rotational entropy correction. 
 

Note: Rotational entropy computed according to Herzberg 
Infrared and Raman Spectra, Chapter V,1, Van Nostrand Reinhold, 1945 
Point Group:  C1, Symmetry Number:   1  
Rotational constants in cm-1:     0.103830     0.103295     0.055725 

Vibrational entropy computed according to the QRRHO of S. Grimme
Chem.Eur.J. 2012 18 9955 using a reference frequency of 100.0 cm-1


-------
ENTROPY
-------

The entropy contributions are T*S = T*(S(el)+S(vib)+S(rot)+S(trans))
     S(el)   - electronic entropy
     S(vib)  - vibrational entropy
     S(rot)  - rotational entropy
     S(trans)- translational entropy
The entropies will be listed as multiplied by the temperature to get
units of energy

Electronic entropy                ...      0.00000000 Eh      0.00 kcal/mol
Vibrational entropy               ...      0.00790166 Eh      4.96 kcal/mol
Rotational entropy                ...      0.01301490 Eh      8.17 kcal/mol
Translational entropy             ...      0.01872231 Eh     11.75 kcal/mol
-----------------------------------------------------------------------
Final entropy term                ...      0.03963886 Eh     24.87 kcal/mol

In case the symmetry of your molecule has not been determined correctly
or in case you have a reason to use a different symmetry number we print 
out the resulting rotational entropy values for sn=1,12:

 non-linear molecules -----------------------------------
|  sn= 1 | S(rot)=       0.01301490 Eh      8.17 kcal/mol|
|  sn= 2 | S(rot)=       0.01236044 Eh      7.76 kcal/mol|
|  sn= 3 | S(rot)=       0.01197761 Eh      7.52 kcal/mol|
|  sn= 4 | S(rot)=       0.01170598 Eh      7.35 kcal/mol|
|  sn= 5 | S(rot)=       0.01149530 Eh      7.21 kcal/mol|
|  sn= 6 | S(rot)=       0.01132315 Eh      7.11 kcal/mol|
|  sn= 7 | S(rot)=       0.01117761 Eh      7.01 kcal/mol|
|  sn= 8 | S(rot)=       0.01105153 Eh      6.93 kcal/mol|
|  sn= 9 | S(rot)=       0.01094032 Eh      6.87 kcal/mol|
|  sn=10 | S(rot)=       0.01084084 Eh      6.80 kcal/mol|
|  sn=11 | S(rot)=       0.01075085 Eh      6.75 kcal/mol|
|  sn=12 | S(rot)=       0.01066870 Eh      6.69 kcal/mol|
 linear molecules ---------------------------------------
|  Dinfh | S(rot)=       0.00805196 Eh      5.05 kcal/mol|
|  Cinfv | S(rot)=       0.00870641 Eh      5.46 kcal/mol|
 --------------------------------------------------------


-------------------
GIBBS FREE ENERGY
-------------------

The Gibbs free energy is G = H - T*S

Total enthalpy                    ...   -732.16299430 Eh 
Total entropy correction          ...     -0.03963886 Eh    -24.87 kcal/mol
-----------------------------------------------------------------------
Final Gibbs free energy         ...   -732.20263317 Eh

For completeness - the Gibbs free energy minus the electronic energy
G-E(el)                           ...      0.03368346 Eh     21.14 kcal/mol


Maximum memory used throughout the entire PROP-calculation: 28.0 MB

--------------------------------
SUGGESTED CITATIONS FOR THIS RUN
--------------------------------

Below you find a list of papers that are relevant to this ORCA run
We neither can nor want to force you to cite these papers, but we appreciate if you do
You receive ORCA, which is the product of decades of hard work by many enthusiastic individuals, for free
The only thing we kindly ask in return is that you cite our papers,
We deeply appreciate it, if you show your appreciation for ORCA by not just citing the generic ORCA reference.

Please note that relegating all ORCA citations to the supporting information does *not* help us.
SI sections are not indexed - citations you put there will not count into any citation statistics
But we need these citations in order to attract the funding resources that allow us to do what we are doing

Therefore, if you are a happy ORCA user, please consider citing a few of the papers listed below in the main body of your paper

In addition to the list printed below, the program has created the file run.bibtex that contains the list in bibtex format
You can import this file easily into all common literature databanks and citation aid programs


List of essential papers. We consider these as the minimum necessary citations

  1. Neese, F.
     Software update: the ORCA program system, version 6.0
     WIRES Comput. Molec. Sci. 2025 15(1), e70019
     doi.org/10.1002/wcms.7019

List of papers to cite with high priority. The work reported in these papers was absolutely
necessary for this run to complete.
Our perspective: the developers of density functionals and basis sets usually get cited in chemistry papers
Good! But without the algorithms to do something with them, the functionals or basis sets would not do anything.
Hence, in our opinion, the algorithm design and method developments papers are equally worthy of getting cited

  1. Neese, F.
     An improvement of the resolution of the identity approximation for the formation of the Coulomb matrix
     J. Comp. Chem. 2003 24(14), 1740-1747
     doi.org/10.1002/jcc.10318
  2. Grimme, S.; Antony, J.; Ehrlich, S.; Krieg, H.
     A consistent and accurate ab initio parametrization of density functional dispersion correction (DFT-D) for the 94 elements H-Pu
     J. Chem. Phys. 2010 132 , 154104
     doi.org/10.1063/1.3382344
  3. Grimme, S.; Ehrlich, S.; Goerigk, L.
     Effect of the damping function in dispersion corrected density functional theory
     J. Comput. Chem. 2011 32(7), 1456-1465
     doi.org/10.1002/jcc.21759
  4. Bykov, D.; Petrenko, T.; Izsak, R.; Kossmann, S.; Becker, U.; Valeev, E.; Neese, F.
     Efficient implementation of the analytic second derivatives of Hartree-Fock and hybrid DFT energies: a detailed analysis of different approximations
     Molec. Phys. 2015 113 , 1961-1977
     doi.org/10.1080/00268976.2015.1025114
  5. Neese, F.
     The SHARK Integral Generation and Digestion System
     J. Comp. Chem. 2022 44(3), 381
     doi.org/10.1002/jcc.26942

List of suggested additional citations. These are papers that are important in the 'surrounding' of 
of this run, or papers that preceded the highly important papers. If you like your results we are grateful for a citation.

  1. Neese, F.
     The ORCA program system
     WIRES Comput. Molec. Sci. 2012 2(1), 73-78
     doi.org/10.1002/wcms.81
  2. Neese, F.
     Software update: the ORCA program system, version 4.0
     WIRES Comput. Molec. Sci. 2018 8(1), 1-6
     doi.org/10.1002/wcms.1327
  3. Neese, F.; Wennmohs, F.; Becker, U.; Riplinger, C.
     The ORCA quantum chemistry program package
     J. Chem. Phys. 2020 152(22), 224108
     doi.org/10.1063/5.0004608
  4. Neese, F.
     Software update: The ORCA program system—Version 5.0
     WIRES Comput. Molec. Sci. 2022 12(1), e1606
     doi.org/10.1002/wcms.1606

List of optional additional citations

  1. Neese, F.
     Approximate second-order SCF convergence for spin unrestricted wavefunctions
     Chem. Phys. Lett. 2000 325(1-3), 93-98
     doi.org/10.1016/s0009-2614(00)00662-x

Timings for individual modules:

Sum of individual times          ...      288.197 sec (=   4.803 min)
Startup calculation              ...      113.593 sec (=   1.893 min)  39.4 %
SCF iterations                   ...       83.027 sec (=   1.384 min)  28.8 %
Property integrals               ...       28.498 sec (=   0.475 min)   9.9 %
SCF Response                     ...        3.857 sec (=   0.064 min)   1.3 %
Property calculations            ...        7.427 sec (=   0.124 min)   2.6 %
SCF Gradient evaluation          ...       51.527 sec (=   0.859 min)  17.9 %
Geometry relaxation              ...        0.268 sec (=   0.004 min)   0.1 %
                             ****ORCA TERMINATED NORMALLY****
TOTAL RUN TIME: 0 days 0 hours 5 minutes 11 seconds 292 msec
