
                                 *****************
                                 * O   R   C   A *
                                 *****************

                                            #,                                       
                                            ###                                      
                                            ####                                     
                                            #####                                    
                                            ######                                   
                                           ########,                                 
                                     ,,################,,,,,                         
                               ,,#################################,,                 
                          ,,##########################################,,             
                       ,#########################################, ''#####,          
                    ,#############################################,,   '####,        
                  ,##################################################,,,,####,       
                ,###########''''           ''''###############################       
              ,#####''   ,,,,##########,,,,          '''####'''          '####       
            ,##' ,,,,###########################,,,                        '##       
           ' ,,###''''                  '''############,,,                           
         ,,##''                                '''############,,,,        ,,,,,,###''
      ,#''                                            '''#######################'''  
     '                                                          ''''####''''         
             ,#######,   #######,   ,#######,      ##                                
            ,#'     '#,  ##    ##  ,#'     '#,    #''#        ,####,    ,#,          
            ##       ##  ##   ,#'  ##            #'  '#       #'       ,# #          
            ##       ##  #######   ##           ,######,      #####,      #          
            '#,     ,#'  ##    ##  '#,     ,#' ,#      #,     #,   #      #          
             '#######'   ##     ##  '#######'  #'      '#     '####' #    #          



                #########################################################
                #                        -***-                          #
                #          Department of theory and spectroscopy        #
                #                                                       #
                #                      Frank Neese                      #
                #                                                       #
                #     Directorship, Architecture, Infrastructure        #
                #                    SHARK, DRIVERS                     #
                #        Core code/Algorithms in most modules           #
                #                                                       #
                #        Max Planck Institute fuer Kohlenforschung      #
                #                Kaiser Wilhelm Platz 1                 #
                #                 D-45470 Muelheim/Ruhr                 #
                #                      Germany                          #
                #                                                       #
                #                  All rights reserved                  #
                #                        -***-                          #
                #########################################################


                         Program Version 6.1.0  -  RELEASE   -
                                (GIT: $679e74b$)
                          ($2025-06-10 18:02:51 +0200$)


 With contributions from (in alphabetic order):
[Max-Planck-Institut fuer Kohlenforschung]                               
  Daniel Aravena         : Magnetic Suceptibility                        
  Michael Atanasov       : Ab Initio Ligand Field Theory (pilot matlab implementation)
  Alexander A. Auer      : GIAO ZORA, VPT2 properties, NMR spectrum      
  Ute Becker             : All parallelization in ORCA, NUMFREQ, NUMCALC 
  Giovanni Bistoni       : ED, misc. LED, open-shell LED, HFLD           
  Dmytro Bykov           : pre 5.0 version of the SCF Hessian            
  Marcos Casanova-Páez   : Triplet and SCS-CIS(D). UHF-(DLPNO)-IP/EA/STEOM-CCSD. UHF-CVS-IP/STEOM-CCSD   
  Vijay G. Chilkuri      : MRCI spin determinant printing, contributions to CSF-ICE 
  Pauline Colinet        : FMM embedding                                 
  Dipayan Datta          : RHF DLPNO-CCSD density                        
  Achintya Kumar Dutta   : EOM-CC, STEOM-CC                              
  Nicolas Foglia         : Exact transition moments, OPA infrastructure, MCD improvements    
  Dmitry Ganyushin       : Spin-Orbit,Spin-Spin,Magnetic field MRCI      
  Miquel Garcia-Rates    : C-PCM and meta-GGA Hessian, CCSD/C-PCM, Gaussian charge scheme 
  Tiago L. C. Gouveia    : GS-ROHF, GS-ROCIS                             
  Yang Guo               : DLPNO-NEVPT2, F12-NEVPT2, CIM, IAO-localization        
  Andreas Hansen         : Spin unrestricted coupled pair/coupled cluster methods 
  Ingolf Harden          : AUTO-CI MPn and infrastructure                
  Benjamin Helmich-Paris : MC-RPA, TRAH-(SCF,CASSCF), AVAS, COSX integrals, SCF dyn. polar., MC-PDFT, srDFT 
  Lee Huntington         : MR-EOM, pCC                                   
  Robert Izsak           : Overlap fitted RIJCOSX, COSX-SCS-MP3, EOM     
  Riya Kayal             : Wick's Theorem for AUTO-CI, AUTO-CI UHF-CCSDT 
  Emily Kempfer          : AUTO-CI RHF CISDT and CCSDT, approximate NEVPT4
  Christian Kollmar      : KDIIS, OOCD, Brueckner-CCSD(T), CCSD density, CASPT2, CASPT2-K, improved NEVPT2 
  Axel Koslowski         : Symmetry handling                             
  Simone Kossmann        : meta-GGA functionals, TD-DFT gradient, OOMP2, (MP2 Hessian; deprecated post 5.0) 
  Lucas Lang             : DCDCAS, Hyperfine gauge corrections, ICE-SOC+SSC
  Marvin Lechner         : AUTO-CI (C++ implementation), FIC-MRCC        
  Spencer Leger          : CASSCF response                               
  Dagmar Lenk            : GEPOL surface, SMD, ORCA-2-JSON               
  Dimitrios Liakos       : Extrapolation schemes; Compound Job, Property file
  Dimitrios Manganas     : Further ROCIS development; embedding schemes. LFT, Crystal Embedding 
  Dimitrios Pantazis     : SARC Basis sets                               
  Anastasios Papadopoulos: AUTO-CI, single reference methods and gradients 
  Taras Petrenko         : pre 6.0 DFT Hessian and TD-DFT gradient,  ECA, NRVS 
  Petra Pikulova         : Analytic Raman intensities                    
  Peter Pinski           : DLPNO-MP2, DLPNO-MP2 Gradient                 
  Shashank Vittal Rao    : ES-AILFT, MagRelax                            
  Christoph Reimann      : Effective Core Potentials                     
  Marius Retegan         : Local ZFS, SOC                                
  Christoph Riplinger    : Optimizer, TS searches, QM/MM, DLPNO-CCSD(T), (RO)-DLPNO pert. Triples 
  Michael Roemelt        : Original ROCIS implementation, recursive CI coupling coefficients
  Masaaki Saitow         : Open-shell DLPNO-CCSD energy and density      
  Barbara Sandhoefer     : DKH picture change effects                    
  Yorick L. A. Schmerwitz: GMF and freeze-and-release deltaSCF, NEB S-IDPP initial path                    
  Kantharuban Sivalingam : CASSCF convergence/infrastructure, NEVPT2, NEVPT3, NEVPT4(SD), FIC-MRCI and CEPA variants
  Bernardo de Souza      : ESD, SOC TD-DFT                               
  Georgi L. Stoychev     : AutoAux, RI-MP2 NMR, DLPNO-MP2 response, X2C  
  Van Anh Tran           : RI-MP2 g-tensors                              
  Willem Van den Heuvel  : Paramagnetic NMR                              
  Zikuan Wang            : NOTCH, Electric field optimization            
  Frank Wennmohs         : Technical directorship and infrastructure     
  Hang Xu                : AUTO-CI-Response properties                   
                                                                         
[FACCTs GmbH]                                                            
  Markus Bursch, Nicolas Foglia, Miquel Garcia-Rates, Ingolf Harden, Hagen Neugebauer, Anastasios Papadopoulos, 
  Christoph Riplinger, Bernardo de Souza, Georgi L. Stoychev                                                    
                                                                 
  APM, various basis sets, CI-OPT, improved COSX, DLPNO-Multilevel,           
  DOCKER, DRACO, updates on ESD, Fragmentator, GOAT, IRC, LR-CPCM, L-BFGS, MBIS, meta-GGA TD-DFT gradient, ML-optimized integration grids, 
  MM, NACMEs, nearIR, NEB, NEB-TS, NL-DFT gradient (VV10), 2- and 3-layer-ONIOM, interface openCOSMO-RS, QMMM,   
  Crystal-QMMM, RESP, rigid body optimization, SF, symmetry and pop. for TD-DFT, various functionals, SOLVATOR                                   
                                                                         
[Other institutions]                                                     
  V. Asgeirsson          : NEB                                           
  Christoph Bannwarth    : sTDA-DFT, sTD-DFT, PBEh-3c, B97-3c, D3        
  Giovanni Bistoni       : ETS/NOCV, ADLD/ADEX, COVALED                  
  Martin Brehm           : Molecular dynamics                            
  Ronald Cardenas        : ETS/NOCV                                      
  Martina Colucci        : COVALED                                       
  Sebastian Ehlert       : rSCAN, r2SCAN, r2SCAN-3c, D4, dhf basis sets  
  Marvin Friede          : D4 for Fr, Ra, Ac-Lr                          
  Lars Goerigk           : TD-DFT with DH, B97 family of functionals     
  Stefan Grimme          : VdW corrections, initial TS optimization, DFT functionals, gCP, sTDA/sTD-DF 
  Waldemar Hujo          : DFT-NL                                        
  H. Jonsson             : NEB                                           
  Holger Kruse           : gCP                                           
  Marcel Mueller         : wB97X-3c, vDZP basis set                      
  Hagen Neugebauer       : wr2SCAN, Native XTB                           
  Gianluca Regni         : ADLD/ADEX                                     
  Tobias Risthaus        : pre 6.0 range-separated hybrid DFT and stability analysis
  Lukas Wittmann         : regularized MP2, r2SCAN double-hybrids, wr2SCAN        
                                                                         
We gratefully acknowledge several colleagues who have allowed us to      
interface, adapt or use parts of their codes:                            
  Ed Valeev, F. Pavosevic, A. Kumar             : LibInt (2-el integral package), F12 methods 
  Garnet Chan, S. Sharma, J. Yang, R. Olivares  : DMRG                   
  Ulf Ekstrom                                   : XCFun DFT Library      
  Mihaly Kallay                                 : mrcc  (arbitrary order and MRCC methods)
  Frank Weinhold                                : gennbo (NPA and NBO analysis)           
  Simon Mueller                                 : openCOSMO-RS                            
  Christopher J. Cramer and Donald G. Truhlar   : smd solvation model                     
  S Lehtola, MJT Oliveira, MAL Marques          : LibXC Library                           
  Liviu Ungur et al                             : ANISO software                          


 Your calculation uses the libint2 library for the computation of 2-el integrals
 For citations please refer to: http://libint.valeyev.net

 Your ORCA version has been built with support for libXC version: 7.0.0
 For citations please refer to: https://libxc.gitlab.io

 This ORCA versions uses:
   CBLAS   interface :  Fast vector & matrix operations
   LAPACKE interface :  Fast linear algebra routines
   SCALAPACK package :  Parallel linear algebra routines
   Shared memory     :  Shared parallel matrices
   BLAS/LAPACK       :  OpenBLAS 0.3.29  USE64BITINT DYNAMIC_ARCH NO_AFFINITY Bulldozer SINGLE_THREADED
        Core in use  :  Bulldozer
   Copyright (c) 2011-2014, The OpenBLAS Project


  ***********************************
  * Starting time: Sun Aug 17 22:49:16 2025
  * Host name:     chromium08
  * Process ID:    520443
  * Working dir.:  /local/scratch/mehlhorn/62106
  ***********************************



***************************************
The coordinates will be read from file: start.xyz
***************************************


Your calculation utilizes the geometrical counterpoise correction gCP
Please cite in your paper:
H.Kruse, S. Grimme J.Chem.Phys., 136, (2012), 154101 
   

Your calculation utilizes the atom-pairwise dispersion correction
with the Becke-Johnson damping scheme (D3BJ)


Your calculation employs the composite approach PBEh-3c.
Please cite in your paper:
Grimme, S.; Brandenburg, J. G.; Bannwarth, C.; Hansen A. J. Chem. Phys. 2015, 143, 054107 
   

================================================================================

----- Orbital basis set information -----
Your calculation utilizes the basis: def2-mSVP

----- AuxJ basis set information -----
Your calculation utilizes the auxiliary basis: def2-mSVP/J
================================================================================
                                        WARNINGS
                       Please study these warnings very carefully!
================================================================================


WARNING: Geometry Optimization
  ===> : Switching off AutoStart
         For restart on a previous wavefunction, please use MOREAD

================================================================================
                                       INPUT FILE
================================================================================
NAME = run.inp
|  1> # Geometry optimization for (AlH3)n cluster
|  2> 
|  3> %pal nprocs 24  end
|  4> 
|  5> %geom MaxIter 500 end
|  6> 
|  7> %elprop Polar 1 end # invoke raman
|  8> 
|  9> ! PBEh-3c
| 10> ! RKS	# closed shell for AlH3
| 11> ! Freq 	# Frequency analysis to check the stabiltity of the structures
| 12> 
| 13> 
| 14> ! NoPop # population analysis not necessary	
| 15> 
| 16> ! DEFGRID3
| 17> ! ExtremeSCF
| 18> ! VeryTightOpt
| 19> 
| 20> 
| 21> ! SmallPrint
| 22> 
| 23> 
| 24> * xyzFile 0 1 start.xyz # only maingroup elements H and Al so there should be no net spin
| 25> 
| 26>                          ****END OF INPUT****
================================================================================

                       *****************************
                       * Geometry Optimization Run *
                       *****************************

Geometry optimization settings:
Update method            Update   .... BFGS
Choice of coordinates    CoordSys .... (2022) Redundant Internals
Initial Hessian          InHess   .... Almloef's Model
Max. no of cycles        MaxIter  .... 500

Convergence Tolerances:
Energy Change            TolE     ....  2.0000e-07 Eh
Max. Gradient            TolMAXG  ....  3.0000e-05 Eh/bohr
RMS Gradient             TolRMSG  ....  8.0000e-06 Eh/bohr
Max. Displacement        TolMAXD  ....  2.0000e-04 bohr
RMS Displacement         TolRMSD  ....  1.0000e-04 bohr
Strict Convergence                .... False

------------------------------------------------------------------------------
                        ORCA OPTIMIZATION COORDINATE SETUP
------------------------------------------------------------------------------

The optimization will be done in redundant internal coordinates (2022)
Making redundant internal coordinates   ...  (2022 redundants) done
Evaluating the initial hessian          ...  (Almloef) done
Evaluating the coordinates              ...  done
Calculating the B-matrix                .... done
Calculating the G-matrix                .... done
The number of degrees of freedom        ....  156

    -----------------------------------------------------------------
                    Redundant Internal Coordinates


    -----------------------------------------------------------------
         Definition                    Initial Value    Approx d2E/dq
    -----------------------------------------------------------------
      1. B(Al  1,Al  0)                  3.0930         0.058865   
      2. B(H   2,Al  1)                  1.7189         0.250389   
      3. B(H   3,Al  1)                  1.5892         0.403253   
      4. B(H   4,Al  1)                  1.7080         0.260611   
      5. B(H   4,Al  0)                  1.7156         0.253417   
      6. B(H   5,Al  0)                  1.5891         0.403416   
      7. B(H   6,Al  0)                  1.7011         0.267358   
      8. B(H   7,Al  1)                  1.5865         0.407299   
      9. B(Al  8,H   2)                  1.7177         0.251510   
     10. B(Al  8,Al  1)                  3.1244         0.052455   
     11. B(H   9,Al  8)                  1.7099         0.258834   
     12. B(H  10,Al  8)                  1.5862         0.407761   
     13. B(H  11,Al  0)                  1.5858         0.408289   
     14. B(Al 12,H   6)                  1.6991         0.269250   
     15. B(Al 12,Al  0)                  3.3570         0.022322   
     16. B(Al 12,H   9)                  1.7177         0.251547   
     17. B(Al 12,Al  8)                  3.0616         0.066072   
     18. B(H  13,Al 12)                  1.5873         0.406081   
     19. B(H  14,Al 12)                  1.5877         0.405424   
     20. B(H  15,Al  8)                  1.5895         0.402736   
     21. A(H   5,Al  0,H  11)          128.2284         0.386215   
     22. A(Al  1,Al  0,Al 12)           79.5573         0.237173   
     23. A(Al  1,Al  0,H  11)          128.2646         0.323514   
     24. A(H   4,Al  0,Al 12)           93.3969         0.258033   
     25. A(H  11,Al  0,Al 12)          103.4521         0.277301   
     26. A(H   4,Al  0,H  11)          104.5187         0.356528   
     27. A(Al  1,Al  0,H   4)           25.3279         0.299517   
     28. A(Al  1,Al  0,H   5)           93.8595         0.322878   
     29. A(H   4,Al  0,H   5)          107.5836         0.355802   
     30. A(H   4,Al  0,H   6)           98.7965         0.332081   
     31. A(H   5,Al  0,H   6)          105.0287         0.359056   
     32. A(H   6,Al  0,H  11)          108.9093         0.359791   
     33. A(H   5,Al  0,Al 12)          113.8527         0.276790   
     34. A(H   6,Al  0,Al 12)            9.1420         0.260094   
     35. A(Al  1,Al  0,H   6)           82.0739         0.302084   
     36. A(Al  0,Al  1,H   7)          124.4411         0.323385   
     37. A(H   3,Al  1,H   4)          109.0754         0.357473   
     38. A(H   2,Al  1,H   3)          107.9570         0.355053   
     39. A(H   2,Al  1,H   7)          105.2715         0.355655   
     40. A(H   3,Al  1,Al  8)           97.6060         0.316833   
     41. A(Al  0,Al  1,H   2)          103.9430         0.298945   
     42. A(H   7,Al  1,Al  8)          126.4201         0.317348   
     43. A(H   2,Al  1,H   4)           94.7425         0.330023   
     44. A(Al  0,Al  1,H   4)           25.4490         0.300855   
     45. A(Al  0,Al  1,H   3)           83.6406         0.322856   
     46. A(H   4,Al  1,Al  8)           77.0252         0.295398   
     47. A(H   2,Al  1,Al  8)           24.6025         0.293537   
     48. A(Al  0,Al  1,Al  8)           80.7125         0.268785   
     49. A(H   4,Al  1,H   7)          106.1041         0.358081   
     50. A(H   3,Al  1,H   7)          128.4883         0.386025   
     51. A(Al  1,H   2,Al  8)          130.7765         0.328091   
     52. A(Al  0,H   4,Al  1)          129.2231         0.330679   
     53. A(Al  0,H   6,Al 12)          161.7056         0.335439   
     54. A(H   9,Al  8,H  15)          108.7071         0.356980   
     55. A(H   2,Al  8,H  15)          108.1624         0.355245   
     56. A(Al  1,Al  8,H  15)           94.0643         0.316766   
     57. A(H   2,Al  8,H  10)          105.4267         0.355993   
     58. A(Al  1,Al  8,H  10)          128.5986         0.317407   
     59. A(H   2,Al  8,H   9)           94.2117         0.329893   
     60. A(Al  1,Al  8,H   9)           79.6855         0.295079   
     61. A(Al  1,Al  8,H   2)           24.6210         0.293744   
     62. A(H   9,Al  8,H  10)          106.4128         0.357733   
     63. A(H  10,Al  8,Al 12)          124.2253         0.329655   
     64. A(H   9,Al  8,Al 12)           26.7838         0.306130   
     65. A(H   2,Al  8,Al 12)          105.5142         0.304723   
     66. A(Al  1,Al  8,Al 12)           83.8092         0.273547   
     67. A(H  10,Al  8,H  15)          128.5412         0.386015   
     68. A(Al 12,Al  8,H  15)           82.0545         0.328980   
     69. A(Al  8,H   9,Al 12)          126.5631         0.329901   
     70. A(H   9,Al 12,H  14)          108.5449         0.355655   
     71. A(Al  8,Al 12,H  14)           90.6701         0.329342   
     72. A(H   6,Al 12,H  14)          108.7094         0.359791   
     73. A(Al  0,Al 12,H  14)          103.9006         0.277001   
     74. A(H   9,Al 12,H  13)          103.6759         0.355752   
     75. A(Al  8,Al 12,H  13)          129.9427         0.329430   
     76. A(H   6,Al 12,H  13)          105.7461         0.359891   
     77. A(Al  0,Al 12,H  13)          114.3149         0.277070   
     78. A(H  13,Al 12,H  14)          128.0692         0.386184   
     79. A(Al  8,Al 12,H   9)           26.6530         0.304731   
     80. A(H   6,Al 12,H   9)           98.0111         0.332062   
     81. A(Al  0,Al 12,H   9)           92.4840         0.257750   
     82. A(H   6,Al 12,Al  8)           85.4751         0.308077   
     83. A(Al  0,Al 12,Al  8)           77.5452         0.241098   
     84. A(Al  0,Al 12,H   6)            9.1524         0.260368   
     85. D(H   2,Al  1,Al  0,Al 12)    -50.8943         0.010000   
     86. D(H   2,Al  1,Al  0,H   6)    -59.7982         0.010000   
     87. D(H   3,Al  1,Al  0,Al 12)     56.0810         0.010000   
     88. D(H   3,Al  1,Al  0,H   5)    -57.4784         0.010000   
     89. D(H   2,Al  1,Al  0,H   4)     71.1278         0.010000   
     90. D(H   3,Al  1,Al  0,H   4)    178.1031         0.010000   
     91. D(H   3,Al  1,Al  0,H   6)     47.1771         0.010000   
     92. D(H   2,Al  1,Al  0,H   5)   -164.4536         0.010000   
     93. D(H   2,Al  1,Al  0,H  11)     48.0751         0.010000   
     94. D(H   3,Al  1,Al  0,H  11)    155.0504         0.010000   
     95. D(Al  8,H   2,Al  1,H   7)    151.8821         0.010000   
     96. D(Al  8,H   2,Al  1,H   3)    -68.0632         0.010000   
     97. D(Al  8,H   2,Al  1,Al  0)     19.6725         0.010000   
     98. D(Al  8,H   2,Al  1,H   4)     43.7520         0.010000   
     99. D(Al  0,H   4,Al  1,Al  8)    -95.6669         0.010000   
    100. D(Al  1,H   4,Al  0,H   5)    -59.7005         0.010000   
    101. D(Al  0,H   4,Al  1,H   3)     -1.9948         0.010000   
    102. D(Al  0,H   4,Al  1,H   2)   -112.8510         0.010000   
    103. D(Al  1,H   4,Al  0,Al 12)     56.6438         0.010000   
    104. D(Al  1,H   4,Al  0,H  11)    161.4826         0.010000   
    105. D(Al  1,H   4,Al  0,H   6)     49.2220         0.010000   
    106. D(Al  0,H   4,Al  1,H   7)    139.7487         0.010000   
    107. D(Al 12,H   6,Al  0,H  11)    -54.4821         0.010000   
    108. D(Al 12,H   6,Al  0,H   5)    165.2326         0.010000   
    109. D(Al 12,H   6,Al  0,H   4)     54.2511         0.010000   
    110. D(Al 12,H   6,Al  0,Al  1)     73.3423         0.010000   
    111. D(H   2,Al  8,Al  1,H   3)    117.0961         0.010000   
    112. D(H   2,Al  8,Al  1,Al  0)   -160.6666         0.010000   
    113. D(H   2,Al  8,Al  1,H   7)    -34.4022         0.010000   
    114. D(H   2,Al  8,Al  1,H   4)   -134.9902         0.010000   
    115. D(H   9,Al  8,Al  1,Al  0)     74.1428         0.010000   
    116. D(H  15,Al  8,H   2,Al  1)    -57.5340         0.010000   
    117. D(H  10,Al  8,H   2,Al  1)    162.0416         0.010000   
    118. D(H   9,Al  8,H   2,Al  1)     53.7273         0.010000   
    119. D(H  10,Al  8,Al  1,Al  0)    176.9812         0.010000   
    120. D(H   9,Al  8,Al  1,H   7)   -159.5927         0.010000   
    121. D(H   9,Al  8,Al  1,H   4)     99.8192         0.010000   
    122. D(Al 12,Al  8,H   2,Al  1)     29.0311         0.010000   
    123. D(H   9,Al  8,Al  1,H   3)     -8.0945         0.010000   
    124. D(H   9,Al  8,Al  1,H   2)   -125.1906         0.010000   
    125. D(Al 12,H   9,Al  8,H  15)     -5.9092         0.010000   
    126. D(Al 12,H   9,Al  8,H  10)    135.8595         0.010000   
    127. D(Al 12,H   9,Al  8,H   2)   -116.6981         0.010000   
    128. D(Al 12,H   9,Al  8,Al  1)    -96.7361         0.010000   
    129. D(Al  0,Al 12,Al  8,H  10)   -176.5111         0.010000   
    130. D(Al  0,Al 12,Al  8,H   9)   -122.6147         0.010000   
    131. D(Al  0,Al 12,Al  8,H   2)    -54.9968         0.010000   
    132. D(H  14,Al 12,H   6,Al  0)     59.5078         0.010000   
    133. D(H  13,Al 12,H   6,Al  0)   -159.9688         0.010000   
    134. D(H   9,Al 12,H   6,Al  0)    -53.2455         0.010000   
    135. D(Al  8,Al 12,H   6,Al  0)    -29.6662         0.010000   
    136. D(H   9,Al 12,Al  0,Al  1)     22.1931         0.010000   
    137. D(Al  8,Al 12,Al  0,H  11)    -82.6983         0.010000   
    138. D(Al  8,Al 12,Al  0,H   6)    149.6491         0.010000   
    139. D(Al  8,Al 12,Al  0,H   5)    134.0344         0.010000   
    140. D(Al  8,Al 12,Al  0,H   4)     23.1100         0.010000   
    141. D(Al  8,Al 12,Al  0,Al  1)     44.4157         0.010000   
    142. D(Al  0,Al 12,Al  8,Al  1)    -43.2632         0.010000   
    143. D(H   6,Al 12,Al  0,H  11)    127.6526         0.010000   
    144. D(H   6,Al 12,Al  0,H   5)    -15.6147         0.010000   
    145. D(H   6,Al 12,Al  0,H   4)   -126.5391         0.010000   
    146. D(Al  0,Al 12,Al  8,H  15)     51.7349         0.010000   
    147. D(H   6,Al 12,Al  0,Al  1)   -105.2333         0.010000   
    148. D(H  14,Al 12,H   9,Al  8)    -50.1434         0.010000   
    149. D(H   6,Al 12,H   9,Al  8)     62.7416         0.010000   
    150. D(Al  0,Al 12,H   9,Al  8)     55.4130         0.010000   
    151. D(H   6,Al 12,Al  8,H  15)     56.3593         0.010000   
    152. D(H   6,Al 12,Al  8,H  10)   -171.8867         0.010000   
    153. D(H   6,Al 12,Al  8,H   9)   -117.9903         0.010000   
    154. D(H  13,Al 12,H   9,Al  8)    171.1804         0.010000   
    155. D(H   6,Al 12,Al  8,H   2)    -50.3724         0.010000   
    156. D(H   6,Al 12,Al  8,Al  1)    -38.6387         0.010000   
    -----------------------------------------------------------------

Number of atoms                         .... 16
Number of degrees of freedom            .... 156


         *************************************************************
         *                GEOMETRY OPTIMIZATION CYCLE   1            *
         *************************************************************
---------------------------------
CARTESIAN COORDINATES (ANGSTROEM)
---------------------------------
  Al     0.687672    1.162117    2.542515
  Al    -0.254538   -0.472028    0.091286
  H      0.489523   -2.006643    0.305731
  H     -1.645295   -0.490123    0.860046
  H      0.892582    0.373858    1.032522
  H     -0.415177    2.289809    2.349606
  H     -0.102094   -0.087950    3.383477
  H      0.034742   -0.074499   -1.417086
  Al     1.142238   -2.750560    1.709666
  H     -0.282778   -2.548602    2.632835
  H      1.236672   -4.295565    1.363319
  H      2.159075    1.316001    3.113559
  Al    -0.453025   -1.606926    4.059232
  H     -2.017805   -1.608759    4.325590
  H      0.711691   -1.998377    5.064759
  H      2.269777   -1.796553    2.297173

----------------------------
CARTESIAN COORDINATES (A.U.)
----------------------------
  NO LB      ZA    FRAG     MASS         X           Y           Z
   0 Al   13.0000    0    26.982    1.299511    2.196083    4.804658
   1 Al   13.0000    0    26.982   -0.481007   -0.892003    0.172505
   2 H     1.0000    0     1.008    0.925065   -3.792006    0.577748
   3 H     1.0000    0     1.008   -3.109157   -0.926197    1.625251
   4 H     1.0000    0     1.008    1.686736    0.706489    1.951183
   5 H     1.0000    0     1.008   -0.784571    4.327111    4.440111
   6 H     1.0000    0     1.008   -0.192930   -0.166201    6.393844
   7 H     1.0000    0     1.008    0.065653   -0.140783   -2.677904
   8 Al   13.0000    0    26.982    2.158516   -5.197804    3.230801
   9 H     1.0000    0     1.008   -0.534373   -4.816159    4.975338
  10 H     1.0000    0     1.008    2.336972   -8.117442    2.576300
  11 H     1.0000    0     1.008    4.080061    2.486881    5.883774
  12 Al   13.0000    0    26.982   -0.856094   -3.036650    7.670836
  13 H     1.0000    0     1.008   -3.813098   -3.040114    8.174180
  14 H     1.0000    0     1.008    1.344901   -3.776386    9.571008
  15 H     1.0000    0     1.008    4.289256   -3.394993    4.341028

--------------------------------
INTERNAL COORDINATES (ANGSTROEM)
--------------------------------
 Al     0   0   0     0.000000000000     0.00000000     0.00000000
 Al     1   0   0     3.093010413808     0.00000000     0.00000000
 H      2   1   0     1.718911963769   103.94295310     0.00000000
 H      2   1   3     1.589190247376    83.64057422   106.97526901
 H      2   1   3     1.708019916016    25.44898429   288.87218544
 H      1   2   3     1.589080693397    93.85949895   195.54636589
 H      1   2   3     1.701062208121    82.07389718   300.20183857
 H      2   1   3     1.586472959089   124.44109868   240.04437263
 Al     3   2   1     1.717696613175   130.77647556    19.67250329
 H      9   3   2     1.709882360763    94.21168151    53.72726862
 H      9   3   2     1.586164301959   105.42670299   162.04164187
 H      1   2   3     1.585812166584   128.26463677    48.07513876
 Al     7   1   2     1.699142610645   161.70562640    73.34234966
 H     13   7   1     1.587288234662   105.74612038   200.03117437
 H     13   7   1     1.587729319236   108.70936256    59.50778291
 H      9   3   2     1.589539893486   108.16240515   302.46602109

---------------------------
INTERNAL COORDINATES (A.U.)
---------------------------
 Al     0   0   0     0.000000000000     0.00000000     0.00000000
 Al     1   0   0     5.844942611464     0.00000000     0.00000000
 H      2   1   0     3.248272859845   103.94295310     0.00000000
 H      2   1   3     3.003134342239    83.64057422   106.97526901
 H      2   1   3     3.227689872553    25.44898429   288.87218544
 H      1   2   3     3.002927315222    93.85949895   195.54636589
 H      1   2   3     3.214541710111    82.07389718   300.20183857
 H      2   1   3     2.997999411550   124.44109868   240.04437263
 Al     3   2   1     3.245976180064   130.77647556    19.67250329
 H      9   3   2     3.231209383065    94.21168151    53.72726862
 H      9   3   2     2.997416134105   105.42670299   162.04164187
 H      1   2   3     2.996750694684   128.26463677    48.07513876
 Al     7   1   2     3.210914196595   161.70562640    73.34234966
 H     13   7   1     2.999540059107   105.74612038   200.03117437
 H     13   7   1     3.000373588153   108.70936256    59.50778291
 H      9   3   2     3.003795077631   108.16240515   302.46602109

---------------------
BASIS SET INFORMATION
---------------------
There are 2 groups of distinct atoms

 Group   1 Type Al  : 10s7p1d contracted to 4s3p1d pattern {5311/511/1}
 Group   2 Type H   : 4s contracted to 2s pattern {31}

Atom   0Al   basis set group =>   1
Atom   1Al   basis set group =>   1
Atom   2H    basis set group =>   2
Atom   3H    basis set group =>   2
Atom   4H    basis set group =>   2
Atom   5H    basis set group =>   2
Atom   6H    basis set group =>   2
Atom   7H    basis set group =>   2
Atom   8Al   basis set group =>   1
Atom   9H    basis set group =>   2
Atom  10H    basis set group =>   2
Atom  11H    basis set group =>   2
Atom  12Al   basis set group =>   1
Atom  13H    basis set group =>   2
Atom  14H    basis set group =>   2
Atom  15H    basis set group =>   2
---------------------------------
AUXILIARY/J BASIS SET INFORMATION
---------------------------------
There are 2 groups of distinct atoms

 Group   1 Type Al  : 14s5p5d2f1g contracted to 8s4p3d1f1g pattern {71111111/2111/311/2/1}
 Group   2 Type H   : 5s2p1d contracted to 3s1p1d pattern {311/2/1}

Atom   0Al   basis set group =>   1
Atom   1Al   basis set group =>   1
Atom   2H    basis set group =>   2
Atom   3H    basis set group =>   2
Atom   4H    basis set group =>   2
Atom   5H    basis set group =>   2
Atom   6H    basis set group =>   2
Atom   7H    basis set group =>   2
Atom   8Al   basis set group =>   1
Atom   9H    basis set group =>   2
Atom  10H    basis set group =>   2
Atom  11H    basis set group =>   2
Atom  12Al   basis set group =>   1
Atom  13H    basis set group =>   2
Atom  14H    basis set group =>   2
Atom  15H    basis set group =>   2


           ************************************************************
           *        Program running with 24 parallel MPI-processes    *
           *              working on a common directory               *
           ************************************************************
------------------------------------------------------------------------------
                             ORCA STARTUP CALCULATIONS
                           -- RI-GTO INTEGRALS CHOSEN --
------------------------------------------------------------------------------
------------------------------------------------------------------------------
                   ___                                                        
                  /   \      - P O W E R E D   B Y -                         
                 /     \                                                     
                 |  |  |   _    _      __       _____    __    __             
                 |  |  |  | |  | |    /  \     |  _  \  |  |  /  |          
                  \  \/   | |  | |   /    \    | | | |  |  | /  /          
                 / \  \   | |__| |  /  /\  \   | |_| |  |  |/  /          
                |  |  |   |  __  | /  /__\  \  |    /   |      \           
                |  |  |   | |  | | |   __   |  |    \   |  |\   \          
                \     /   | |  | | |  |  |  |  | |\  \  |  | \   \       
                 \___/    |_|  |_| |__|  |__|  |_| \__\ |__|  \__/        
                                                                              
                      - O R C A' S   B I G   F R I E N D -                    
                                      &                                       
                       - I N T E G R A L  F E E D E R -                       
                                                                              
 v1 FN, 2020, v2 2021, v3 2022-2024                                           
------------------------------------------------------------------------------


----------------------
SHARK INTEGRAL PACKAGE
----------------------

Number of atoms                             ...     16
Number of basis functions                   ...     96
Number of shells                            ...     56
Maximum angular momentum                    ...      2
Integral batch strategy                     ... SHARK/LIBINT Hybrid
RI-J (if used) integral strategy            ... SPLIT-RIJ (Revised 2003 algorithm where possible)
Printlevel                                  ...      1
Contraction scheme used                     ... SEGMENTED contraction
Prescreening option                         ... SCHWARTZ
   Thresh                                   ... 3.000e-16
   Tcut                                     ... 3.000e-16
   Tpresel                                  ... 3.000e-16 
Coulomb Range Separation                    ... NOT USED
Exchange Range Separation                   ... NOT USED
Multipole approximations                    ... NOT USED
Finite Nucleus Model                        ... NOT USED
CABS basis                                  ... NOT available
Auxiliary Coulomb fitting basis             ... AVAILABLE
   # of basis functions in Aux-J            ...    336
   # of shells in Aux-J                     ...    128
   Maximum angular momentum in Aux-J        ...      4
Auxiliary J/K fitting basis                 ... NOT available
Auxiliary Correlation fitting basis         ... NOT available
Auxiliary 'external' fitting basis          ... NOT available

Checking pre-screening integrals            ... done (  0.0 sec) Dimension = 56
   => SHARK Basis and OBASIS are compatible. Storing Pre-screening
Shell pair information
Shell pair cut-off parameter TPreSel        ...   3.0e-16
Total number of shell pairs                 ...      1596
Shell pairs after pre-screening             ...      1538
Total number of primitive shell pairs       ...      7388
Primitive shell pairs kept                  ...      4982
          la=0 lb=0:    778 shell pairs
          la=1 lb=0:    464 shell pairs
          la=1 lb=1:     78 shell pairs
          la=2 lb=0:    160 shell pairs
          la=2 lb=1:     48 shell pairs
          la=2 lb=2:     10 shell pairs

Checking whether 4 symmetric matrices of dimension 96 fit in memory
:Max Core in MB      =   4096.00
 MB in use           =      5.38
 MB left             =   4090.62
 MB needed           =      0.14
 Data fit in memory  = YES
Calculating RI/J V-Matrix + Cholesky decomp.... done (  0.1 sec)
Calculating Nuclear repulsion               ... done (  0.0 sec) ENN=    289.617051632507 Eh

Diagonalization of the overlap matrix:
Smallest eigenvalue                        ... 6.399e-03
Time for diagonalization                   ...    0.027 sec
Threshold for overlap eigenvalues          ... 1.000e-07
Number of eigenvalues below threshold      ... 0
Time for construction of square roots      ...    0.001 sec
Total time needed                          ...    0.030 sec

-------------------
DFT GRID GENERATION
-------------------

General Integration Accuracy     IntAcc      ... 4.959
Radial Grid Type                 RadialGrid  ... OptM3 with GC (2021)
Angular Grid (max. ang.)         AngularGrid ... 6 (Lebedev-590)
Angular grid pruning method      GridPruning ... 4 (adaptive)
Weight generation scheme         WeightScheme... mBecke (2022)
Basis function cutoff            BFCut       ... 3.0000e-16
Integration weight cutoff        WCut        ... 1.0000e-14
Partially contracted basis set               ... off
Rotationally invariant grid construction     ... off
Angular grids for H and He will be reduced by one unit

Total number of grid points                  ...   169531
Total number of batches                      ...     2655
Average number of points per batch           ...       63
Average number of grid points per atom       ...    10596

--------------------
COSX GRID GENERATION
--------------------

GRIDX 1
-------
General Integration Accuracy     IntAcc      ... 4.020
Radial Grid Type                 RadialGrid  ... OptM3 with GC (2021)
Angular Grid (max. ang.)         AngularGrid ... 2 (Lebedev-110)
Angular grid pruning method      GridPruning ... 4 (adaptive)
Weight generation scheme         WeightScheme... mBecke (2022)
Basis function cutoff            BFCut       ... 3.0000e-16
Integration weight cutoff        WCut        ... 1.0000e-14
Partially contracted basis set               ... on
Rotationally invariant grid construction     ... off
Angular grids for H and He will be reduced by one unit

Total number of grid points                  ...    17005
Total number of batches                      ...      142
Average number of points per batch           ...      119
Average number of grid points per atom       ...     1063
UseSFitting                                  ... on

GRIDX 2
-------
General Integration Accuracy     IntAcc      ... 4.338
Radial Grid Type                 RadialGrid  ... OptM3 with GC (2021)
Angular Grid (max. ang.)         AngularGrid ... 3 (Lebedev-194)
Angular grid pruning method      GridPruning ... 4 (adaptive)
Weight generation scheme         WeightScheme... mBecke (2022)
Basis function cutoff            BFCut       ... 3.0000e-16
Integration weight cutoff        WCut        ... 1.0000e-14
Partially contracted basis set               ... on
Rotationally invariant grid construction     ... off
Angular grids for H and He will be reduced by one unit

Total number of grid points                  ...    39121
Total number of batches                      ...      316
Average number of points per batch           ...      123
Average number of grid points per atom       ...     2445
UseSFitting                                  ... on

GRIDX 3
-------
General Integration Accuracy     IntAcc      ... 4.871
Radial Grid Type                 RadialGrid  ... OptM3 with GC (2021)
Angular Grid (max. ang.)         AngularGrid ... 4 (Lebedev-302)
Angular grid pruning method      GridPruning ... 4 (adaptive)
Weight generation scheme         WeightScheme... mBecke (2022)
Basis function cutoff            BFCut       ... 3.0000e-16
Integration weight cutoff        WCut        ... 1.0000e-14
Partially contracted basis set               ... on
Rotationally invariant grid construction     ... off
Angular grids for H and He will be reduced by one unit

Total number of grid points                  ...    78283
Total number of batches                      ...      621
Average number of points per batch           ...      126
Average number of grid points per atom       ...     4893
UseSFitting                                  ... on
Grids setup in   5.6 sec
Initializing property integral containers    ... done (  0.0 sec)

SHARK setup successfully completed in   6.0 seconds

Maximum memory used throughout the entire STARTUP-calculation: 33.0 MB


           ************************************************************
           *        Program running with 24 parallel MPI-processes    *
           *              working on a common directory               *
           ************************************************************
-------------------------------------------------------------------------------
                                 ORCA GUESS
                   Start orbitals & Density for SCF / CASSCF
-------------------------------------------------------------------------------

------------
SCF SETTINGS
------------
Hamiltonian:
 Density Functional     Method          .... DFT(GTOs)
 Exchange Functional    Exchange        .... PBE
   PBE kappa parameter   XKappa         ....  1.024500
   PBE mue parameter    XMuePBE         ....  0.123457
 Correlation Functional Correlation     .... PBE
   PBE beta parameter  CBetaPBE         ....  0.030000
 LDA part of GGA corr.  LDAOpt          .... PW91-LDA
 Gradients option       PostSCFGGA      .... off
 Hybrid DFT is turned on
   Fraction HF Exchange ScalHFX         ....  0.420000
   Scaling of DF-GGA-X  ScalDFX         ....  0.580000
   Scaling of DF-GGA-C  ScalDFC         ....  1.000000
   Scaling of DF-LDA-C  ScalLDAC        ....  1.000000
   Perturbative correction              ....  0.000000
 RI-approximation to the Coulomb term is turned on
   Number of AuxJ basis functions       .... 336
   RIJ-COSX (HFX calculated with COS-X)).... on


General Settings:
 Integral files         IntName         .... run
 Hartree-Fock type      HFTyp           .... RHF
 Total Charge           Charge          ....    0
 Multiplicity           Mult            ....    1
 Number of Electrons    NEL             ....   64
 Basis Dimension        Dim             ....   96
 Nuclear Repulsion      ENuc            ....    289.6170516325 Eh

Convergence Acceleration:
 AO-DIIS                CNVDIIS         .... on
   Start iteration      DIISMaxIt       ....    12
   Startup error        DIISStart       ....  0.200000
   # of expansion vecs  DIISMaxEq       ....     5
   Bias factor          DIISBfac        ....   1.050
   Max. coefficient     DIISMaxC        ....  10.000
 MO-DIIS                CNVKDIIS        .... off
 Trust-Rad. Augm. Hess. CNVTRAH         .... auto
   Auto Start mean grad. ratio tolernc. ....  1.125000
   Auto Start start iteration           ....    50
   Auto Start num. interpolation iter.  ....    10
   Max. Number of Micro iterations      ....    24
   Max. Number of Macro iterations      .... Maxiter - #DIIS iter
   Number of Davidson start vectors     ....     2
   Converg. threshold    (grad. norm)   ....   1.000e-09
   Grad. Scal. Fac. for Micro threshold ....   0.100
   Minimum threshold for Micro iter.    ....   1.000e-02
   NR start threshold (gradient norm)   ....   1.000e-04
   Initial trust radius                 ....   0.400
   Minimum AH scaling param. (alpha)    ....   1.000
   Maximum AH scaling param. (alpha)    .... 1000.000
   Quad. conv. algorithm                .... NR
   White noise on init. David. guess    .... on
   Maximum white noise                  ....   0.010
   Pseudo random numbers                .... off
   Inactive MOs                         .... canonical
   Orbital update algorithm             .... Taylor
   Preconditioner                       .... Diag
   Full preconditioner red. dimension   ....   250
 SOSCF                 CNVSOSCF           .... on
   Start iteration     SOSCFMaxIt         ....   150
   Startup grad/error  SOSCFStart         ....  0.003300
   Hessian update      SOSCFHessUp        .... L-BFGS
   Autom. constraints  SOSCFAutoConstrain .... off
 Level Shifting         CNVShift        .... on
   Level shift para.    LevelShift      ....    0.2500
   Turn off err/grad.   ShiftErr        ....    0.0010
 Zerner damping         CNVZerner       .... off
 Static damping         CNVDamp         .... on
   Fraction old density DampFac         ....    0.7000
   Max. Damping (<1)    DampMax         ....    0.9800
   Min. Damping (>=0)   DampMin         ....    0.0000
   Turn off err/grad.   DampErr         ....    0.1000

SCF Procedure:
 Maximum # iterations   MaxIter         ....   125
 SCF integral mode      SCFMode         .... Direct
   Integral package                     .... SHARK and LIBINT hybrid scheme
 Reset frequency        DirectResetFreq ....    20
 Integral Threshold     Thresh          ....  3.000e-16 Eh
 Primitive CutOff       TCut            ....  3.000e-16 Eh

Convergence Tolerance:
 Convergence Check Mode ConvCheckMode   .... All-Criteria
 Convergence forced     ConvForced      .... 0
 Energy Change          TolE            ....  1.000e-14 Eh
 Max Density Change     TolMaxP         ....  1.000e-14
 RMS Density Change     TolRMSP         ....  1.000e-14
 Orbital Gradient       TolG            ....  1.000e-09
 Orbital Rotation angle TolX            ....  1.000e-09
 DIIS Error             TolErr          ....  1.000e-14

--------------------------------
INITIAL GUESS: MINIMAL BASIS EHT
--------------------------------
The minimal basis has 48 functions
EHT matrix was diagonalized
Basis set overlap was calculated now projecting the orbitals
Using GuessMode=FMatrix for the initial guess
C*T matrix was formed
Effective Fockian was calculated
Effective Fockian was diagonalized
Initial density was built
                      ------------------
                      INITIAL GUESS DONE
                      ------------------
             **** ENERGY FILE WAS UPDATED (run.en.tmp) ****
Finished Guess after   0.8 sec
Maximum memory used throughout the entire GUESS-calculation: 7.6 MB


           ************************************************************
           *        Program running with 24 parallel MPI-processes    *
           *              working on a common directory               *
           ************************************************************

-------------------------------------------------------------------------------------------
                                      ORCA LEAN-SCF
                              memory conserving SCF solver
-------------------------------------------------------------------------------------------

----------------------------------------D-I-I-S--------------------------------------------
Iteration    Energy (Eh)           Delta-E    RMSDP     MaxDP     DIISErr   Damp  Time(sec)
-------------------------------------------------------------------------------------------
               ***  Starting incremental Fock matrix formation  ***
    1    -974.1889111012108060     0.00e+00  4.33e-02  9.45e-02  3.44e-01  0.700   1.0
    2    -974.6265425957799380    -4.38e-01  3.65e-02  7.48e-02  2.45e-01  0.700   0.6
                               ***Turning on AO-DIIS***
    3    -974.9310729373501090    -3.05e-01  2.56e-02  4.87e-02  1.70e-01  0.700   0.5
    4    -975.1378314478470202    -2.07e-01  1.82e-02  3.34e-02  1.18e-01  0.700   0.5
    5    -975.2800831899592140    -1.42e-01  1.29e-02  2.34e-02  8.26e-02  0.700   0.5
    6    -975.3786924188057128    -9.86e-02  3.05e-02  5.49e-02  5.77e-02  0.000   0.5
                              *** Initializing SOSCF ***
---------------------------------------S-O-S-C-F--------------------------------------
Iteration    Energy (Eh)           Delta-E    RMSDP     MaxDP     MaxGrad    Time(sec)
--------------------------------------------------------------------------------------
    7    -975.6060003033319390    -2.27e-01  6.02e-04  1.23e-03  8.28e-04     0.8
               *** Restarting incremental Fock matrix formation ***
    8    -975.6060348831597366    -3.46e-05  4.21e-04  1.43e-03  2.49e-04     0.9
    9    -975.6060385527136987    -3.67e-06  1.05e-04  3.29e-04  4.50e-05     0.8
   10    -975.6060387145146251    -1.62e-07  5.71e-06  1.72e-05  2.23e-06     0.8
   11    -975.6060387151333089    -6.19e-10  1.33e-06  6.07e-06  7.05e-07     0.7
   12    -975.6060387151846953    -5.14e-11  2.68e-07  1.48e-06  1.32e-07     0.7
   13    -975.6060387151896975    -5.00e-12  4.80e-08  2.56e-07  3.15e-08     0.7
   14    -975.6060387151892428     4.55e-13  3.56e-09  3.74e-09  2.32e-09     0.7
   15    -975.6060387151890154     2.27e-13  4.58e-10  6.11e-10  1.01e-09     0.6
   16    -975.6060387151894702    -4.55e-13  0.00e+00  0.00e+00  9.98e-10     0.5
                           ***RMSP convergence achieved***
                           ***MAXP convergence achieved***
                       ***Gradient convergence achieved***
                    ***Orbital Rotation convergence achieved***
   17    -975.6060387151894702     0.00e+00  0.00e+00  0.00e+00  9.98e-10     0.3
                          ***Energy convergence achieved***

               *****************************************************
               *                     SUCCESS                       *
               *           SCF CONVERGED AFTER  17 CYCLES          *
               *****************************************************

Recomputing exchange energy using gridx3       ... done (    1.026 sec)
Old exchange energy                            :    -32.222692683 Eh
New exchange energy                            :    -32.222701980 Eh
Exchange energy change after final integration :     -0.000009298 Eh
Total energy after final integration           :   -975.606048013 Eh
             **** ENERGY FILE WAS UPDATED (run.en.tmp) ****

----------------
TOTAL SCF ENERGY
----------------

Total Energy       :       -975.60604801295904 Eh          -26547.59022 eV

Components:
Nuclear Repulsion  :        289.61705163250696 Eh            7880.88063 eV
Electronic Energy  :      -1265.22309034769614 Eh          -34428.47060 eV
One Electron Energy:      -1931.50067554512111 Eh          -52558.80542 eV
Two Electron Energy:        666.27758519742486 Eh           18130.33482 eV

Virial components:
Potential Energy   :      -1948.93769646646547 Eh          -53033.29088 eV
Kinetic Energy     :        973.33164845350643 Eh           26485.70066 eV
Virial Ratio       :          2.00233671592110

DFT components:
N(Alpha)           :       31.999997010603 electrons
N(Beta)            :       31.999997010603 electrons
N(Total)           :       63.999994021205 electrons
E(X)               :      -42.858095725055 Eh       
E(C)               :       -2.959746798432 Eh       
E(XC)              :      -45.817842523487 Eh       

---------------
SCF CONVERGENCE
---------------

  Last Energy change         ...    0.0000e+00  Tolerance :   1.0000e-14
  Last MAX-Density change    ...    0.0000e+00  Tolerance :   1.0000e-14
  Last RMS-Density change    ...    0.0000e+00  Tolerance :   1.0000e-14
  Last DIIS Error            ...    8.2757e-04  Tolerance :   1.0000e-14
  Last Orbital Gradient      ...    9.9751e-10  Tolerance :   1.0000e-09
  Last Orbital Rotation      ...    0.0000e+00  Tolerance :   1.0000e-09


----------------
ORBITAL ENERGIES
----------------

  NO   OCC          E(Eh)            E(eV) 
   0   2.0000     -56.629471     -1540.9663 
   1   2.0000     -56.629164     -1540.9579 
   2   2.0000     -56.627940     -1540.9246 
   3   2.0000     -56.627733     -1540.9190 
   4   2.0000      -4.370249      -118.9205 
   5   2.0000      -4.369881      -118.9105 
   6   2.0000      -4.367571      -118.8477 
   7   2.0000      -4.367284      -118.8398 
   8   2.0000      -2.861190       -77.8569 
   9   2.0000      -2.860830       -77.8472 
  10   2.0000      -2.859393       -77.8080 
  11   2.0000      -2.859035       -77.7983 
  12   2.0000      -2.858508       -77.7840 
  13   2.0000      -2.858195       -77.7754 
  14   2.0000      -2.856902       -77.7403 
  15   2.0000      -2.856639       -77.7331 
  16   2.0000      -2.854997       -77.6884 
  17   2.0000      -2.854596       -77.6775 
  18   2.0000      -2.852190       -77.6120 
  19   2.0000      -2.851879       -77.6036 
  20   2.0000      -0.600288       -16.3347 
  21   2.0000      -0.532953       -14.5024 
  22   2.0000      -0.526965       -14.3395 
  23   2.0000      -0.448503       -12.2044 
  24   2.0000      -0.427068       -11.6211 
  25   2.0000      -0.397839       -10.8257 
  26   2.0000      -0.387367       -10.5408 
  27   2.0000      -0.382737       -10.4148 
  28   2.0000      -0.373954       -10.1758 
  29   2.0000      -0.365694        -9.9510 
  30   2.0000      -0.357713        -9.7339 
  31   2.0000      -0.354673        -9.6511 
  32   0.0000      -0.018132        -0.4934 
  33   0.0000      -0.009397        -0.2557 
  34   0.0000      -0.005102        -0.1388 
  35   0.0000      -0.002999        -0.0816 
  36   0.0000       0.014786         0.4023 
  37   0.0000       0.025472         0.6931 
  38   0.0000       0.055864         1.5201 
  39   0.0000       0.066376         1.8062 
  40   0.0000       0.069858         1.9009 
  41   0.0000       0.076520         2.0822 
  42   0.0000       0.089132         2.4254 
*Only the first 10 virtual orbitals were printed.
-------
TIMINGS
-------

Total SCF time: 0 days 0 hours 0 min 13 sec 

Total time                  ....      13.189 sec
Sum of individual times     ....      12.775 sec  ( 96.9%)

SCF preparation             ....       0.697 sec  (  5.3%)
Fock matrix formation       ....      11.614 sec  ( 88.1%)
  Startup                   ....       0.010 sec  (  0.1% of F)
  Split-RI-J                ....       0.569 sec  (  4.9% of F)
  Chain of spheres X        ....       7.790 sec  ( 67.1% of F)
  XC integration            ....       2.955 sec  ( 25.4% of F)
    XC Preparation          ....       0.000 sec  (  0.0% of XC)
    Basis function eval.    ....       0.804 sec  ( 27.2% of XC)
    Density eval.           ....       0.431 sec  ( 14.6% of XC)
    XC-Functional eval.     ....       0.159 sec  (  5.4% of XC)
    XC-Potential eval.      ....       0.410 sec  ( 13.9% of XC)
Diagonalization             ....       0.000 sec  (  0.0%)
Density matrix formation    ....       0.072 sec  (  0.5%)
Total Energy calculation    ....       0.043 sec  (  0.3%)
Population analysis         ....       0.000 sec  (  0.0%)
Orbital Transformation      ....       0.023 sec  (  0.2%)
Orbital Orthonormalization  ....       0.000 sec  (  0.0%)
DIIS solution               ....       0.155 sec  (  1.2%)
SOSCF solution              ....       0.172 sec  (  1.3%)
Finished LeanSCF after  13.2 sec

Maximum memory used throughout the entire LEANSCF-calculation: 10.0 MB


           ************************************************************
           *        Program running with 24 parallel MPI-processes    *
           *              working on a common directory               *
           ************************************************************

------------------------------------------------------------------------------
                         ORCA PROPERTY INTEGRAL CALCULATIONS
------------------------------------------------------------------------------

GBWName                                   ... run.gbw
Number of atoms                           ...     16
Number of basis functions                 ...     96
Max core memory                           ...   4096 MB

Dipole integrals                          ... YES
Quadrupole integrals                      ...  NO
Linear momentum integrals                 ...  NO
Angular momentum integrals                ...  NO
Higher moments length integrals           ...  NO
Higher moments velocity integrals         ...  NO
Kinetic energy integrals                  ...  NO
GIAO right hand sides                     ...  NO
GIAO dipole derivative integrals          ...  NO
SOC integrals                             ...  NO
EPR diamagnetic integrals (GIAO)          ...  NO
EPR gauge integrals                       ...  NO
Field gradient integrals                  ...  NO (   0 nuclei)
Spin-dipole/Fermi contact integrals       ...  NO (   0 nuclei)
Contact density integrals                 ...  NO (   0 nuclei)
Nucleus-orbit integrals                   ...  NO (   0 nuclei)
Geometric perturbations                   ...  NO (  16 nuclei)

Choice of electric origin   ... Center of mass
Position of electric origin ... (  0.5297, -1.7314,  3.9713) 
Choice of magnetic origin   ... GIAO
Position of magnetic origin ... (  0.0000,  0.0000,  0.0000) 

Calculating integrals                     ... Electric Dipole (Length)     done (  0.0 sec)

Property integrals calculated in   0.0 sec

Maximum memory used throughout the entire PROPINT-calculation: 7.8 MB


-------------------------------------------------------------------------------
                          DFT DISPERSION CORRECTION                            
                                                                               
                              DFTD3 V3.1  Rev 1                                
                          USING Becke-Johnson damping                          
-------------------------------------------------------------------------------
The PBEh-3c composite method is recognized
Using three-body term ABC
Active option DFTDOPT                   ...         4   

molecular C6(AA) [au] = 4941.447982 


            DFT-D V3
 parameters
 s6 scaling factor         :     1.0000 
 a1 scaling factor         :     0.4860 
 s8 scaling factor         :     0.0000 
 a2 scaling factor         :     4.5000 
 Damping factor alpha9(ATM):    16.0000 
 ad hoc parameters k1-k3   :    16.0000     1.3333    -4.0000 

 Edisp/kcal,au: -4.325645986208  -0.006893354927 
 E6   /kcal   :  -4.350324341 
 E8   /kcal   :  -0.000000000 
 E6(ABC)      :   0.024678355 
 % E8         :   0.000000000 
 % E6(ABC)    :  -0.570512586 

-------------------------   ----------------
Dispersion correction           -0.006893355
-------------------------   ----------------

------------------   -----------------
gCP correction             0.026985571
------------------   -----------------

-------------------------   --------------------
FINAL SINGLE POINT ENERGY      -975.585955796986
-------------------------   --------------------



           ************************************************************
           *        Program running with 24 parallel MPI-processes    *
           *              working on a common directory               *
           ************************************************************
------------------------------------------------------------------------------
                         ORCA SCF GRADIENT CALCULATION
------------------------------------------------------------------------------

Nuc. rep. gradient        (SHARK) ... done (  0.0 sec)
HCore & Overlap gradient  (SHARK) ... done (  0.0 sec)
Split-RIJ-J gradient      (SHARK) ... done (  0.3 sec)
done (  4.7 sec)
XC gradient                       ... done (  1.4 sec)
Dispersion correction             ... done (  0.1 sec)

-------------------
DISPERSION GRADIENT
-------------------

   1   Al  :    0.000042473    0.000203823    0.000041213
   2   Al  :   -0.000056872    0.000034664   -0.000186164
   3   H   :    0.000009529   -0.000050500   -0.000082204
   4   H   :   -0.000096633    0.000017797   -0.000078905
   5   H   :    0.000030355    0.000069759   -0.000054842
   6   H   :   -0.000014910    0.000093724    0.000016266
   7   H   :   -0.000023073    0.000049601    0.000077241
   8   H   :   -0.000009998    0.000017312   -0.000082542
   9   Al  :    0.000087690   -0.000169406   -0.000040668
  10   H   :   -0.000027979   -0.000086308    0.000031069
  11   H   :    0.000027687   -0.000078604   -0.000019449
  12   H   :    0.000065640    0.000080130    0.000031014
  13   Al  :   -0.000074447   -0.000069757    0.000189916
  14   H   :   -0.000070835   -0.000020369    0.000063837
  15   H   :    0.000005449   -0.000030342    0.000096154
  16   H   :    0.000105923   -0.000061526   -0.000001936

Difference to translation invariance:
           :    0.0000000000    0.0000000000    0.0000000000

Difference to rotation invariance:
           :    0.0000000000   -0.0000000000    0.0000000000

Norm of the Dispersion gradient    ...    0.0005395357
RMS gradient                       ...    0.0000778753
MAX gradient                       ...    0.0002038226
gCP correction                   ... done

------------------
CARTESIAN GRADIENT
------------------

   1   Al  :   -0.000763506   -0.001983840   -0.000765047
   2   Al  :   -0.000931183   -0.000088042    0.002541681
   3   H   :    0.000217449   -0.002162171   -0.003370540
   4   H   :   -0.004029504    0.000059780    0.001525292
   5   H   :    0.003925513    0.000770625   -0.001468783
   6   H   :   -0.003119922    0.003288769   -0.000271814
   7   H   :   -0.001839471    0.001401358    0.001254073
   8   H   :    0.001005023    0.001091892   -0.004228954
   9   Al  :    0.000491990    0.002490688    0.001387380
  10   H   :   -0.003726403   -0.002233901   -0.000794176
  11   H   :    0.000058970   -0.004339984   -0.001072306
  12   H   :    0.004245442    0.000584695    0.001477239
  13   Al  :    0.002663706    0.000051044   -0.001483620
  14   H   :   -0.004568599    0.000031312    0.000618572
  15   H   :    0.002986668   -0.001074645    0.003182684
  16   H   :    0.003383826    0.002112421    0.001468321

Difference to translation invariance:
           :    0.0000000000   -0.0000000000    0.0000000000

Difference to rotation invariance:
           :    0.0000394890    0.0000758601    0.0000635142

Norm of the Cartesian gradient     ...    0.0158152401
RMS gradient                       ...    0.0022827333
MAX gradient                       ...    0.0045685988

-------
TIMINGS
-------

Total SCF gradient time     ....        6.594 sec

Densities                   ....       0.002 sec  (  0.0%)
One electron gradient       ....       0.049 sec  (  0.7%)
RI-J Coulomb gradient       ....       0.301 sec  (  4.6%)
COSX gradient               ....       4.724 sec  ( 71.6%)
XC gradient                 ....       1.378 sec  ( 20.9%)

Maximum memory used throughout the entire SCFGRAD-calculation: 27.5 MB
------------------------------------------------------------------------------
                         ORCA GEOMETRY RELAXATION STEP
------------------------------------------------------------------------------

Reading the OPT-File                    .... done
Getting information on internals        .... done
Copying old internal coords+grads       .... done
Making the new internal coordinates     .... (2022 redundants) done
Validating the new internal coordinates .... (2022 redundants) done
Calculating the B-matrix                .... done
Calculating the G,G- and P matrices     .... done
Transforming gradient to internals      .... done
Projecting the internal gradient        .... done
Number of atoms                         ....  16
Number of internal coordinates          .... 156
Current Energy                          ....  -975.585955797 Eh
Current gradient norm                   ....     0.015815240 Eh/bohr
Maximum allowed component of the step   ....  0.300
Current trust radius                    ....  0.300
Evaluating the initial hessian          ....  (Almloef) done
Projecting the Hessian                  .... done
Forming the augmented Hessian           .... done
Diagonalizing the augmented Hessian     .... done
Last element of RFO vector              ....  0.998793500
Lowest eigenvalues of augmented Hessian:
 -0.000636210  0.011543331  0.016561247  0.018842766  0.029630148
Length of the computed step             ....  0.049166807
The final length of the internal step   ....  0.049166807
Converting the step to Cartesian space:
 Initial RMS(Int)=    0.0039364950
Transforming coordinates:
 Iter   0:  RMS(Cart)=    0.0076362343 RMS(Int)=    0.0039377738
done
Storing new coordinates                 .... done

                                .--------------------.
          ----------------------|Geometry convergence|-------------------------
          Item                value                   Tolerance       Converged
          ---------------------------------------------------------------------
          RMS gradient        0.0011526710            0.0000080000      NO
          MAX gradient        0.0046090036            0.0000300000      NO
          RMS step            0.0039364950            0.0001000000      NO
          MAX step            0.0138787249            0.0002000000      NO
          -------------------------------------------------------------------------
          ........................................................
          Max(Bonds)      0.0073      Max(Angles)    0.30
          Max(Dihed)        0.36      Max(Improp)    0.00
          ---------------------------------------------------------------------

The optimization has not yet converged - more geometry cycles are needed


    ---------------------------------------------------------------------------
                         Redundant Internal Coordinates
                            (Angstroem and degrees)

        Definition                    Value    dE/dq     Step     New-Value
    ----------------------------------------------------------------------------
     1. B(Al  1,Al  0)                3.0930  0.001202 -0.0043    3.0887   
     2. B(H   2,Al  1)                1.7189  0.001779 -0.0048    1.7141   
     3. B(H   3,Al  1)                1.5892  0.004262 -0.0056    1.5836   
     4. B(H   4,Al  1)                1.7080  0.001914 -0.0049    1.7031   
     5. B(H   4,Al  0)                1.7156  0.001344 -0.0040    1.7116   
     6. B(H   5,Al  0)                1.5891  0.004532 -0.0059    1.5831   
     7. B(H   6,Al  0)                1.7011  0.000926 -0.0042    1.6968   
     8. B(H   7,Al  1)                1.5865  0.004478 -0.0058    1.5807   
     9. B(Al  8,H   2)                1.7177  0.001861 -0.0050    1.7127   
    10. B(Al  8,Al  1)                3.1244  0.001368 -0.0057    3.1187   
    11. B(H   9,Al  8)                1.7099  0.001993 -0.0050    1.7049   
    12. B(H  10,Al  8)                1.5862  0.004465 -0.0058    1.5804   
    13. B(H  11,Al  0)                1.5858  0.004528 -0.0059    1.5800   
    14. B(Al 12,H   6)                1.6991  0.000887 -0.0042    1.6950   
    15. B(Al 12,Al  0)                3.3570  0.001286 -0.0073    3.3496   
    16. B(Al 12,H   9)                1.7177  0.001212 -0.0040    1.7137   
    17. B(Al 12,Al  8)                3.0616  0.001089 -0.0039    3.0576   
    18. B(H  13,Al 12)                1.5873  0.004609 -0.0060    1.5813   
    19. B(H  14,Al 12)                1.5877  0.004470 -0.0058    1.5819   
    20. B(H  15,Al  8)                1.5895  0.004210 -0.0055    1.5840   
    21. A(H   5,Al  0,H  11)          128.23 -0.000102    0.05    128.28   
    22. A(Al  1,Al  0,Al 12)           79.56  0.000103    0.01     79.57   
    23. A(Al  1,Al  0,H  11)          128.26  0.000046   -0.04    128.22   
    24. A(H   4,Al  0,Al 12)           93.40  0.000460   -0.09     93.31   
    25. A(H  11,Al  0,Al 12)          103.45 -0.000028    0.00    103.45   
    26. A(H   4,Al  0,H  11)          104.52 -0.000596    0.10    104.62   
    27. A(Al  1,Al  0,H   4)           25.33  0.000669   -0.15     25.17   
    28. A(Al  1,Al  0,H   5)           93.86  0.000042   -0.02     93.84   
    29. A(H   4,Al  0,H   5)          107.58  0.000374   -0.07    107.51   
    30. A(H   4,Al  0,H   6)           98.80  0.000814   -0.17     98.63   
    31. A(H   5,Al  0,H   6)          105.03 -0.000453    0.08    105.10   
    32. A(H   6,Al  0,H  11)          108.91  0.000252   -0.05    108.86   
    33. A(H   5,Al  0,Al 12)          113.85  0.000028   -0.02    113.83   
    34. A(H   6,Al  0,Al 12)            9.14  0.000492   -0.10      9.04   
    35. A(Al  1,Al  0,H   6)           82.07  0.000241   -0.02     82.05   
    36. A(Al  0,Al  1,H   7)          124.44 -0.000118    0.00    124.44   
    37. A(H   3,Al  1,H   4)          109.08  0.000787   -0.17    108.90   
    38. A(H   2,Al  1,H   3)          107.96  0.000306   -0.10    107.86   
    39. A(H   2,Al  1,H   7)          105.27 -0.000528    0.11    105.38   
    40. A(H   3,Al  1,Al  8)           97.61  0.000122   -0.06     97.55   
    41. A(Al  0,Al  1,H   2)          103.94  0.000625   -0.10    103.85   
    42. A(H   7,Al  1,Al  8)          126.42  0.000073    0.00    126.42   
    43. A(H   2,Al  1,H   4)           94.74  0.000275   -0.03     94.71   
    44. A(Al  0,Al  1,H   4)           25.45  0.000587   -0.14     25.31   
    45. A(Al  0,Al  1,H   3)           83.64  0.000197   -0.03     83.61   
    46. A(H   4,Al  1,Al  8)           77.03 -0.000084    0.02     77.04   
    47. A(H   2,Al  1,Al  8)           24.60  0.000723   -0.13     24.47   
    48. A(Al  0,Al  1,Al  8)           80.71 -0.000060    0.02     80.74   
    49. A(H   4,Al  1,H   7)          106.10 -0.000576    0.12    106.23   
    50. A(H   3,Al  1,H   7)          128.49 -0.000162    0.05    128.54   
    51. A(Al  1,H   2,Al  8)          130.78 -0.001435    0.25    131.03   
    52. A(Al  0,H   4,Al  1)          129.22 -0.001256    0.29    129.52   
    53. A(Al  0,H   6,Al 12)          161.71 -0.000987    0.21    161.91   
    54. A(H   9,Al  8,H  15)          108.71  0.000708   -0.17    108.53   
    55. A(H   2,Al  8,H  15)          108.16  0.000339   -0.11    108.05   
    56. A(Al  1,Al  8,H  15)           94.06  0.000029   -0.03     94.03   
    57. A(H   2,Al  8,H  10)          105.43 -0.000602    0.13    105.56   
    58. A(Al  1,Al  8,H  10)          128.60  0.000074    0.00    128.60   
    59. A(H   2,Al  8,H   9)           94.21  0.000346   -0.02     94.19   
    60. A(Al  1,Al  8,H   9)           79.69  0.000104   -0.02     79.67   
    61. A(Al  1,Al  8,H   2)           24.62  0.000712   -0.12     24.50   
    62. A(H   9,Al  8,H  10)          106.41 -0.000480    0.12    106.53   
    63. A(H  10,Al  8,Al 12)          124.23 -0.000080    0.00    124.23   
    64. A(H   9,Al  8,Al 12)           26.78  0.000549   -0.14     26.64   
    65. A(H   2,Al  8,Al 12)          105.51  0.000728   -0.11    105.41   
    66. A(Al  1,Al  8,Al 12)           83.81  0.000099   -0.01     83.80   
    67. A(H  10,Al  8,H  15)          128.54 -0.000175    0.05    128.59   
    68. A(Al 12,Al  8,H  15)           82.05  0.000154   -0.03     82.03   
    69. A(Al  8,H   9,Al 12)          126.56 -0.001218    0.30    126.87   
    70. A(H   9,Al 12,H  14)          108.54  0.000579   -0.12    108.43   
    71. A(Al  8,Al 12,H  14)           90.67  0.000194   -0.05     90.62   
    72. A(H   6,Al 12,H  14)          108.71  0.000249   -0.06    108.65   
    73. A(Al  0,Al 12,H  14)          103.90  0.000016   -0.03    103.88   
    74. A(H   9,Al 12,H  13)          103.68 -0.000642    0.13    103.80   
    75. A(Al  8,Al 12,H  13)          129.94  0.000011   -0.03    129.92   
    76. A(H   6,Al 12,H  13)          105.75 -0.000459    0.10    105.84   
    77. A(Al  0,Al 12,H  13)          114.31  0.000010    0.00    114.32   
    78. A(H  13,Al 12,H  14)          128.07 -0.000151    0.05    128.12   
    79. A(Al  8,Al 12,H   9)           26.65  0.000668   -0.16     26.49   
    80. A(H   6,Al 12,H   9)           98.01  0.000622   -0.14     97.87   
    81. A(Al  0,Al 12,H   9)           92.48  0.000404   -0.08     92.40   
    82. A(H   6,Al 12,Al  8)           85.48  0.000404   -0.06     85.42   
    83. A(Al  0,Al 12,Al  8)           77.55 -0.000021    0.04     77.58   
    84. A(Al  0,Al 12,H   6)            9.15  0.000495   -0.10      9.05   
    85. D(H   2,Al  1,Al  0,Al 12)    -50.89 -0.000160    0.05    -50.84   
    86. D(H   2,Al  1,Al  0,H   6)    -59.80 -0.000635    0.15    -59.65   
    87. D(H   3,Al  1,Al  0,Al 12)     56.08  0.000175   -0.05     56.03   
    88. D(H   3,Al  1,Al  0,H   5)    -57.48  0.000155   -0.03    -57.51   
    89. D(H   2,Al  1,Al  0,H   4)     71.13 -0.000172    0.00     71.13   
    90. D(H   3,Al  1,Al  0,H   4)    178.10  0.000163   -0.10    178.00   
    91. D(H   3,Al  1,Al  0,H   6)     47.18 -0.000300    0.05     47.23   
    92. D(H   2,Al  1,Al  0,H   5)   -164.45 -0.000180    0.07   -164.38   
    93. D(H   2,Al  1,Al  0,H  11)     48.08 -0.000119    0.07     48.14   
    94. D(H   3,Al  1,Al  0,H  11)    155.05  0.000215   -0.03    155.02   
    95. D(Al  8,H   2,Al  1,H   7)    151.88 -0.000052   -0.00    151.88   
    96. D(Al  8,H   2,Al  1,H   3)    -68.06 -0.000457    0.08    -67.98   
    97. D(Al  8,H   2,Al  1,Al  0)     19.67  0.000025   -0.01     19.67   
    98. D(Al  8,H   2,Al  1,H   4)     43.75  0.000560   -0.14     43.61   
    99. D(Al  0,H   4,Al  1,Al  8)    -95.67  0.000222   -0.08    -95.75   
   100. D(Al  1,H   4,Al  0,H   5)    -59.70 -0.000207    0.12    -59.58   
   101. D(Al  0,H   4,Al  1,H   3)     -1.99  0.000161   -0.11     -2.10   
   102. D(Al  0,H   4,Al  1,H   2)   -112.85 -0.000454    0.05   -112.80   
   103. D(Al  1,H   4,Al  0,Al 12)     56.64  0.000082    0.05     56.69   
   104. D(Al  1,H   4,Al  0,H  11)    161.48  0.000105    0.03    161.52   
   105. D(Al  1,H   4,Al  0,H   6)     49.22 -0.000281    0.12     49.34   
   106. D(Al  0,H   4,Al  1,H   7)    139.75  0.000115   -0.08    139.67   
   107. D(Al 12,H   6,Al  0,H  11)    -54.48 -0.000181    0.10    -54.38   
   108. D(Al 12,H   6,Al  0,H   5)    165.23  0.000135    0.01    165.24   
   109. D(Al 12,H   6,Al  0,H   4)     54.25 -0.000425    0.12     54.38   
   110. D(Al 12,H   6,Al  0,Al  1)     73.34 -0.000032    0.05     73.39   
   111. D(H   2,Al  8,Al  1,H   3)    117.10 -0.000198    0.02    117.11   
   112. D(H   2,Al  8,Al  1,Al  0)   -160.67 -0.000027   -0.00   -160.67   
   113. D(H   2,Al  8,Al  1,H   7)    -34.40 -0.000202    0.02    -34.38   
   114. D(H   2,Al  8,Al  1,H   4)   -134.99  0.000582   -0.15   -135.14   
   115. D(H   9,Al  8,Al  1,Al  0)     74.14  0.000489   -0.21     73.93   
   116. D(H  15,Al  8,H   2,Al  1)    -57.53 -0.000406    0.01    -57.52   
   117. D(H  10,Al  8,H   2,Al  1)    162.04  0.000058   -0.07    161.97   
   118. D(H   9,Al  8,H   2,Al  1)     53.73  0.000556   -0.21     53.52   
   119. D(H  10,Al  8,Al  1,Al  0)    176.98 -0.000045   -0.07    176.91   
   120. D(H   9,Al  8,Al  1,H   7)   -159.59  0.000313   -0.19   -159.78   
   121. D(H   9,Al  8,Al  1,H   4)     99.82  0.001097   -0.36     99.46   
   122. D(Al 12,Al  8,H   2,Al  1)     29.03  0.000076   -0.08     28.95   
   123. D(H   9,Al  8,Al  1,H   3)     -8.09  0.000318   -0.19     -8.29   
   124. D(H   9,Al  8,Al  1,H   2)   -125.19  0.000516   -0.21   -125.40   
   125. D(Al 12,H   9,Al  8,H  15)     -5.91  0.000155   -0.08     -5.98   
   126. D(Al 12,H   9,Al  8,H  10)    135.86  0.000111   -0.06    135.80   
   127. D(Al 12,H   9,Al  8,H   2)   -116.70 -0.000492    0.09   -116.61   
   128. D(Al 12,H   9,Al  8,Al  1)    -96.74  0.000214   -0.07    -96.80   
   129. D(Al  0,Al 12,Al  8,H  10)   -176.51 -0.000080    0.03   -176.49   
   130. D(Al  0,Al 12,Al  8,H   9)   -122.61 -0.000117    0.07   -122.55   
   131. D(Al  0,Al 12,Al  8,H   2)    -55.00 -0.000289    0.11    -54.89   
   132. D(H  14,Al 12,H   6,Al  0)     59.51  0.000281   -0.15     59.36   
   133. D(H  13,Al 12,H   6,Al  0)   -159.97 -0.000112   -0.05   -160.02   
   134. D(H   9,Al 12,H   6,Al  0)    -53.25 -0.000692    0.06    -53.19   
   135. D(Al  8,Al 12,H   6,Al  0)    -29.67 -0.000041   -0.08    -29.75   
   136. D(H   9,Al 12,Al  0,Al  1)     22.19 -0.000566    0.07     22.26   
   137. D(Al  8,Al 12,Al  0,H  11)    -82.70 -0.000110   -0.01    -82.71   
   138. D(Al  8,Al 12,Al  0,H   6)    149.65 -0.000064   -0.08    149.57   
   139. D(Al  8,Al 12,Al  0,H   5)    134.03  0.000042   -0.06    133.97   
   140. D(Al  8,Al 12,Al  0,H   4)     23.11 -0.000610    0.07     23.18   
   141. D(Al  8,Al 12,Al  0,Al  1)     44.42 -0.000045   -0.05     44.37   
   142. D(Al  0,Al 12,Al  8,Al  1)    -43.26  0.000060    0.02    -43.25   
   143. D(H   6,Al 12,Al  0,H  11)    127.65 -0.000047    0.07    127.72   
   144. D(H   6,Al 12,Al  0,H   5)    -15.61  0.000106    0.02    -15.60   
   145. D(H   6,Al 12,Al  0,H   4)   -126.54 -0.000546    0.15   -126.39   
   146. D(Al  0,Al 12,Al  8,H  15)     51.73  0.000056   -0.01     51.72   
   147. D(H   6,Al 12,Al  0,Al  1)   -105.23  0.000018    0.03   -105.20   
   148. D(H  14,Al 12,H   9,Al  8)    -50.14 -0.000333    0.14    -50.00   
   149. D(H   6,Al 12,H   9,Al  8)     62.74  0.000374   -0.02     62.72   
   150. D(Al  0,Al 12,H   9,Al  8)     55.41 -0.000090    0.07     55.48   
   151. D(H   6,Al 12,Al  8,H  15)     56.36  0.000311   -0.05     56.31   
   152. D(H   6,Al 12,Al  8,H  10)   -171.89  0.000175   -0.01   -171.90   
   153. D(H   6,Al 12,Al  8,H   9)   -117.99  0.000137    0.03   -117.96   
   154. D(H  13,Al 12,H   9,Al  8)    171.18 -0.000069    0.07    171.25   
   155. D(H   6,Al 12,Al  8,H   2)    -50.37 -0.000034    0.06    -50.31   
   156. D(H   6,Al 12,Al  8,Al  1)    -38.64  0.000315   -0.02    -38.66   
    ----------------------------------------------------------------------------

Geometry step timings:
Preparation and reading OPT file:      0.000 s ( 0.291 %)
Internal coordinates            :      0.000 s ( 0.467 %)
B/P matrices and projection     :      0.004 s (26.139 %)
Hessian update/contruction      :      0.002 s (11.720 %)
Making the step                 :      0.008 s (50.470 %)
Converting the step to Cartesian:      0.000 s ( 2.572 %)
Storing new data                :      0.000 s ( 0.431 %)
[...]
     41       0.010291  -0.007043  -0.019340  -0.039300   0.024343   0.021371
     42       0.397078   0.010759   0.131941   0.140119  -0.226942   0.091695
     43      -0.160344  -0.003012  -0.059353  -0.059900   0.092936  -0.063275
     44       0.445990   0.010584   0.154228   0.163182  -0.256497   0.121153
     45      -0.149929   0.133640   0.019034   0.017125  -0.087841   0.030567
     46      -0.117106   0.096333   0.018683   0.014370  -0.063784   0.024731
     47      -0.074020   0.064732   0.014320   0.011045  -0.041352   0.009172


-----------
IR SPECTRUM
-----------

 Mode   freq       eps      Int      T**2         TX        TY        TZ
       cm**-1   L/(mol*cm) km/mol    a.u.
----------------------------------------------------------------------------
  6:     52.51   0.000010    0.05  0.000062  ( 0.000740 -0.004130 -0.006682)
  7:     61.71   0.000128    0.65  0.000646  (-0.021076 -0.013305  0.004979)
  8:    129.60   0.000000    0.00  0.000000  ( 0.000045 -0.000198  0.000147)
  9:    136.39   0.000077    0.39  0.000177  (-0.000498 -0.011845  0.006058)
 10:    140.28   0.000327    1.65  0.000728  (-0.003286  0.013551  0.023096)
 11:    155.78   0.000210    1.06  0.000421  (-0.010352 -0.015750  0.008130)
 12:    253.75   0.000130    0.66  0.000160  (-0.009250  0.006833 -0.005254)
 13:    274.87   0.000429    2.17  0.000487  (-0.002674  0.011249  0.018788)
 14:    293.79   0.001003    5.07  0.001065  ( 0.003983 -0.016623 -0.027800)
 15:    378.66   0.002006   10.14  0.001653  (-0.022718 -0.030130  0.015140)
 16:    382.72   0.002450   12.38  0.001997  (-0.005303  0.022948  0.037983)
 17:    396.68   0.001247    6.30  0.000981  ( 0.020708  0.021382 -0.009763)
 18:    414.26   0.000212    1.07  0.000160  (-0.001574  0.006427  0.010758)
 19:    437.37   0.000013    0.07  0.000010  ( 0.000383 -0.001552 -0.002647)
 20:    486.94   0.000786    3.97  0.000504  (-0.002749  0.011458  0.019102)
 21:    516.72   0.000603    3.05  0.000364  ( 0.003179 -0.015938  0.010007)
 22:    557.86   0.012060   60.95  0.006746  (-0.006915 -0.070604  0.041397)
 23:    627.70   0.047283  238.95  0.023507  (-0.018668  0.078179  0.130564)
 24:    708.65   0.143736  726.38  0.063296  ( 0.093995  0.205982 -0.109694)
 25:    718.72   0.118574  599.22  0.051484  ( 0.028322 -0.116114 -0.192872)
 26:    723.78   0.120956  611.26  0.052152  (-0.162906  0.125385 -0.099458)
 27:    750.09   0.000127    0.64  0.000053  (-0.000844  0.003818  0.006132)
 28:    768.09   0.036649  185.21  0.014890  (-0.060531 -0.094383  0.048143)
 29:    779.31   0.039985  202.07  0.016011  ( 0.015188 -0.064772 -0.107634)
 30:    794.14   0.049059  247.92  0.019278  (-0.008823  0.118344 -0.072076)
 31:    801.30   0.040512  204.73  0.015777  ( 0.100798 -0.056960  0.048711)
 32:    823.64   0.035723  180.53  0.013535  (-0.014413  0.059231  0.099090)
 33:   1020.04   0.033519  169.39  0.010255  ( 0.012298 -0.051738 -0.086177)
 34:   1073.15   0.032321  163.33  0.009399  ( 0.084988  0.017226 -0.043346)
 35:   1073.41   0.030547  154.37  0.008881  ( 0.072211  0.055646  0.023871)
 36:   1851.63   0.030570  154.49  0.005152  (-0.016432 -0.060999  0.034076)
 37:   1915.48   0.257772  1302.67  0.041995  ( 0.024835 -0.104547 -0.174495)
 38:   1940.46   0.159333  805.21  0.025624  (-0.111049  0.091311 -0.070388)
 39:   1994.72   0.079436  401.44  0.012427  ( 0.017484  0.095538 -0.054719)
 40:   2006.51   0.037108  187.53  0.005771  (-0.009245  0.038475  0.064850)
 41:   2013.42   0.047449  239.79  0.007354  (-0.004310 -0.073798  0.043467)
 42:   2017.49   0.001985   10.03  0.000307  (-0.002147  0.009013  0.014873)
 43:   2028.70   0.023276  117.63  0.003580  ( 0.007033 -0.030289 -0.051122)
 44:   2029.93   0.009315   47.08  0.001432  (-0.029322  0.019035 -0.014488)
 45:   2031.04   0.000886    4.48  0.000136  ( 0.001315 -0.005932 -0.009963)
 46:   2034.65   0.080628  407.46  0.012366  ( 0.110244  0.002559  0.014356)
 47:   2108.67   0.179303  906.13  0.026535  (-0.060674 -0.133319  0.071274)

* The epsilon (eps) is given for a Dirac delta lineshape.
** The dipole moment derivative (T) already includes vibrational overlap.

--------------
RAMAN SPECTRUM  
--------------

 Mode    freq (cm**-1)   Activity   Depolarization
-------------------------------------------------------------------
   6:        52.51      0.527667      0.648532
   7:        61.71      0.532750      0.749994
   8:       129.60      0.613134      0.689176
   9:       136.39      0.006554      0.679841
  10:       140.28      1.155279      0.253489
  11:       155.78      0.962660      0.749970
  12:       253.75      2.206309      0.749983
  13:       274.87      9.249152      0.300050
  14:       293.79     10.095327      0.679806
  15:       378.66     11.851705      0.749983
  16:       382.72      9.137120      0.355382
  17:       396.68      1.742188      0.749998
  18:       414.26      8.711188      0.748979
  19:       437.37     11.522307      0.746611
  20:       486.94      2.760357      0.742359
  21:       516.72      0.644645      0.749999
  22:       557.86      0.704619      0.749989
  23:       627.70      5.760529      0.287839
  24:       708.65      8.009039      0.750000
  25:       718.72     23.321947      0.741768
  26:       723.78      2.590388      0.749997
  27:       750.09      0.282676      0.582845
  28:       768.09      2.143765      0.749999
  29:       779.31      3.570240      0.693850
  30:       794.14      3.422404      0.750000
  31:       801.30      4.235610      0.749999
  32:       823.64      3.106877      0.700494
  33:      1020.04     29.219880      0.080563
  34:      1073.15     28.625173      0.063024
  35:      1073.41     30.891525      0.061924
  36:      1851.63      2.070335      0.750000
  37:      1915.48      6.839907      0.714109
  38:      1940.46     39.865261      0.750000
  39:      1994.72     15.918545      0.749997
  40:      2006.51    381.364043      0.009221
  41:      2013.42      2.361287      0.746125
  42:      2017.49    117.233209      0.076428
  43:      2028.70    201.084687      0.051403
  44:      2029.93     40.568467      0.748524
  45:      2031.04     90.021990      0.376679
  46:      2034.65     62.011099      0.749987
  47:      2108.67      1.330883      0.749998

The first frequency considered to be a vibration is 6
The total number of vibrations considered is 42


--------------------------
THERMOCHEMISTRY AT 298.15K
--------------------------

Temperature         ...   298.15 K
Pressure            ...     1.00 atm
Total Mass          ...   120.02 AMU
Quasi RRHO          ...     True
Cut-Off Frequency   ...     1.00 cm^-1

Throughout the following assumptions are being made:
  (1) The electronic state is orbitally nondegenerate
  (2) There are no thermally accessible electronically excited states
  (3) Hindered rotations indicated by low frequency modes are not
      treated as such but are treated as vibrations and this may
      cause some error
  (4) All equations used are the standard statistical mechanics
      equations for an ideal gas
  (5) All vibrations are strictly harmonic

freq.      52.51  E(vib)   ...       0.52 
freq.      61.71  E(vib)   ...       0.51 
freq.     129.60  E(vib)   ...       0.43 
freq.     136.39  E(vib)   ...       0.42 
freq.     140.28  E(vib)   ...       0.41 
freq.     155.78  E(vib)   ...       0.40 
freq.     253.75  E(vib)   ...       0.30 
freq.     274.87  E(vib)   ...       0.28 
freq.     293.79  E(vib)   ...       0.27 
freq.     378.66  E(vib)   ...       0.21 
freq.     382.72  E(vib)   ...       0.20 
freq.     396.68  E(vib)   ...       0.20 
freq.     414.26  E(vib)   ...       0.19 
freq.     437.37  E(vib)   ...       0.17 
freq.     486.94  E(vib)   ...       0.15 
freq.     516.72  E(vib)   ...       0.13 
freq.     557.86  E(vib)   ...       0.12 
freq.     627.70  E(vib)   ...       0.09 
freq.     708.65  E(vib)   ...       0.07 
freq.     718.72  E(vib)   ...       0.07 
freq.     723.78  E(vib)   ...       0.06 
freq.     750.09  E(vib)   ...       0.06 
freq.     768.09  E(vib)   ...       0.06 
freq.     779.31  E(vib)   ...       0.05 
freq.     794.14  E(vib)   ...       0.05 
freq.     801.30  E(vib)   ...       0.05 
freq.     823.64  E(vib)   ...       0.05 
freq.    1020.04  E(vib)   ...       0.02 
freq.    1073.15  E(vib)   ...       0.02 
freq.    1073.41  E(vib)   ...       0.02 
freq.    1851.63  E(vib)   ...       0.00 
freq.    1915.48  E(vib)   ...       0.00 
freq.    1940.46  E(vib)   ...       0.00 
freq.    1994.72  E(vib)   ...       0.00 
freq.    2006.51  E(vib)   ...       0.00 
freq.    2013.42  E(vib)   ...       0.00 
freq.    2017.49  E(vib)   ...       0.00 
freq.    2028.70  E(vib)   ...       0.00 
freq.    2029.93  E(vib)   ...       0.00 
freq.    2031.04  E(vib)   ...       0.00 
freq.    2034.65  E(vib)   ...       0.00 
freq.    2108.67  E(vib)   ...       0.00 

------------
INNER ENERGY
------------

The inner energy is: U= E(el) + E(ZPE) + E(vib) + E(rot) + E(trans)
    E(el)   - is the total energy from the electronic structure calculation
              = E(kin-el) + E(nuc-el) + E(el-el) + E(nuc-nuc)
    E(ZPE)  - the the zero temperature vibrational energy from the frequency calculation
    E(vib)  - the the finite temperature correction to E(ZPE) due to population
              of excited vibrational states
    E(rot)  - is the rotational thermal energy
    E(trans)- is the translational thermal energy

Summary of contributions to the inner energy U:
Electronic energy                ...   -975.58754182 Eh
Zero point energy                ...      0.09045366 Eh      56.76 kcal/mol
Thermal vibrational correction   ...      0.00887098 Eh       5.57 kcal/mol
Thermal rotational correction    ...      0.00141627 Eh       0.89 kcal/mol
Thermal translational correction ...      0.00141627 Eh       0.89 kcal/mol
-----------------------------------------------------------------------
Total thermal energy                   -975.48538464 Eh


Summary of corrections to the electronic energy:
(perhaps to be used in another calculation)
Total thermal correction                  0.01170352 Eh       7.34 kcal/mol
Non-thermal (ZPE) correction              0.09045366 Eh      56.76 kcal/mol
-----------------------------------------------------------------------
Total correction                          0.10215718 Eh      64.10 kcal/mol


--------
ENTHALPY
--------

The enthalpy is H = U + kB*T
                kB is Boltzmann's constant
Total thermal energy              ...   -975.48538464 Eh 
Thermal Enthalpy correction       ...      0.00094421 Eh       0.59 kcal/mol
-----------------------------------------------------------------------
Total Enthalpy                    ...   -975.48444043 Eh


Note: Only C1 symmetry has been detected, increase convergence thresholds 
      if your molecule has a higher symmetry. Symmetry factor of 1.0 is   
      used for the rotational entropy correction. 
 

Note: Rotational entropy computed according to Herzberg 
Infrared and Raman Spectra, Chapter V,1, Van Nostrand Reinhold, 1945 
Point Group:  C1, Symmetry Number:   1  
Rotational constants in cm-1:     0.053759     0.049188     0.032289 

Vibrational entropy computed according to the QRRHO of S. Grimme
Chem.Eur.J. 2012 18 9955 using a reference frequency of 100.0 cm-1


-------
ENTROPY
-------

The entropy contributions are T*S = T*(S(el)+S(vib)+S(rot)+S(trans))
     S(el)   - electronic entropy
     S(vib)  - vibrational entropy
     S(rot)  - rotational entropy
     S(trans)- translational entropy
The entropies will be listed as multiplied by the temperature to get
units of energy

Electronic entropy                ...      0.00000000 Eh      0.00 kcal/mol
Vibrational entropy               ...      0.01530855 Eh      9.61 kcal/mol
Rotational entropy                ...      0.01393354 Eh      8.74 kcal/mol
Translational entropy             ...      0.01912974 Eh     12.00 kcal/mol
-----------------------------------------------------------------------
Final entropy term                ...      0.04837184 Eh     30.35 kcal/mol

In case the symmetry of your molecule has not been determined correctly
or in case you have a reason to use a different symmetry number we print 
out the resulting rotational entropy values for sn=1,12:

 non-linear molecules -----------------------------------
|  sn= 1 | S(rot)=       0.01393354 Eh      8.74 kcal/mol|
|  sn= 2 | S(rot)=       0.01327909 Eh      8.33 kcal/mol|
|  sn= 3 | S(rot)=       0.01289626 Eh      8.09 kcal/mol|
|  sn= 4 | S(rot)=       0.01262463 Eh      7.92 kcal/mol|
|  sn= 5 | S(rot)=       0.01241394 Eh      7.79 kcal/mol|
|  sn= 6 | S(rot)=       0.01224180 Eh      7.68 kcal/mol|
|  sn= 7 | S(rot)=       0.01209625 Eh      7.59 kcal/mol|
|  sn= 8 | S(rot)=       0.01197017 Eh      7.51 kcal/mol|
|  sn= 9 | S(rot)=       0.01185897 Eh      7.44 kcal/mol|
|  sn=10 | S(rot)=       0.01175949 Eh      7.38 kcal/mol|
|  sn=11 | S(rot)=       0.01166950 Eh      7.32 kcal/mol|
|  sn=12 | S(rot)=       0.01158734 Eh      7.27 kcal/mol|
 linear molecules ---------------------------------------
|  Dinfh | S(rot)=       0.00856722 Eh      5.38 kcal/mol|
|  Cinfv | S(rot)=       0.00922167 Eh      5.79 kcal/mol|
 --------------------------------------------------------


-------------------
GIBBS FREE ENERGY
-------------------

The Gibbs free energy is G = H - T*S

Total enthalpy                    ...   -975.48444043 Eh 
Total entropy correction          ...     -0.04837184 Eh    -30.35 kcal/mol
-----------------------------------------------------------------------
Final Gibbs free energy         ...   -975.53281227 Eh

For completeness - the Gibbs free energy minus the electronic energy
G-E(el)                           ...      0.05472955 Eh     34.34 kcal/mol


Maximum memory used throughout the entire PROP-calculation: 30.3 MB

--------------------------------
SUGGESTED CITATIONS FOR THIS RUN
--------------------------------

Below you find a list of papers that are relevant to this ORCA run
We neither can nor want to force you to cite these papers, but we appreciate if you do
You receive ORCA, which is the product of decades of hard work by many enthusiastic individuals, for free
The only thing we kindly ask in return is that you cite our papers,
We deeply appreciate it, if you show your appreciation for ORCA by not just citing the generic ORCA reference.

Please note that relegating all ORCA citations to the supporting information does *not* help us.
SI sections are not indexed - citations you put there will not count into any citation statistics
But we need these citations in order to attract the funding resources that allow us to do what we are doing

Therefore, if you are a happy ORCA user, please consider citing a few of the papers listed below in the main body of your paper

In addition to the list printed below, the program has created the file run.bibtex that contains the list in bibtex format
You can import this file easily into all common literature databanks and citation aid programs


List of essential papers. We consider these as the minimum necessary citations

  1. Neese, F.
     Software update: the ORCA program system, version 6.0
     WIRES Comput. Molec. Sci. 2025 15(1), e70019
     doi.org/10.1002/wcms.7019

List of papers to cite with high priority. The work reported in these papers was absolutely
necessary for this run to complete.
Our perspective: the developers of density functionals and basis sets usually get cited in chemistry papers
Good! But without the algorithms to do something with them, the functionals or basis sets would not do anything.
Hence, in our opinion, the algorithm design and method developments papers are equally worthy of getting cited

  1. Neese, F.
     An improvement of the resolution of the identity approximation for the formation of the Coulomb matrix
     J. Comp. Chem. 2003 24(14), 1740-1747
     doi.org/10.1002/jcc.10318
  2. Neese, F.; Wennmohs, F.; Hansen, A.; Becker, U.
     Efficient, approximate and parallel Hartree-Fock and hybrid DFT calculations. A 'chain-of-spheres' algorithm for the Hartree-Fock exchange
     Chem. Phys. 2009 356(1-3), 98-109
     doi.org/10.1016/j.chemphys.2008.10.036
  3. Grimme, S.; Antony, J.; Ehrlich, S.; Krieg, H.
     A consistent and accurate ab initio parametrization of density functional dispersion correction (DFT-D) for the 94 elements H-Pu
     J. Chem. Phys. 2010 132 , 154104
     doi.org/10.1063/1.3382344
  4. Grimme, S.; Ehrlich, S.; Goerigk, L.
     Effect of the damping function in dispersion corrected density functional theory
     J. Comput. Chem. 2011 32(7), 1456-1465
     doi.org/10.1002/jcc.21759
  5. Bykov, D.; Petrenko, T.; Izsak, R.; Kossmann, S.; Becker, U.; Valeev, E.; Neese, F.
     Efficient implementation of the analytic second derivatives of Hartree-Fock and hybrid DFT energies: a detailed analysis of different approximations
     Molec. Phys. 2015 113 , 1961-1977
     doi.org/10.1080/00268976.2015.1025114
  6. Helmich-Paris, B.; de Souza, B.; Neese, F.; Izsák, R.
     An improved chain of spheres for exchange algorithm
     J. Chem. Phys. 2021 155(10), 104109
     doi.org/10.1063/5.0058766
  7. Neese, F.
     The SHARK Integral Generation and Digestion System
     J. Comp. Chem. 2022 44(3), 381
     doi.org/10.1002/jcc.26942
  8. Petra, P.; Frank, N.
     Efficient calculation of analytic Raman intensities
     to be submitted 2025  , 

List of suggested additional citations. These are papers that are important in the 'surrounding' of 
of this run, or papers that preceded the highly important papers. If you like your results we are grateful for a citation.

  1. Izsak, R.; Neese, F.
     An overlap fitted chain of spheres exchange method
     J. Chem. Phys. 2011 135 , 144105
     doi.org/10.1063/1.3646921
  2. Izsak, R.; Hansen, A.; Neese, F.
     The resolution of identity and chain of spheres approximations for the LPNO-CCSD singles Fock term
     Molec. Phys. 2012 110 , 2413-2417
     doi.org/10.1080/00268976.2012.687466
  3. Neese, F.
     The ORCA program system
     WIRES Comput. Molec. Sci. 2012 2(1), 73-78
     doi.org/10.1002/wcms.81
  4. Izsak, R.; Neese, F.; Klopper, W.
     Robust fitting techniques in the chain of spheres approximation to the Fock exchange: The role of the complementary space
     J. Chem. Phys. 2013 139 , 
     doi.org/10.1063/1.4819264
  5. Neese, F.
     Software update: the ORCA program system, version 4.0
     WIRES Comput. Molec. Sci. 2018 8(1), 1-6
     doi.org/10.1002/wcms.1327
  6. Neese, F.; Wennmohs, F.; Becker, U.; Riplinger, C.
     The ORCA quantum chemistry program package
     J. Chem. Phys. 2020 152(22), 224108
     doi.org/10.1063/5.0004608
  7. Neese, F.
     Software update: The ORCA program system—Version 5.0
     WIRES Comput. Molec. Sci. 2022 12(1), e1606
     doi.org/10.1002/wcms.1606

List of optional additional citations

  1. Neese, F.
     Approximate second-order SCF convergence for spin unrestricted wavefunctions
     Chem. Phys. Lett. 2000 325(1-3), 93-98
     doi.org/10.1016/s0009-2614(00)00662-x

Timings for individual modules:

Sum of individual times          ...     2204.815 sec (=  36.747 min)
Startup calculation              ...      539.076 sec (=   8.985 min)  24.4 %
SCF iterations                   ...      849.314 sec (=  14.155 min)  38.5 %
Property integrals               ...       87.833 sec (=   1.464 min)   4.0 %
SCF Response                     ...       14.182 sec (=   0.236 min)   0.6 %
Property calculations            ...      100.733 sec (=   1.679 min)   4.6 %
SCF Gradient evaluation          ...      612.421 sec (=  10.207 min)  27.8 %
Geometry relaxation              ...        1.256 sec (=   0.021 min)   0.1 %
                             ****ORCA TERMINATED NORMALLY****
TOTAL RUN TIME: 0 days 0 hours 38 minutes 2 seconds 777 msec
