
                                 *****************
                                 * O   R   C   A *
                                 *****************

                                            #,                                       
                                            ###                                      
                                            ####                                     
                                            #####                                    
                                            ######                                   
                                           ########,                                 
                                     ,,################,,,,,                         
                               ,,#################################,,                 
                          ,,##########################################,,             
                       ,#########################################, ''#####,          
                    ,#############################################,,   '####,        
                  ,##################################################,,,,####,       
                ,###########''''           ''''###############################       
              ,#####''   ,,,,##########,,,,          '''####'''          '####       
            ,##' ,,,,###########################,,,                        '##       
           ' ,,###''''                  '''############,,,                           
         ,,##''                                '''############,,,,        ,,,,,,###''
      ,#''                                            '''#######################'''  
     '                                                          ''''####''''         
             ,#######,   #######,   ,#######,      ##                                
            ,#'     '#,  ##    ##  ,#'     '#,    #''#        ,####,    ,#,          
            ##       ##  ##   ,#'  ##            #'  '#       #'       ,# #          
            ##       ##  #######   ##           ,######,      #####,      #          
            '#,     ,#'  ##    ##  '#,     ,#' ,#      #,     #,   #      #          
             '#######'   ##     ##  '#######'  #'      '#     '####' #    #          



                #########################################################
                #                        -***-                          #
                #          Department of theory and spectroscopy        #
                #                                                       #
                #                      Frank Neese                      #
                #                                                       #
                #     Directorship, Architecture, Infrastructure        #
                #                    SHARK, DRIVERS                     #
                #        Core code/Algorithms in most modules           #
                #                                                       #
                #        Max Planck Institute fuer Kohlenforschung      #
                #                Kaiser Wilhelm Platz 1                 #
                #                 D-45470 Muelheim/Ruhr                 #
                #                      Germany                          #
                #                                                       #
                #                  All rights reserved                  #
                #                        -***-                          #
                #########################################################


                         Program Version 6.1.0  -  RELEASE   -
                                (GIT: $679e74b$)
                          ($2025-06-10 18:02:51 +0200$)


 With contributions from (in alphabetic order):
[Max-Planck-Institut fuer Kohlenforschung]                               
  Daniel Aravena         : Magnetic Suceptibility                        
  Michael Atanasov       : Ab Initio Ligand Field Theory (pilot matlab implementation)
  Alexander A. Auer      : GIAO ZORA, VPT2 properties, NMR spectrum      
  Ute Becker             : All parallelization in ORCA, NUMFREQ, NUMCALC 
  Giovanni Bistoni       : ED, misc. LED, open-shell LED, HFLD           
  Dmytro Bykov           : pre 5.0 version of the SCF Hessian            
  Marcos Casanova-Páez   : Triplet and SCS-CIS(D). UHF-(DLPNO)-IP/EA/STEOM-CCSD. UHF-CVS-IP/STEOM-CCSD   
  Vijay G. Chilkuri      : MRCI spin determinant printing, contributions to CSF-ICE 
  Pauline Colinet        : FMM embedding                                 
  Dipayan Datta          : RHF DLPNO-CCSD density                        
  Achintya Kumar Dutta   : EOM-CC, STEOM-CC                              
  Nicolas Foglia         : Exact transition moments, OPA infrastructure, MCD improvements    
  Dmitry Ganyushin       : Spin-Orbit,Spin-Spin,Magnetic field MRCI      
  Miquel Garcia-Rates    : C-PCM and meta-GGA Hessian, CCSD/C-PCM, Gaussian charge scheme 
  Tiago L. C. Gouveia    : GS-ROHF, GS-ROCIS                             
  Yang Guo               : DLPNO-NEVPT2, F12-NEVPT2, CIM, IAO-localization        
  Andreas Hansen         : Spin unrestricted coupled pair/coupled cluster methods 
  Ingolf Harden          : AUTO-CI MPn and infrastructure                
  Benjamin Helmich-Paris : MC-RPA, TRAH-(SCF,CASSCF), AVAS, COSX integrals, SCF dyn. polar., MC-PDFT, srDFT 
  Lee Huntington         : MR-EOM, pCC                                   
  Robert Izsak           : Overlap fitted RIJCOSX, COSX-SCS-MP3, EOM     
  Riya Kayal             : Wick's Theorem for AUTO-CI, AUTO-CI UHF-CCSDT 
  Emily Kempfer          : AUTO-CI RHF CISDT and CCSDT, approximate NEVPT4
  Christian Kollmar      : KDIIS, OOCD, Brueckner-CCSD(T), CCSD density, CASPT2, CASPT2-K, improved NEVPT2 
  Axel Koslowski         : Symmetry handling                             
  Simone Kossmann        : meta-GGA functionals, TD-DFT gradient, OOMP2, (MP2 Hessian; deprecated post 5.0) 
  Lucas Lang             : DCDCAS, Hyperfine gauge corrections, ICE-SOC+SSC
  Marvin Lechner         : AUTO-CI (C++ implementation), FIC-MRCC        
  Spencer Leger          : CASSCF response                               
  Dagmar Lenk            : GEPOL surface, SMD, ORCA-2-JSON               
  Dimitrios Liakos       : Extrapolation schemes; Compound Job, Property file
  Dimitrios Manganas     : Further ROCIS development; embedding schemes. LFT, Crystal Embedding 
  Dimitrios Pantazis     : SARC Basis sets                               
  Anastasios Papadopoulos: AUTO-CI, single reference methods and gradients 
  Taras Petrenko         : pre 6.0 DFT Hessian and TD-DFT gradient,  ECA, NRVS 
  Petra Pikulova         : Analytic Raman intensities                    
  Peter Pinski           : DLPNO-MP2, DLPNO-MP2 Gradient                 
  Shashank Vittal Rao    : ES-AILFT, MagRelax                            
  Christoph Reimann      : Effective Core Potentials                     
  Marius Retegan         : Local ZFS, SOC                                
  Christoph Riplinger    : Optimizer, TS searches, QM/MM, DLPNO-CCSD(T), (RO)-DLPNO pert. Triples 
  Michael Roemelt        : Original ROCIS implementation, recursive CI coupling coefficients
  Masaaki Saitow         : Open-shell DLPNO-CCSD energy and density      
  Barbara Sandhoefer     : DKH picture change effects                    
  Yorick L. A. Schmerwitz: GMF and freeze-and-release deltaSCF, NEB S-IDPP initial path                    
  Kantharuban Sivalingam : CASSCF convergence/infrastructure, NEVPT2, NEVPT3, NEVPT4(SD), FIC-MRCI and CEPA variants
  Bernardo de Souza      : ESD, SOC TD-DFT                               
  Georgi L. Stoychev     : AutoAux, RI-MP2 NMR, DLPNO-MP2 response, X2C  
  Van Anh Tran           : RI-MP2 g-tensors                              
  Willem Van den Heuvel  : Paramagnetic NMR                              
  Zikuan Wang            : NOTCH, Electric field optimization            
  Frank Wennmohs         : Technical directorship and infrastructure     
  Hang Xu                : AUTO-CI-Response properties                   
                                                                         
[FACCTs GmbH]                                                            
  Markus Bursch, Nicolas Foglia, Miquel Garcia-Rates, Ingolf Harden, Hagen Neugebauer, Anastasios Papadopoulos, 
  Christoph Riplinger, Bernardo de Souza, Georgi L. Stoychev                                                    
                                                                 
  APM, various basis sets, CI-OPT, improved COSX, DLPNO-Multilevel,           
  DOCKER, DRACO, updates on ESD, Fragmentator, GOAT, IRC, LR-CPCM, L-BFGS, MBIS, meta-GGA TD-DFT gradient, ML-optimized integration grids, 
  MM, NACMEs, nearIR, NEB, NEB-TS, NL-DFT gradient (VV10), 2- and 3-layer-ONIOM, interface openCOSMO-RS, QMMM,   
  Crystal-QMMM, RESP, rigid body optimization, SF, symmetry and pop. for TD-DFT, various functionals, SOLVATOR                                   
                                                                         
[Other institutions]                                                     
  V. Asgeirsson          : NEB                                           
  Christoph Bannwarth    : sTDA-DFT, sTD-DFT, PBEh-3c, B97-3c, D3        
  Giovanni Bistoni       : ETS/NOCV, ADLD/ADEX, COVALED                  
  Martin Brehm           : Molecular dynamics                            
  Ronald Cardenas        : ETS/NOCV                                      
  Martina Colucci        : COVALED                                       
  Sebastian Ehlert       : rSCAN, r2SCAN, r2SCAN-3c, D4, dhf basis sets  
  Marvin Friede          : D4 for Fr, Ra, Ac-Lr                          
  Lars Goerigk           : TD-DFT with DH, B97 family of functionals     
  Stefan Grimme          : VdW corrections, initial TS optimization, DFT functionals, gCP, sTDA/sTD-DF 
  Waldemar Hujo          : DFT-NL                                        
  H. Jonsson             : NEB                                           
  Holger Kruse           : gCP                                           
  Marcel Mueller         : wB97X-3c, vDZP basis set                      
  Hagen Neugebauer       : wr2SCAN, Native XTB                           
  Gianluca Regni         : ADLD/ADEX                                     
  Tobias Risthaus        : pre 6.0 range-separated hybrid DFT and stability analysis
  Lukas Wittmann         : regularized MP2, r2SCAN double-hybrids, wr2SCAN        
                                                                         
We gratefully acknowledge several colleagues who have allowed us to      
interface, adapt or use parts of their codes:                            
  Ed Valeev, F. Pavosevic, A. Kumar             : LibInt (2-el integral package), F12 methods 
  Garnet Chan, S. Sharma, J. Yang, R. Olivares  : DMRG                   
  Ulf Ekstrom                                   : XCFun DFT Library      
  Mihaly Kallay                                 : mrcc  (arbitrary order and MRCC methods)
  Frank Weinhold                                : gennbo (NPA and NBO analysis)           
  Simon Mueller                                 : openCOSMO-RS                            
  Christopher J. Cramer and Donald G. Truhlar   : smd solvation model                     
  S Lehtola, MJT Oliveira, MAL Marques          : LibXC Library                           
  Liviu Ungur et al                             : ANISO software                          


 Your calculation uses the libint2 library for the computation of 2-el integrals
 For citations please refer to: http://libint.valeyev.net

 Your ORCA version has been built with support for libXC version: 7.0.0
 For citations please refer to: https://libxc.gitlab.io

 This ORCA versions uses:
   CBLAS   interface :  Fast vector & matrix operations
   LAPACKE interface :  Fast linear algebra routines
   SCALAPACK package :  Parallel linear algebra routines
   Shared memory     :  Shared parallel matrices
   BLAS/LAPACK       :  OpenBLAS 0.3.29  USE64BITINT DYNAMIC_ARCH NO_AFFINITY Bulldozer SINGLE_THREADED
        Core in use  :  Bulldozer
   Copyright (c) 2011-2014, The OpenBLAS Project


  ***********************************
  * Starting time: Thu Aug 14 15:36:21 2025
  * Host name:     chromium07
  * Process ID:    238900
  * Working dir.:  /local/scratch/mehlhorn/61911
  ***********************************



***************************************
The coordinates will be read from file: start.xyz
***************************************


Your calculation utilizes the atom-pairwise dispersion correction
with the Becke-Johnson damping scheme (D3BJ)


Warning: RI is on but no J-basis has been assigned. Assigning Def2/J (nothing to worry about!)
================================================================================

----- Orbital basis set information -----
Your calculation utilizes the basis: def2-TZVP
   F. Weigend and R. Ahlrichs, Phys. Chem. Chem. Phys. 7, 3297 (2005).

----- AuxJ basis set information -----
Your calculation utilizes the auxiliary basis: def2/J
   H-Rn: F. Weigend, Phys. Chem. Chem. Phys. 8, 1057 (2006).
   Fr-Lr: K. Eichkorn, F. Weigend, O. Treutler, R. Ahlrichs; Theor. Chem. Acc. 97, 119 (1997).

================================================================================
                                        WARNINGS
                       Please study these warnings very carefully!
================================================================================


WARNING: Geometry Optimization
  ===> : Switching off AutoStart
         For restart on a previous wavefunction, please use MOREAD

================================================================================
                                       INPUT FILE
================================================================================
NAME = run.inp
|  1> # Geometry optimization for (AlH3)n cluster
|  2> 
|  3> %pal nprocs 24  end
|  4> 
|  5> %geom MaxIter 500 end
|  6> 
|  7> 
|  8> ! PBE def2-TZVP
|  9> ! RKS	# closed shell for AlH3
| 10> ! D3    #  dispersion correction
| 11> ! Freq 	# Frequency analysis to check the stabiltity of the structures
| 12> 
| 13> ! NoPop # population analysis not necessary	
| 14> 
| 15> ! DEFGRID3
| 16> ! TightSCF
| 17> ! TightOpt
| 18> 
| 19> ! SmallPrint
| 20> 
| 21> 
| 22> * xyzFile 0 1 start.xyz # only maingroup elements H and Al so there should be no net spin
| 23> 
| 24>                          ****END OF INPUT****
================================================================================

                       *****************************
                       * Geometry Optimization Run *
                       *****************************

Geometry optimization settings:
Update method            Update   .... BFGS
Choice of coordinates    CoordSys .... (2022) Redundant Internals
Initial Hessian          InHess   .... Almloef's Model
Max. no of cycles        MaxIter  .... 500

Convergence Tolerances:
Energy Change            TolE     ....  1.0000e-06 Eh
Max. Gradient            TolMAXG  ....  1.0000e-04 Eh/bohr
RMS Gradient             TolRMSG  ....  3.0000e-05 Eh/bohr
Max. Displacement        TolMAXD  ....  1.0000e-03 bohr
RMS Displacement         TolRMSD  ....  6.0000e-04 bohr
Strict Convergence                .... False

------------------------------------------------------------------------------
                        ORCA OPTIMIZATION COORDINATE SETUP
------------------------------------------------------------------------------

The optimization will be done in redundant internal coordinates (2022)
Making redundant internal coordinates   ...  (2022 redundants) done
Evaluating the initial hessian          ...  (Almloef) done
Evaluating the coordinates              ...  done
Calculating the B-matrix                .... done
Calculating the G-matrix                .... done
The number of degrees of freedom        ....  224

    -----------------------------------------------------------------
                    Redundant Internal Coordinates


    -----------------------------------------------------------------
         Definition                    Initial Value    Approx d2E/dq
    -----------------------------------------------------------------
      1. B(Al  1,Al  0)                  3.0415         0.071126   
      2. B(H   2,Al  1)                  1.7266         0.243435   
      3. B(H   3,Al  1)                  1.5878         0.405345   
      4. B(H   4,Al  1)                  1.7079         0.260736   
      5. B(H   4,Al  0)                  1.7362         0.235002   
      6. B(H   5,Al  0)                  1.5932         0.397396   
      7. B(H   6,Al  0)                  1.6879         0.280573   
      8. B(H   7,Al  1)                  1.5960         0.393324   
      9. B(Al  8,H   2)                  1.7194         0.249953   
     10. B(Al  8,Al  1)                  3.0694         0.064187   
     11. B(H   9,Al  8)                  1.7197         0.249635   
     12. B(H  10,Al  8)                  1.5895         0.402824   
     13. B(H  11,Al  0)                  1.5942         0.395856   
     14. B(Al 12,H   6)                  1.7726         0.205582   
     15. B(Al 12,Al  0)                  3.3673         0.021490   
     16. B(Al 12,H   9)                  1.6979         0.270460   
     17. B(Al 12,Al  8)                  3.1652         0.045146   
     18. B(H  13,Al 12)                  1.7289         0.241329   
     19. B(H  14,Al 12)                  1.5803         0.416604   
     20. B(H  15,Al  8)                  1.5892         0.403287   
     21. B(Al 16,H  13)                  1.7646         0.211724   
     22. B(Al 16,Al 12)                  2.6532         0.296161   
     23. B(H  17,Al 16)                  1.5901         0.401905   
     24. B(H  18,Al 16)                  1.6996         0.268845   
     25. B(H  18,Al 12)                  1.8542         0.152312   
     26. B(H  19,Al 16)                  1.5911         0.400483   
     27. A(H   5,Al  0,H  11)          127.7649         0.383139   
     28. A(H   4,Al  0,H  11)          106.4044         0.350164   
     29. A(Al  1,Al  0,H  11)           86.7222         0.332068   
     30. A(H   4,Al  0,H   6)           98.6875         0.330590   
     31. A(H   6,Al  0,H  11)          109.1516         0.360854   
     32. A(Al  1,Al  0,H   5)          130.2478         0.332282   
     33. A(Al  1,Al  0,H   4)           27.7306         0.305008   
     34. A(H   5,Al  0,Al 12)          110.6944         0.274550   
     35. A(H   5,Al  0,H   6)          108.2068         0.361093   
     36. A(Al  1,Al  0,H   6)           87.1477         0.313850   
     37. A(Al  1,Al  0,Al 12)           75.2241         0.242333   
     38. A(H   4,Al  0,H   5)          102.5507         0.350394   
     39. A(H  11,Al  0,Al 12)          114.2588         0.274387   
     40. A(H   4,Al  0,Al 12)           85.0487         0.253748   
     41. A(H   6,Al  0,Al 12)           13.6645         0.260492   
     42. A(Al  0,Al  1,H   2)          112.4806         0.306739   
     43. A(Al  0,Al  1,H   7)           81.8960         0.331715   
     44. A(H   3,Al  1,H   4)          108.9929         0.357817   
     45. A(H   2,Al  1,H   3)          105.7717         0.353672   
     46. A(H   2,Al  1,H   7)          106.3109         0.351875   
     47. A(H   4,Al  1,H   7)          107.6583         0.355992   
     48. A(Al  0,Al  1,H   4)           28.2307         0.310149   
     49. A(H   3,Al  1,Al  8)          131.7441         0.327762   
     50. A(H   2,Al  1,H   4)           93.7341         0.328517   
     51. A(Al  0,Al  1,H   3)          119.9633         0.333375   
     52. A(H   4,Al  1,Al  8)           90.1843         0.305070   
     53. A(Al  0,Al  1,Al  8)           98.0009         0.285423   
     54. A(H   7,Al  1,Al  8)           82.0097         0.326141   
     55. A(H   2,Al  1,Al  8)           26.9730         0.301738   
     56. A(H   3,Al  1,H   7)          128.7088         0.384032   
     57. A(Al  1,H   2,Al  8)          125.9320         0.326238   
     58. A(Al  0,H   4,Al  1)          124.0387         0.326613   
     59. A(Al  0,H   6,Al 12)          153.3353         0.323386   
     60. A(H   9,Al  8,H  15)          108.7298         0.354876   
     61. A(H   2,Al  8,H  15)          109.8222         0.354953   
     62. A(Al  1,Al  8,H  15)           99.4706         0.327487   
     63. A(H   2,Al  8,H  10)          105.8585         0.354884   
     64. A(Al  1,Al  8,H  10)          127.2861         0.327425   
     65. A(H   2,Al  8,H   9)           92.8267         0.327593   
     66. A(Al  1,Al  8,H   9)           72.1959         0.302952   
     67. A(Al  1,Al  8,H   2)           27.0950         0.303014   
     68. A(H   9,Al  8,H  10)          104.6219         0.354807   
     69. A(H  10,Al  8,Al 12)          118.7902         0.309171   
     70. A(H   9,Al  8,Al 12)           22.0100         0.286572   
     71. A(H   2,Al  8,Al 12)          103.3833         0.286629   
     72. A(Al  1,Al  8,Al 12)           77.8948         0.266219   
     73. A(H  10,Al  8,H  15)          128.9561         0.385289   
     74. A(Al 12,Al  8,H  15)           86.9040         0.309229   
     75. A(Al  8,H   9,Al 12)          135.6822         0.331889   
     76. A(H   9,Al 12,H  14)          125.7052         0.361740   
     77. A(Al  8,Al 12,H  14)          107.4676         0.310854   
     78. A(H   6,Al 12,H  14)          101.2879         0.345324   
     79. A(Al  0,Al 12,H  14)          105.3324         0.276543   
     80. A(H   9,Al 12,H  13)          109.9506         0.330036   
     81. A(Al  8,Al 12,H  13)          125.3755         0.285065   
     82. A(H   6,Al 12,H  13)           84.5632         0.315527   
     83. A(Al  0,Al 12,H  13)           92.3625         0.254742   
     84. A(H  13,Al 12,H  14)          124.2443         0.354795   
     85. A(Al  8,Al 12,H   9)           22.3078         0.290188   
     86. A(H   6,Al 12,H   9)           85.7715         0.321447   
     87. A(Al  0,Al 12,H   9)           73.2968         0.259073   
     88. A(H   6,Al 12,Al  8)          102.7636         0.278078   
     89. A(Al  0,Al 12,Al  8)           89.7678         0.227342   
     90. A(Al 16,Al 12,H  18)           39.5279         0.359432   
     91. A(H  14,Al 12,H  18)           99.1710         0.328501   
     92. A(Al  0,Al 12,H   6)           13.0002         0.248836   
     93. A(H   9,Al 12,H  18)           85.5957         0.306191   
     94. A(Al  8,Al 12,H  18)           74.6435         0.265669   
     95. A(H   6,Al 12,H  18)          159.1437         0.293118   
     96. A(Al  0,Al 12,H  18)          154.0491         0.238346   
     97. A(H  14,Al 12,Al 16)          117.6581         0.428598   
     98. A(H  13,Al 12,Al 16)           41.0858         0.389122   
     99. A(H   9,Al 12,Al 16)          100.0527         0.396964   
    100. A(Al  8,Al 12,Al 16)          101.6216         0.339506   
    101. A(H   6,Al 12,Al 16)          124.2527         0.378427   
    102. A(Al  0,Al 12,Al 16)          128.9077         0.300764   
    103. A(H  13,Al 12,H  18)           80.6112         0.300661   
    104. A(Al 12,H  13,Al 16)           98.8295         0.317042   
    105. A(H  18,Al 16,H  19)          110.3611         0.358949   
    106. A(H  17,Al 16,H  19)          129.6267         0.384668   
    107. A(Al 12,Al 16,H  19)          115.1265         0.425578   
    108. A(H  17,Al 16,H  18)          110.6527         0.359165   
    109. A(H  13,Al 16,H  18)           84.0596         0.322683   
    110. A(Al 12,Al 16,H  18)           43.9774         0.396547   
    111. A(H  13,Al 16,H  17)          106.0130         0.344948   
    112. A(H  13,Al 16,H  19)          106.1004         0.344742   
    113. A(Al 12,Al 16,H  17)          114.5273         0.425848   
    114. A(Al 12,Al 16,H  13)           40.0847         0.380362   
    115. A(Al 12,H  18,Al 16)           96.4947         0.305897   
    116. D(H   3,Al  1,Al  0,Al 12)   -178.1831         0.010000   
    117. D(H   2,Al  1,Al  0,H   4)    -51.5544         0.010000   
    118. D(H   2,Al  1,Al  0,Al 12)     56.4996         0.010000   
    119. D(H   2,Al  1,Al  0,H   6)     63.2667         0.010000   
    120. D(H   3,Al  1,Al  0,H   5)     77.0105         0.010000   
    121. D(H   3,Al  1,Al  0,H   4)     73.7629         0.010000   
    122. D(H   2,Al  1,Al  0,H  11)    172.6489         0.010000   
    123. D(H   3,Al  1,Al  0,H   6)   -171.4159         0.010000   
    124. D(H   2,Al  1,Al  0,H   5)    -48.3068         0.010000   
    125. D(H   3,Al  1,Al  0,H  11)    -62.0337         0.010000   
    126. D(Al  8,H   2,Al  1,Al  0)    -61.2493         0.010000   
    127. D(Al  8,H   2,Al  1,H   7)     26.5805         0.010000   
    128. D(Al  8,H   2,Al  1,H   4)    -83.0426         0.010000   
    129. D(Al  8,H   2,Al  1,H   3)    166.0207         0.010000   
    130. D(Al  0,H   4,Al  1,Al  8)    106.7540         0.010000   
    131. D(Al  0,H   4,Al  1,H   7)     25.0830         0.010000   
    132. D(Al  1,H   4,Al  0,Al 12)    -67.3340         0.010000   
    133. D(Al  0,H   4,Al  1,H   2)    133.5126         0.010000   
    134. D(Al  1,H   4,Al  0,H   5)   -177.4611         0.010000   
    135. D(Al  1,H   4,Al  0,H  11)     46.5191         0.010000   
    136. D(Al  0,H   4,Al  1,H   3)   -118.3962         0.010000   
    137. D(Al  1,H   4,Al  0,H   6)    -66.4942         0.010000   
    138. D(Al 12,H   6,Al  0,H  11)   -114.3678         0.010000   
    139. D(Al 12,H   6,Al  0,Al  1)    -28.8359         0.010000   
    140. D(Al 12,H   6,Al  0,H   5)    102.8160         0.010000   
    141. D(Al 12,H   6,Al  0,H   4)     -3.5438         0.010000   
    142. D(H   2,Al  8,Al  1,H   3)    -18.1544         0.010000   
    143. D(H   2,Al  8,Al  1,Al  0)    125.1088         0.010000   
    144. D(H   2,Al  8,Al  1,H   7)   -154.3002         0.010000   
    145. D(H   2,Al  8,Al  1,H   4)     97.8897         0.010000   
    146. D(H   9,Al  8,Al  1,Al  0)    -12.7441         0.010000   
    147. D(H  15,Al  8,H   2,Al  1)    -71.3044         0.010000   
    148. D(Al 12,Al  8,H   2,Al  1)     20.2284         0.010000   
    149. D(H  10,Al  8,Al  1,Al  0)     82.3461         0.010000   
    150. D(H   9,Al  8,Al  1,H   7)     67.8468         0.010000   
    151. D(H   9,Al  8,Al  1,H   4)    -39.9633         0.010000   
    152. D(H  10,Al  8,H   2,Al  1)    145.8355         0.010000   
    153. D(H   9,Al  8,Al  1,H   3)   -156.0073         0.010000   
    154. D(H   9,Al  8,Al  1,H   2)   -137.8529         0.010000   
    155. D(H   9,Al  8,H   2,Al  1)     39.7677         0.010000   
    156. D(Al 12,H   9,Al  8,H  15)     -7.7114         0.010000   
    157. D(Al 12,H   9,Al  8,H   2)   -119.7506         0.010000   
    158. D(Al 12,H   9,Al  8,H  10)    133.0538         0.010000   
    159. D(Al 12,H   9,Al  8,Al  1)   -101.9318         0.010000   
    160. D(H  18,Al 12,H   6,Al  0)    -81.8486         0.010000   
    161. D(Al 16,Al 12,H   6,Al  0)   -115.3639         0.010000   
    162. D(H  14,Al 12,H   6,Al  0)    109.5159         0.010000   
    163. D(H   9,Al 12,H   6,Al  0)    -16.0750         0.010000   
    164. D(Al  8,Al 12,H   6,Al  0)     -1.5264         0.010000   
    165. D(H   9,Al 12,Al  0,H   5)     81.2895         0.010000   
    166. D(H   9,Al 12,Al  0,H   4)    -20.2729         0.010000   
    167. D(Al  8,Al 12,Al  0,H  11)   -110.7816         0.010000   
    168. D(H   9,Al 12,Al  0,Al  1)    -46.6362         0.010000   
    169. D(Al  8,Al 12,Al  0,H   6)    178.5113         0.010000   
    170. D(Al  8,Al 12,Al  0,H   5)     96.5574         0.010000   
    171. D(Al  8,Al 12,Al  0,H   4)     -5.0050         0.010000   
    172. D(Al  8,Al 12,Al  0,Al  1)    -31.3683         0.010000   
    173. D(H  13,Al 12,H   6,Al  0)   -126.6067         0.010000   
    174. D(H   6,Al 12,Al  0,H  11)     70.7071         0.010000   
    175. D(H   6,Al 12,Al  0,H   5)    -81.9539         0.010000   
    176. D(H   6,Al 12,Al  0,H   4)    176.4837         0.010000   
    177. D(Al  0,Al 12,Al  8,Al  1)     30.6694         0.010000   
    178. D(H   6,Al 12,Al  0,Al  1)    150.1204         0.010000   
    179. D(H  18,Al 12,H   9,Al  8)    -59.2019         0.010000   
    180. D(H  14,Al 12,H   9,Al  8)     38.9328         0.010000   
    181. D(H  13,Al 12,H   9,Al  8)   -137.5468         0.010000   
    182. D(H   6,Al 12,H   9,Al  8)    139.8020         0.010000   
    183. D(H   9,Al 12,Al  8,H   2)     63.0425         0.010000   
    184. D(H   9,Al 12,Al  8,Al  1)     72.3112         0.010000   
    185. D(H   6,Al 12,Al  8,H  15)    131.3901         0.010000   
    186. D(H   6,Al 12,Al  8,H  10)    -95.0803         0.010000   
    187. D(H   6,Al 12,Al  8,H   9)    -41.2985         0.010000   
    188. D(H   6,Al 12,Al  8,H   2)     21.7440         0.010000   
    189. D(Al  0,Al 12,H   9,Al  8)    136.0733         0.010000   
    190. D(H   6,Al 12,Al  8,Al  1)     31.0127         0.010000   
    191. D(Al  0,Al 12,Al  8,H  15)    131.0468         0.010000   
    192. D(Al  0,Al 12,Al  8,H  10)    -95.4236         0.010000   
    193. D(Al 16,Al 12,H   9,Al  8)    -96.1371         0.010000   
    194. D(Al  0,Al 12,Al  8,H   9)    -41.6418         0.010000   
    195. D(Al  0,Al 12,Al  8,H   2)     21.4007         0.010000   
    196. D(Al 16,H  13,Al 12,H  18)      0.5249         0.010000   
    197. D(Al 16,H  13,Al 12,H  14)    -94.2284         0.010000   
    198. D(Al 16,H  13,Al 12,H   9)     82.3135         0.010000   
    199. D(Al 16,H  13,Al 12,Al  8)     63.9993         0.010000   
    200. D(Al 16,H  13,Al 12,H   6)    165.8054         0.010000   
    201. D(Al 16,H  13,Al 12,Al  0)    155.3929         0.010000   
    202. D(H  19,Al 16,H  13,Al 12)   -110.0835         0.010000   
    203. D(H  18,Al 16,H  13,Al 12)     -0.5681         0.010000   
    204. D(H  17,Al 16,H  13,Al 12)    109.2514         0.010000   
    205. D(H  17,Al 16,Al 12,H  13)    -85.9127         0.010000   
    206. D(H  17,Al 16,Al 12,H   9)    165.1838         0.010000   
    207. D(H  17,Al 16,Al 12,Al  8)    142.5211         0.010000   
    208. D(H  17,Al 16,Al 12,H   6)   -103.0902         0.010000   
    209. D(H  17,Al 16,Al 12,Al  0)   -118.2326         0.010000   
    210. D(H  13,Al 16,Al 12,H  18)   -179.1863         0.010000   
    211. D(H  13,Al 16,Al 12,H  14)    111.4481         0.010000   
    212. D(H  13,Al 16,Al 12,H   9)   -108.9035         0.010000   
    213. D(H  13,Al 16,Al 12,Al  8)   -131.5663         0.010000   
    214. D(H  13,Al 16,Al 12,H   6)    -17.1776         0.010000   
    215. D(H  13,Al 16,Al 12,Al  0)    -32.3199         0.010000   
    216. D(Al 12,H  18,Al 16,H  19)    105.5247         0.010000   
    217. D(Al 12,H  18,Al 16,H  17)   -104.3755         0.010000   
    218. D(Al 12,H  18,Al 16,H  13)      0.5268         0.010000   
    219. D(Al 16,H  18,Al 12,H  14)    122.8973         0.010000   
    220. D(Al 16,H  18,Al 12,H  13)     -0.5420         0.010000   
    221. D(Al 16,H  18,Al 12,H   9)   -111.6178         0.010000   
    222. D(Al 16,H  18,Al 12,Al  8)   -131.3805         0.010000   
    223. D(Al 16,H  18,Al 12,H   6)    -45.8147         0.010000   
    224. D(Al 16,H  18,Al 12,Al  0)    -76.4032         0.010000   
    -----------------------------------------------------------------

Number of atoms                         .... 20
Number of degrees of freedom            .... 224


         *************************************************************
         *                GEOMETRY OPTIMIZATION CYCLE   1            *
         *************************************************************
---------------------------------
CARTESIAN COORDINATES (ANGSTROEM)
---------------------------------
  Al    -0.551808    0.975035    2.923947
  Al     0.154191   -0.418897    0.314489
  H     -0.405326   -2.051576    0.265761
  H     -0.276232    0.226347   -1.070952
  H     -0.966188    0.046806    1.516471
  H     -1.936623    1.052106    3.707879
  H      0.429772   -0.159433    3.697633
  H      1.599590   -0.460385    0.989947
  Al     0.064275   -3.311498    1.337376
  H      0.049367   -2.269334    2.705277
  H     -1.220735   -4.229373    1.518221
  H      0.350545    2.186614    2.414630
  Al     1.190513   -1.753047    3.851650
  H      0.484124   -1.755532    5.429704
  H      2.702928   -1.403817    3.554892
  H      1.565010   -3.740988    1.039407
  Al     0.684103   -3.466260    5.813277
  H      1.808259   -3.535623    6.935723
  H      1.377824   -3.551092    4.264072
  H     -0.777379   -4.095072    5.800583

----------------------------
CARTESIAN COORDINATES (A.U.)
----------------------------
  NO LB      ZA    FRAG     MASS         X           Y           Z
   0 Al   13.0000    0    26.982   -1.042766    1.842548    5.525460
   1 Al   13.0000    0    26.982    0.291379   -0.791601    0.594299
   2 H     1.0000    0     1.008   -0.765955   -3.876917    0.502215
   3 H     1.0000    0     1.008   -0.522003    0.427733   -2.023806
   4 H     1.0000    0     1.008   -1.825830    0.088451    2.865715
   5 H     1.0000    0     1.008   -3.659687    1.988193    7.006876
   6 H     1.0000    0     1.008    0.812151   -0.301285    6.987514
   7 H     1.0000    0     1.008    3.022787   -0.870001    1.870728
   8 Al   13.0000    0    26.982    0.121462   -6.257825    2.527274
   9 H     1.0000    0     1.008    0.093289   -4.288420    5.112233
  10 H     1.0000    0     1.008   -2.306855   -7.992357    2.869023
  11 H     1.0000    0     1.008    0.662434    4.132102    4.562990
  12 Al   13.0000    0    26.982    2.249744   -3.312779    7.278564
  13 H     1.0000    0     1.008    0.914861   -3.317474   10.260654
  14 H     1.0000    0     1.008    5.107794   -2.652830    6.717773
  15 H     1.0000    0     1.008    2.957441   -7.069443    1.964194
  16 Al   13.0000    0    26.982    1.292767   -6.550282   10.985501
  17 H     1.0000    0     1.008    3.417115   -6.681359   13.106617
  18 H     1.0000    0     1.008    2.603709   -6.710591    8.057929
  19 H     1.0000    0     1.008   -1.469033   -7.738564   10.961514

--------------------------------
INTERNAL COORDINATES (ANGSTROEM)
--------------------------------
 Al     0   0   0     0.000000000000     0.00000000     0.00000000
 Al     1   0   0     3.041504791905     0.00000000     0.00000000
 H      2   1   0     1.726578883021   112.48061222     0.00000000
 H      2   1   3     1.587781871552   119.96333918   125.31735472
 H      2   1   3     1.707889739015    28.23065884    51.55442649
 H      1   2   3     1.593173413136   130.24783450   311.69318089
 H      1   2   3     1.687929539039    87.14773922    63.26669959
 H      2   1   3     1.595976630628    81.89596256   255.63558220
 Al     3   2   1     1.719385959303   125.93199524   298.75068422
 H      9   3   2     1.719733193491    92.82666479    39.76772032
 H      9   3   2     1.589480512567   105.85845880   145.83547373
 H      1   2   3     1.594230087727    86.72221710   172.64890294
 Al    10   9   3     1.697922160620   135.68217801   240.24937498
 H     13  10   9     1.728943826021   109.95063524   222.45322272
 H     13  10   9     1.580324292428   125.70517918    38.93280408
 H      9   3   2     1.589167888362   109.82221202   288.69558229
 Al    14  13  10     1.764571093064    98.82945219    82.31354508
 H     17  14  13     1.590101809606   106.01300149   109.25142954
 H     17  14  13     1.699552789601    84.05956057   359.43192326
 H     17  14  13     1.591066849976   106.10035190   249.91653004

---------------------------
INTERNAL COORDINATES (A.U.)
---------------------------
 Al     0   0   0     0.000000000000     0.00000000     0.00000000
 Al     1   0   0     5.747611091709     0.00000000     0.00000000
 H      2   1   0     3.262761237522   112.48061222     0.00000000
 H      2   1   3     3.000472897639   119.96333918   125.31735472
 H      2   1   3     3.227443873673    28.23065884    51.55442649
 H      1   2   3     3.010661434672   130.24783450   311.69318089
 H      1   2   3     3.189724562140    87.14773922    63.26669959
 H      2   1   3     3.015958748025    81.89596256   255.63558220
 Al     3   2   1     3.249168581592   125.93199524   298.75068422
 H      9   3   2     3.249824759112    92.82666479    39.76772032
 H      9   3   2     3.003682863956   105.85845880   145.83547373
 H      1   2   3     3.012658260262    86.72221710   172.64890294
 Al    10   9   3     3.208607880288   135.68217801   240.24937498
 H     13  10   9     3.267230332114   109.95063524   222.45322272
 H     13  10   9     2.986380115472   125.70517918    38.93280408
 H      9   3   2     3.003092089826   109.82221202   288.69558229
 Al    14  13  10     3.334556109725    98.82945219    82.31354508
 H     17  14  13     3.004856945208   106.01300149   109.25142954
 H     17  14  13     3.211689322488    84.05956057   359.43192326
 H     17  14  13     3.006680607216   106.10035190   249.91653004

---------------------
BASIS SET INFORMATION
---------------------
There are 2 groups of distinct atoms

 Group   1 Type Al  : 14s9p3d1f contracted to 5s5p2d1f pattern {73211/51111/21/1}
 Group   2 Type H   : 5s1p contracted to 3s1p pattern {311/1}

Atom   0Al   basis set group =>   1
Atom   1Al   basis set group =>   1
Atom   2H    basis set group =>   2
Atom   3H    basis set group =>   2
Atom   4H    basis set group =>   2
Atom   5H    basis set group =>   2
Atom   6H    basis set group =>   2
Atom   7H    basis set group =>   2
Atom   8Al   basis set group =>   1
Atom   9H    basis set group =>   2
Atom  10H    basis set group =>   2
Atom  11H    basis set group =>   2
Atom  12Al   basis set group =>   1
Atom  13H    basis set group =>   2
Atom  14H    basis set group =>   2
Atom  15H    basis set group =>   2
Atom  16Al   basis set group =>   1
Atom  17H    basis set group =>   2
Atom  18H    basis set group =>   2
Atom  19H    basis set group =>   2
---------------------------------
AUXILIARY/J BASIS SET INFORMATION
---------------------------------
There are 2 groups of distinct atoms

 Group   1 Type Al  : 14s5p5d2f1g contracted to 8s4p3d1f1g pattern {71111111/2111/311/2/1}
 Group   2 Type H   : 5s2p1d contracted to 3s1p1d pattern {311/2/1}

Atom   0Al   basis set group =>   1
Atom   1Al   basis set group =>   1
Atom   2H    basis set group =>   2
Atom   3H    basis set group =>   2
Atom   4H    basis set group =>   2
Atom   5H    basis set group =>   2
Atom   6H    basis set group =>   2
Atom   7H    basis set group =>   2
Atom   8Al   basis set group =>   1
Atom   9H    basis set group =>   2
Atom  10H    basis set group =>   2
Atom  11H    basis set group =>   2
Atom  12Al   basis set group =>   1
Atom  13H    basis set group =>   2
Atom  14H    basis set group =>   2
Atom  15H    basis set group =>   2
Atom  16Al   basis set group =>   1
Atom  17H    basis set group =>   2
Atom  18H    basis set group =>   2
Atom  19H    basis set group =>   2


           ************************************************************
           *        Program running with 24 parallel MPI-processes    *
           *              working on a common directory               *
           ************************************************************
------------------------------------------------------------------------------
                             ORCA STARTUP CALCULATIONS
                           -- RI-GTO INTEGRALS CHOSEN --
------------------------------------------------------------------------------
------------------------------------------------------------------------------
                   ___                                                        
                  /   \      - P O W E R E D   B Y -                         
                 /     \                                                     
                 |  |  |   _    _      __       _____    __    __             
                 |  |  |  | |  | |    /  \     |  _  \  |  |  /  |          
                  \  \/   | |  | |   /    \    | | | |  |  | /  /          
                 / \  \   | |__| |  /  /\  \   | |_| |  |  |/  /          
                |  |  |   |  __  | /  /__\  \  |    /   |      \           
                |  |  |   | |  | | |   __   |  |    \   |  |\   \          
                \     /   | |  | | |  |  |  |  | |\  \  |  | \   \       
                 \___/    |_|  |_| |__|  |__|  |_| \__\ |__|  \__/        
                                                                              
                      - O R C A' S   B I G   F R I E N D -                    
                                      &                                       
                       - I N T E G R A L  F E E D E R -                       
                                                                              
 v1 FN, 2020, v2 2021, v3 2022-2024                                           
------------------------------------------------------------------------------


----------------------
SHARK INTEGRAL PACKAGE
----------------------

Number of atoms                             ...     20
Number of basis functions                   ...    275
Number of shells                            ...    125
Maximum angular momentum                    ...      3
Integral batch strategy                     ... SHARK/LIBINT Hybrid
RI-J (if used) integral strategy            ... SPLIT-RIJ (Revised 2003 algorithm where possible)
Printlevel                                  ...      1
Contraction scheme used                     ... SEGMENTED contraction
Prescreening option                         ... SCHWARTZ
   Thresh                                   ... 2.500e-11
   Tcut                                     ... 2.500e-12
   Tpresel                                  ... 2.500e-12 
Coulomb Range Separation                    ... NOT USED
Exchange Range Separation                   ... NOT USED
Multipole approximations                    ... NOT USED
Finite Nucleus Model                        ... NOT USED
CABS basis                                  ... NOT available
Auxiliary Coulomb fitting basis             ... AVAILABLE
   # of basis functions in Aux-J            ...    420
   # of shells in Aux-J                     ...    160
   Maximum angular momentum in Aux-J        ...      4
Auxiliary J/K fitting basis                 ... NOT available
Auxiliary Correlation fitting basis         ... NOT available
Auxiliary 'external' fitting basis          ... NOT available

Checking pre-screening integrals            ... done (  0.0 sec) Dimension = 125
   => SHARK Basis and OBASIS are compatible. Storing Pre-screening
Shell pair information
Shell pair cut-off parameter TPreSel        ...   2.5e-12
Total number of shell pairs                 ...      7875
Shell pairs after pre-screening             ...      6638
Total number of primitive shell pairs       ...     25650
Primitive shell pairs kept                  ...     15230
          la=0 lb=0:   2092 shell pairs
          la=1 lb=0:   2216 shell pairs
          la=1 lb=1:    607 shell pairs
          la=2 lb=0:    678 shell pairs
          la=2 lb=1:    387 shell pairs
          la=2 lb=2:     55 shell pairs
          la=3 lb=0:    342 shell pairs
          la=3 lb=1:    196 shell pairs
          la=3 lb=2:     50 shell pairs
          la=3 lb=3:     15 shell pairs

Checking whether 4 symmetric matrices of dimension 275 fit in memory
:Max Core in MB      =   4096.00
 MB in use           =     11.60
 MB left             =   4084.40
 MB needed           =      1.16
 Data fit in memory  = YES
Calculating RI/J V-Matrix + Cholesky decomp.... done (  0.1 sec)
Calculating Nuclear repulsion               ... done (  0.0 sec) ENN=    426.509271425735 Eh

Diagonalization of the overlap matrix:
Smallest eigenvalue                        ... 8.776e-04
Time for diagonalization                   ...    0.054 sec
Threshold for overlap eigenvalues          ... 1.000e-07
Number of eigenvalues below threshold      ... 0
Time for construction of square roots      ...    0.015 sec
Total time needed                          ...    0.072 sec

-------------------
DFT GRID GENERATION
-------------------

General Integration Accuracy     IntAcc      ... 4.959
Radial Grid Type                 RadialGrid  ... OptM3 with GC (2021)
Angular Grid (max. ang.)         AngularGrid ... 6 (Lebedev-590)
Angular grid pruning method      GridPruning ... 4 (adaptive)
Weight generation scheme         WeightScheme... mBecke (2022)
Basis function cutoff            BFCut       ... 1.0000e-11
Integration weight cutoff        WCut        ... 1.0000e-14
Partially contracted basis set               ... off
Rotationally invariant grid construction     ... off
Angular grids for H and He will be reduced by one unit

Total number of grid points                  ...   211091
Total number of batches                      ...     3305
Average number of points per batch           ...       63
Average number of grid points per atom       ...    10555
Grids setup in   5.6 sec
Initializing property integral containers    ... done (  0.0 sec)

SHARK setup successfully completed in   6.7 seconds

Maximum memory used throughout the entire STARTUP-calculation: 45.6 MB


           ************************************************************
           *        Program running with 24 parallel MPI-processes    *
           *              working on a common directory               *
           ************************************************************
-------------------------------------------------------------------------------
                                 ORCA GUESS
                   Start orbitals & Density for SCF / CASSCF
-------------------------------------------------------------------------------

------------
SCF SETTINGS
------------
Hamiltonian:
 Density Functional     Method          .... DFT(GTOs)
 Exchange Functional    Exchange        .... PBE
   PBE kappa parameter   XKappa         ....  0.804000
   PBE mue parameter    XMuePBE         ....  0.219520
 Correlation Functional Correlation     .... PBE
   PBE beta parameter  CBetaPBE         ....  0.066725
 LDA part of GGA corr.  LDAOpt          .... PW91-LDA
 Gradients option       PostSCFGGA      .... off
   NL short-range parameter             ....  6.400000
 RI-approximation to the Coulomb term is turned on
   Number of AuxJ basis functions       .... 420


General Settings:
 Integral files         IntName         .... run
 Hartree-Fock type      HFTyp           .... RHF
 Total Charge           Charge          ....    0
 Multiplicity           Mult            ....    1
 Number of Electrons    NEL             ....   80
 Basis Dimension        Dim             ....  275
 Nuclear Repulsion      ENuc            ....    426.5092714257 Eh

Convergence Acceleration:
 AO-DIIS                CNVDIIS         .... on
   Start iteration      DIISMaxIt       ....    12
   Startup error        DIISStart       ....  0.200000
   # of expansion vecs  DIISMaxEq       ....     5
   Bias factor          DIISBfac        ....   1.050
   Max. coefficient     DIISMaxC        ....  10.000
 MO-DIIS                CNVKDIIS        .... off
 Trust-Rad. Augm. Hess. CNVTRAH         .... auto
   Auto Start mean grad. ratio tolernc. ....  1.125000
   Auto Start start iteration           ....    50
   Auto Start num. interpolation iter.  ....    10
   Max. Number of Micro iterations      ....    24
   Max. Number of Macro iterations      .... Maxiter - #DIIS iter
   Number of Davidson start vectors     ....     2
   Converg. threshold    (grad. norm)   ....   1.000e-05
   Grad. Scal. Fac. for Micro threshold ....   0.100
   Minimum threshold for Micro iter.    ....   1.000e-02
   NR start threshold (gradient norm)   ....   1.000e-04
   Initial trust radius                 ....   0.400
   Minimum AH scaling param. (alpha)    ....   1.000
   Maximum AH scaling param. (alpha)    .... 1000.000
   Quad. conv. algorithm                .... NR
   White noise on init. David. guess    .... on
   Maximum white noise                  ....   0.010
   Pseudo random numbers                .... off
   Inactive MOs                         .... canonical
   Orbital update algorithm             .... Taylor
   Preconditioner                       .... Diag
   Full preconditioner red. dimension   ....   250
 SOSCF                 CNVSOSCF           .... on
   Start iteration     SOSCFMaxIt         ....   150
   Startup grad/error  SOSCFStart         ....  0.003300
   Hessian update      SOSCFHessUp        .... L-BFGS
   Autom. constraints  SOSCFAutoConstrain .... off
 Level Shifting         CNVShift        .... on
   Level shift para.    LevelShift      ....    0.2500
   Turn off err/grad.   ShiftErr        ....    0.0010
 Zerner damping         CNVZerner       .... off
 Static damping         CNVDamp         .... on
   Fraction old density DampFac         ....    0.7000
   Max. Damping (<1)    DampMax         ....    0.9800
   Min. Damping (>=0)   DampMin         ....    0.0000
   Turn off err/grad.   DampErr         ....    0.1000

SCF Procedure:
 Maximum # iterations   MaxIter         ....   125
 SCF integral mode      SCFMode         .... Direct
   Integral package                     .... SHARK and LIBINT hybrid scheme
 Reset frequency        DirectResetFreq ....    20
 Integral Threshold     Thresh          ....  2.500e-11 Eh
 Primitive CutOff       TCut            ....  2.500e-12 Eh

Convergence Tolerance:
 Convergence Check Mode ConvCheckMode   .... Total+1el-Energy
 Convergence forced     ConvForced      .... 0
 Energy Change          TolE            ....  1.000e-08 Eh
 1-El. energy change                    ....  1.000e-05 Eh
 Orbital Gradient       TolG            ....  1.000e-05
 Orbital Rotation angle TolX            ....  1.000e-05
 DIIS Error             TolErr          ....  5.000e-07

------------------------------
INITIAL GUESS: MODEL POTENTIAL
------------------------------
Loading Hartree-Fock densities                     ... done
Calculating cut-offs                               ... done
Initializing the effective Hamiltonian             ... done
Setting up the integral package (SHARK)            ... done
Starting the Coulomb interaction                   ... done (   0.1 sec)
Making the grid                                    ... done (   0.2 sec)
Mapping shells                                     ... done
Starting the XC term evaluation                    ... done (   0.1 sec)
  promolecular density results
     # of electrons  =     79.993475818
     EX              =    -94.519574666
     EC              =     -2.769727898
     EX+EC           =    -97.289302563
Transforming the Hamiltonian                       ... done (   0.0 sec)
Diagonalizing the Hamiltonian                      ... done (   0.1 sec)
Back transforming the eigenvectors                 ... done (   0.0 sec)
Now organizing SCF variables                       ... done
                      ------------------
                      INITIAL GUESS DONE (   0.4 sec)
                      ------------------
             **** ENERGY FILE WAS UPDATED (run.en.tmp) ****
Finished Guess after   1.1 sec
Maximum memory used throughout the entire GUESS-calculation: 16.3 MB


           ************************************************************
           *        Program running with 24 parallel MPI-processes    *
           *              working on a common directory               *
           ************************************************************

-------------------------------------------------------------------------------------------
                                      ORCA LEAN-SCF
                              memory conserving SCF solver
-------------------------------------------------------------------------------------------

----------------------------------------D-I-I-S--------------------------------------------
Iteration    Energy (Eh)           Delta-E    RMSDP     MaxDP     DIISErr   Damp  Time(sec)
-------------------------------------------------------------------------------------------
               ***  Starting incremental Fock matrix formation  ***
    1    -1220.3645619449650894     0.00e+00  2.84e-03  2.12e-02  8.61e-02  0.700   0.8
    2    -1220.3854222887771357    -2.09e-02  2.57e-03  1.81e-02  5.84e-02  0.700   0.8
                               ***Turning on AO-DIIS***
    3    -1220.3987729038919952    -1.34e-02  1.49e-03  9.30e-03  3.48e-02  0.700   0.7
    4    -1220.4067372078304743    -7.96e-03  3.13e-03  1.83e-02  2.26e-02  0.000   0.7
                              *** Initializing SOSCF ***
---------------------------------------S-O-S-C-F--------------------------------------
Iteration    Energy (Eh)           Delta-E    RMSDP     MaxDP     MaxGrad    Time(sec)
--------------------------------------------------------------------------------------
    5    -1220.4226600293995944    -1.59e-02  3.24e-04  2.99e-03  1.92e-03     0.8
               *** Restarting incremental Fock matrix formation ***
    6    -1220.4227096929912477    -4.97e-05  1.81e-04  1.73e-03  1.99e-04     0.7
    7    -1220.4227131870454741    -3.49e-06  6.73e-05  1.05e-03  1.61e-04     0.6
    8    -1220.4227153005228956    -2.11e-06  3.21e-05  2.32e-04  4.23e-05     0.6
    9    -1220.4227154524994603    -1.52e-07  1.16e-05  6.24e-05  2.68e-05     0.6
   10    -1220.4227155347543885    -8.23e-08  4.14e-06  5.59e-05  5.10e-06     0.6
   11    -1220.4227155404337282    -5.68e-09  1.97e-06  2.34e-05  3.40e-06     0.6
                 **** Energy Check signals convergence ****

               *****************************************************
               *                     SUCCESS                       *
               *           SCF CONVERGED AFTER  11 CYCLES          *
               *****************************************************

             **** ENERGY FILE WAS UPDATED (run.en.tmp) ****

----------------
TOTAL SCF ENERGY
----------------

Total Energy       :      -1220.42271553553655 Eh          -33209.39042 eV

Components:
Nuclear Repulsion  :        426.50927142573528 Eh           11605.90731 eV
Electronic Energy  :      -1646.93198696127183 Eh          -44815.29773 eV
One Electron Energy:      -2544.37259434884209 Eh          -69235.89818 eV
Two Electron Energy:        897.44060738757025 Eh           24420.60045 eV

Virial components:
Potential Energy   :      -2438.02348242870357 Eh          -66341.99172 eV
Kinetic Energy     :       1217.60076689316679 Eh           33132.60130 eV
Virial Ratio       :          2.00231763047388

DFT components:
N(Alpha)           :       40.000004477255 electrons
N(Beta)            :       40.000004477255 electrons
N(Total)           :       80.000008954511 electrons
E(X)               :      -95.269642327305 Eh       
E(C)               :       -2.732870845772 Eh       
E(XC)              :      -98.002513173077 Eh       

---------------
SCF CONVERGENCE
---------------

  Last Energy change         ...    5.6793e-09  Tolerance :   1.0000e-08
  Last MAX-Density change    ...    2.3377e-05  Tolerance :   1.0000e-07
  Last RMS-Density change    ...    1.9659e-06  Tolerance :   5.0000e-09
  Last DIIS Error            ...    1.9217e-03  Tolerance :   5.0000e-07
  Last Orbital Gradient      ...    3.3979e-06  Tolerance :   1.0000e-05
  Last Orbital Rotation      ...    6.6063e-06  Tolerance :   1.0000e-05


----------------
ORBITAL ENERGIES
----------------

  NO   OCC          E(Eh)            E(eV) 
   0   2.0000     -55.406597     -1507.6902 
   1   2.0000     -55.387964     -1507.1831 
   2   2.0000     -55.385608     -1507.1190 
   3   2.0000     -55.378188     -1506.9171 
   4   2.0000     -55.371932     -1506.7469 
   5   2.0000      -3.963759      -107.8594 
   6   2.0000      -3.948204      -107.4361 
   7   2.0000      -3.946095      -107.3787 
   8   2.0000      -3.938545      -107.1733 
   9   2.0000      -3.933447      -107.0345 
  10   2.0000      -2.567583       -69.8675 
  11   2.0000      -2.566642       -69.8419 
  12   2.0000      -2.562636       -69.7329 
  13   2.0000      -2.553633       -69.4879 
  14   2.0000      -2.551117       -69.4194 
  15   2.0000      -2.551013       -69.4166 
  16   2.0000      -2.548937       -69.3601 
  17   2.0000      -2.545332       -69.2620 
  18   2.0000      -2.543671       -69.2168 
  19   2.0000      -2.543588       -69.2145 
  20   2.0000      -2.541293       -69.1521 
  21   2.0000      -2.539185       -69.0947 
  22   2.0000      -2.536049       -69.0094 
  23   2.0000      -2.535531       -68.9953 
  24   2.0000      -2.530951       -68.8707 
  25   2.0000      -0.496257       -13.5038 
  26   2.0000      -0.459353       -12.4996 
  27   2.0000      -0.426826       -11.6145 
  28   2.0000      -0.397977       -10.8295 
  29   2.0000      -0.350316        -9.5326 
  30   2.0000      -0.345039        -9.3890 
  31   2.0000      -0.316607        -8.6153 
  32   2.0000      -0.312438        -8.5019 
  33   2.0000      -0.303923        -8.2702 
  34   2.0000      -0.296512        -8.0685 
  35   2.0000      -0.288429        -7.8486 
  36   2.0000      -0.280232        -7.6255 
  37   2.0000      -0.277347        -7.5470 
  38   2.0000      -0.272865        -7.4250 
  39   2.0000      -0.270458        -7.3595 
  40   0.0000      -0.079479        -2.1627 
  41   0.0000      -0.066328        -1.8049 
  42   0.0000      -0.060087        -1.6350 
  43   0.0000      -0.045477        -1.2375 
  44   0.0000      -0.040640        -1.1059 
  45   0.0000      -0.037012        -1.0071 
  46   0.0000      -0.029159        -0.7935 
  47   0.0000      -0.017934        -0.4880 
  48   0.0000      -0.016919        -0.4604 
  49   0.0000      -0.006652        -0.1810 
  50   0.0000      -0.002258        -0.0615 
*Only the first 10 virtual orbitals were printed.
-------
TIMINGS
-------

Total SCF time: 0 days 0 hours 0 min 8 sec 

Total time                  ....       8.917 sec
Sum of individual times     ....       8.300 sec  ( 93.1%)

SCF preparation             ....       0.718 sec  (  8.1%)
Fock matrix formation       ....       6.384 sec  ( 71.6%)
  Startup                   ....       0.021 sec  (  0.3% of F)
  Split-RI-J                ....       1.406 sec  ( 22.0% of F)
  XC integration            ....       5.152 sec  ( 80.7% of F)
    XC Preparation          ....       0.000 sec  (  0.0% of XC)
    Basis function eval.    ....       1.402 sec  ( 27.2% of XC)
    Density eval.           ....       1.237 sec  ( 24.0% of XC)
    XC-Functional eval.     ....       0.134 sec  (  2.6% of XC)
    XC-Potential eval.      ....       1.223 sec  ( 23.7% of XC)
Diagonalization             ....       0.000 sec  (  0.0%)
Density matrix formation    ....       0.147 sec  (  1.7%)
Total Energy calculation    ....       0.058 sec  (  0.7%)
Population analysis         ....       0.000 sec  (  0.0%)
Orbital Transformation      ....       0.125 sec  (  1.4%)
Orbital Orthonormalization  ....       0.000 sec  (  0.0%)
DIIS solution               ....       0.494 sec  (  5.5%)
SOSCF solution              ....       0.374 sec  (  4.2%)
Finished LeanSCF after   9.0 sec

Maximum memory used throughout the entire LEANSCF-calculation: 17.1 MB


           ************************************************************
           *        Program running with 24 parallel MPI-processes    *
           *              working on a common directory               *
           ************************************************************

------------------------------------------------------------------------------
                         ORCA PROPERTY INTEGRAL CALCULATIONS
------------------------------------------------------------------------------

GBWName                                   ... run.gbw
Number of atoms                           ...     20
Number of basis functions                 ...    275
Max core memory                           ...   4096 MB

Dipole integrals                          ... YES
Quadrupole integrals                      ...  NO
Linear momentum integrals                 ...  NO
Angular momentum integrals                ...  NO
Higher moments length integrals           ...  NO
Higher moments velocity integrals         ...  NO
Kinetic energy integrals                  ...  NO
GIAO right hand sides                     ...  NO
GIAO dipole derivative integrals          ...  NO
SOC integrals                             ...  NO
EPR diamagnetic integrals (GIAO)          ...  NO
EPR gauge integrals                       ...  NO
Field gradient integrals                  ...  NO (   0 nuclei)
Spin-dipole/Fermi contact integrals       ...  NO (   0 nuclei)
Contact density integrals                 ...  NO (   0 nuclei)
Nucleus-orbit integrals                   ...  NO (   0 nuclei)
Geometric perturbations                   ...  NO (  20 nuclei)

Choice of electric origin   ... Center of mass
Position of electric origin ... (  0.5846, -3.0117,  5.3828) 
Choice of magnetic origin   ... GIAO
Position of magnetic origin ... (  0.0000,  0.0000,  0.0000) 

Calculating integrals                     ... Electric Dipole (Length)     done (  0.0 sec)

Property integrals calculated in   0.1 sec

Maximum memory used throughout the entire PROPINT-calculation: 16.9 MB


-------------------------------------------------------------------------------
                          DFT DISPERSION CORRECTION                            
                                                                               
                              DFTD3 V3.1  Rev 1                                
                          USING Becke-Johnson damping                          
-------------------------------------------------------------------------------
The PBE functional is recognized
Active option DFTDOPT                   ...         4   

molecular C6(AA) [au] = 7717.158212 


            DFT-D V3
 parameters
 s6 scaling factor         :     1.0000 
 a1 scaling factor         :     0.4289 
 s8 scaling factor         :     0.7875 
 a2 scaling factor         :     4.4407 
 ad hoc parameters k1-k3   :    16.0000     1.3333    -4.0000 

 Edisp/kcal,au: -11.851248711174  -0.018886164969 
 E6   /kcal   :  -7.441879065 
 E8   /kcal   :  -4.409369646 
 % E8         :  37.205949797 

-------------------------   ----------------
Dispersion correction           -0.018886165
-------------------------   ----------------


-------------------------   --------------------
FINAL SINGLE POINT ENERGY     -1220.441601700506
-------------------------   --------------------



           ************************************************************
           *        Program running with 24 parallel MPI-processes    *
           *              working on a common directory               *
           ************************************************************
------------------------------------------------------------------------------
                         ORCA SCF GRADIENT CALCULATION
------------------------------------------------------------------------------

Nuc. rep. gradient        (SHARK) ... done (  0.0 sec)
HCore & Overlap gradient  (SHARK) ... done (  0.2 sec)
Split-RIJ-J gradient      (SHARK) ... done (  0.7 sec)
XC gradient                       ... done (  3.1 sec)
Dispersion correction             ... done (  0.1 sec)

-------------------
DISPERSION GRADIENT
-------------------

   1   Al  :   -0.000230131    0.000587064    0.000110703
   2   Al  :   -0.000031837    0.000187296   -0.000503421
   3   H   :   -0.000060416   -0.000070304   -0.000166726
   4   H   :   -0.000012821    0.000056925   -0.000156523
   5   H   :   -0.000131919    0.000138961   -0.000073748
   6   H   :   -0.000126955    0.000100942    0.000067776
   7   H   :    0.000010905    0.000147995    0.000131175
   8   H   :    0.000147035    0.000095711   -0.000184021
   9   Al  :   -0.000094084   -0.000494989   -0.000420659
  10   H   :   -0.000038705   -0.000109603   -0.000020583
  11   H   :   -0.000106917   -0.000144337   -0.000060756
  12   H   :    0.000007055    0.000188902    0.000035836
  13   Al  :    0.000277631   -0.000041012    0.000338805
  14   H   :    0.000007136   -0.000004922    0.000159949
  15   H   :    0.000245671    0.000044123    0.000059174
  16   H   :    0.000084649   -0.000183198   -0.000123697
  17   Al  :    0.000026647   -0.000252708    0.000475173
  18   H   :    0.000046607   -0.000057342    0.000125365
  19   H   :    0.000073093   -0.000089187    0.000094872
  20   H   :   -0.000092643   -0.000100319    0.000111307

Difference to translation invariance:
           :    0.0000000000   -0.0000000000   -0.0000000000

Difference to rotation invariance:
           :    0.0000000000    0.0000000000   -0.0000000000

Norm of the Dispersion gradient    ...    0.0014711366
RMS gradient                       ...    0.0001899229
MAX gradient                       ...    0.0005870636

------------------
CARTESIAN GRADIENT
------------------

   1   Al  :   -0.000305552    0.000875671    0.000343607
   2   Al  :   -0.000427389   -0.000143305   -0.000867775
   3   H   :    0.000221668    0.000052428    0.000185356
   4   H   :   -0.000193823    0.000417915   -0.000643702
   5   H   :    0.000168958    0.000001199   -0.000051233
   6   H   :   -0.000724336   -0.000087458    0.000371219
   7   H   :   -0.000050613   -0.000292143   -0.000064977
   8   H   :    0.000704244    0.000134670   -0.000109665
   9   Al  :   -0.000571346   -0.000681016   -0.000881450
  10   H   :    0.000237179    0.000066669    0.000062111
  11   H   :   -0.000649233   -0.000390153    0.000219435
  12   H   :    0.000450159    0.000551068   -0.000172397
  13   Al  :   -0.000424465   -0.000094437    0.001376665
  14   H   :    0.000057644   -0.000108272   -0.000132529
  15   H   :    0.000789216    0.000155705   -0.000464150
  16   H   :    0.000771183   -0.000071025   -0.000133655
  17   Al  :    0.000208906   -0.000474808    0.000628889
  18   H   :    0.000625484    0.000062108    0.000491255
  19   H   :   -0.000117128    0.000231021    0.000045221
  20   H   :   -0.000770755   -0.000205837   -0.000202226

Difference to translation invariance:
           :   -0.0000000000    0.0000000000   -0.0000000001

Difference to rotation invariance:
           :    0.0000117117   -0.0000154422   -0.0000510414

Norm of the Cartesian gradient     ...    0.0035215058
RMS gradient                       ...    0.0004546244
MAX gradient                       ...    0.0013766648

-------
TIMINGS
-------

Total SCF gradient time     ....        4.017 sec

Densities                   ....       0.003 sec  (  0.1%)
One electron gradient       ....       0.156 sec  (  3.9%)
RI-J Coulomb gradient       ....       0.659 sec  ( 16.4%)
XC gradient                 ....       3.071 sec  ( 76.4%)

Maximum memory used throughout the entire SCFGRAD-calculation: 35.3 MB
------------------------------------------------------------------------------
                         ORCA GEOMETRY RELAXATION STEP
------------------------------------------------------------------------------

Reading the OPT-File                    .... done
Getting information on internals        .... done
Copying old internal coords+grads       .... done
Making the new internal coordinates     .... (2022 redundants) done
Validating the new internal coordinates .... (2022 redundants) done
Calculating the B-matrix                .... done
Calculating the G,G- and P matrices     .... done
Transforming gradient to internals      .... done
Projecting the internal gradient        .... done
Number of atoms                         ....  20
Number of internal coordinates          .... 224
Current Energy                          .... -1220.441601701 Eh
Current gradient norm                   ....     0.003521506 Eh/bohr
Maximum allowed component of the step   ....  0.300
Current trust radius                    ....  0.300
Evaluating the initial hessian          ....  (Almloef) done
Projecting the Hessian                  .... done
Forming the augmented Hessian           .... done
Diagonalizing the augmented Hessian     .... done
Last element of RFO vector              ....  0.999662276
Lowest eigenvalues of augmented Hessian:
 -0.000058639  0.012761176  0.015475945  0.019776470  0.023085516
Length of the computed step             ....  0.025995970
The final length of the internal step   ....  0.025995970
Converting the step to Cartesian space:
 Initial RMS(Int)=    0.0017369288
Transforming coordinates:
 Iter   0:  RMS(Cart)=    0.0052452175 RMS(Int)=    0.0017368869
done
Storing new coordinates                 .... done

                                .--------------------.
          ----------------------|Geometry convergence|-------------------------
          Item                value                   Tolerance       Converged
          ---------------------------------------------------------------------
          RMS gradient        0.0002209374            0.0000300000      NO
          MAX gradient        0.0008769854            0.0001000000      NO
          RMS step            0.0017369288            0.0006000000      NO
          MAX step            0.0072644812            0.0010000000      NO
          -------------------------------------------------------------------------
          ........................................................
          Max(Bonds)      0.0038      Max(Angles)    0.14
          Max(Dihed)        0.25      Max(Improp)    0.00
          ---------------------------------------------------------------------

The optimization has not yet converged - more geometry cycles are needed


    ---------------------------------------------------------------------------
                         Redundant Internal Coordinates
                            (Angstroem and degrees)

        Definition                    Value    dE/dq     Step     New-Value
    ----------------------------------------------------------------------------
     1. B(Al  1,Al  0)                3.0415  0.000816 -0.0038    3.0377   
     2. B(H   2,Al  1)                1.7266  0.000090 -0.0009    1.7257   
     3. B(H   3,Al  1)                1.5878  0.000784 -0.0010    1.5868   
     4. B(H   4,Al  1)                1.7079  0.000179 -0.0009    1.7070   
     5. B(H   4,Al  0)                1.7362  0.000225 -0.0012    1.7350   
     6. B(H   5,Al  0)                1.5932  0.000809 -0.0011    1.5921   
     7. B(H   6,Al  0)                1.6879  0.000392 -0.0016    1.6864   
     8. B(H   7,Al  1)                1.5960  0.000588 -0.0008    1.5952   
     9. B(Al  8,H   2)                1.7194  0.000223 -0.0011    1.7183   
    10. B(Al  8,Al  1)                3.0694  0.000632 -0.0036    3.0659   
    11. B(H   9,Al  8)                1.7197  0.000411 -0.0018    1.7180   
    12. B(H  10,Al  8)                1.5895  0.000775 -0.0010    1.5885   
    13. B(H  11,Al  0)                1.5942  0.000728 -0.0010    1.5933   
    14. B(Al 12,H   6)                1.7726  0.000175 -0.0015    1.7711   
    15. B(Al 12,Al  0)                3.3673  0.000671 -0.0036    3.3637   
    16. B(Al 12,H   9)                1.6979  0.000160 -0.0012    1.6968   
    17. B(Al 12,Al  8)                3.1652  0.000855 -0.0038    3.1615   
    18. B(H  13,Al 12)                1.7289  0.000053 -0.0001    1.7288   
    19. B(H  14,Al 12)                1.5803  0.000877 -0.0011    1.5792   
    20. B(H  15,Al  8)                1.5892  0.000773 -0.0010    1.5882   
    21. B(Al 16,H  13)                1.7646  0.000143 -0.0003    1.7643   
    22. B(Al 16,Al 12)                2.6532  0.000586 -0.0011    2.6521   
    23. B(H  17,Al 16)                1.5901  0.000787 -0.0010    1.5891   
    24. B(H  18,Al 16)                1.6996  0.000152 -0.0002    1.6993   
    25. B(H  18,Al 12)                1.8542 -0.000000 -0.0000    1.8542   
    26. B(H  19,Al 16)                1.5911  0.000790 -0.0010    1.5900   
    27. A(H   5,Al  0,H  11)          127.76  0.000069   -0.01    127.75   
    28. A(H   4,Al  0,H  11)          106.40 -0.000045   -0.02    106.38   
    29. A(Al  1,Al  0,H  11)           86.72  0.000043   -0.02     86.70   
    30. A(H   4,Al  0,H   6)           98.69 -0.000047    0.04     98.72   
    31. A(H   6,Al  0,H  11)          109.15  0.000087   -0.01    109.14   
    32. A(Al  1,Al  0,H   5)          130.25 -0.000126    0.06    130.31   
    33. A(Al  1,Al  0,H   4)           27.73 -0.000152    0.07     27.80   
    34. A(H   5,Al  0,Al 12)          110.69 -0.000158    0.03    110.72   
    35. A(H   5,Al  0,H   6)          108.21 -0.000123    0.03    108.24   
    36. A(Al  1,Al  0,H   6)           87.15  0.000080   -0.07     87.08   
    37. A(Al  1,Al  0,Al 12)           75.22  0.000156   -0.10     75.13   
    38. A(H   4,Al  0,H   5)          102.55  0.000026   -0.01    102.54   
    39. A(H  11,Al  0,Al 12)          114.26  0.000066    0.01    114.27   
    40. A(H   4,Al  0,Al 12)           85.05  0.000044   -0.01     85.04   
    41. A(H   6,Al  0,Al 12)           13.66 -0.000090    0.04     13.71   
    42. A(Al  0,Al  1,H   2)          112.48 -0.000227    0.05    112.53   
    43. A(Al  0,Al  1,H   7)           81.90  0.000197   -0.08     81.82   
    44. A(H   3,Al  1,H   4)          108.99  0.000044    0.02    109.01   
    45. A(H   2,Al  1,H   3)          105.77  0.000212   -0.04    105.73   
    46. A(H   2,Al  1,H   7)          106.31  0.000097   -0.01    106.30   
    47. A(H   4,Al  1,H   7)          107.66  0.000108   -0.04    107.62   
    48. A(Al  0,Al  1,H   4)           28.23 -0.000148    0.07     28.30   
    49. A(H   3,Al  1,Al  8)          131.74  0.000113    0.01    131.76   
    50. A(H   2,Al  1,H   4)           93.73 -0.000090   -0.03     93.71   
    51. A(Al  0,Al  1,H   3)          119.96 -0.000031    0.02    119.98   
    52. A(H   4,Al  1,Al  8)           90.18 -0.000108    0.00     90.19   
    53. A(Al  0,Al  1,Al  8)           98.00 -0.000146    0.03     98.03   
    54. A(H   7,Al  1,Al  8)           82.01  0.000231   -0.09     81.92   
    55. A(H   2,Al  1,Al  8)           26.97 -0.000108    0.06     27.04   
    56. A(H   3,Al  1,H   7)          128.71 -0.000305    0.06    128.77   
    57. A(Al  1,H   2,Al  8)          125.93  0.000239   -0.13    125.80   
    58. A(Al  0,H   4,Al  1)          124.04  0.000301   -0.14    123.90   
    59. A(Al  0,H   6,Al 12)          153.34  0.000159   -0.09    153.25   
    60. A(H   9,Al  8,H  15)          108.73 -0.000110    0.04    108.77   
    61. A(H   2,Al  8,H  15)          109.82 -0.000026    0.01    109.83   
    62. A(Al  1,Al  8,H  15)           99.47 -0.000027    0.02     99.49   
    63. A(H   2,Al  8,H  10)          105.86  0.000041   -0.01    105.85   
    64. A(Al  1,Al  8,H  10)          127.29 -0.000060    0.02    127.30   
    65. A(H   2,Al  8,H   9)           92.83  0.000073   -0.01     92.81   
    66. A(Al  1,Al  8,H   9)           72.20  0.000181   -0.08     72.11   
    67. A(Al  1,Al  8,H   2)           27.10 -0.000130    0.07     27.16   
    68. A(H   9,Al  8,H  10)          104.62 -0.000085    0.01    104.63   
    69. A(H  10,Al  8,Al 12)          118.79 -0.000185    0.06    118.85   
    70. A(H   9,Al  8,Al 12)           22.01 -0.000148    0.05     22.06   
    71. A(H   2,Al  8,Al 12)          103.38  0.000003   -0.01    103.37   
    72. A(Al  1,Al  8,Al 12)           77.89  0.000154   -0.10     77.80   
    73. A(H  10,Al  8,H  15)          128.96  0.000098   -0.02    128.93   
    74. A(Al 12,Al  8,H  15)           86.90  0.000038   -0.02     86.89   
    75. A(Al  8,H   9,Al 12)          135.68  0.000267   -0.09    135.59   
    76. A(H   9,Al 12,H  14)          125.71 -0.000259    0.07    125.78   
    77. A(Al  8,Al 12,H  14)          107.47 -0.000145    0.05    107.51   
    78. A(H   6,Al 12,H  14)          101.29 -0.000028    0.00    101.29   
    79. A(Al  0,Al 12,H  14)          105.33 -0.000094    0.02    105.35   
    80. A(H   9,Al 12,H  13)          109.95  0.000163   -0.04    109.91   
    81. A(Al  8,Al 12,H  13)          125.38  0.000066   -0.03    125.35   
    82. A(H   6,Al 12,H  13)           84.56  0.000171   -0.04     84.53   
    83. A(Al  0,Al 12,H  13)           92.36  0.000144   -0.01     92.35   
    84. A(H  13,Al 12,H  14)          124.24  0.000094   -0.03    124.21   
    85. A(Al  8,Al 12,H   9)           22.31 -0.000119    0.04     22.35   
    86. A(H   6,Al 12,H   9)           85.77 -0.000083    0.00     85.78   
    87. A(Al  0,Al 12,H   9)           73.30 -0.000021   -0.03     73.26   
    88. A(H   6,Al 12,Al  8)          102.76 -0.000191    0.06    102.82   
    89. A(Al  0,Al 12,Al  8)           89.77 -0.000122    0.02     89.78   
    90. A(Al 16,Al 12,H  18)           39.53 -0.000078    0.02     39.55   
    91. A(H  14,Al 12,H  18)           99.17  0.000051   -0.01     99.16   
    92. A(Al  0,Al 12,H   6)           13.00 -0.000069    0.04     13.04   
    93. A(H   9,Al 12,H  18)           85.60  0.000118   -0.01     85.59   
    94. A(Al  8,Al 12,H  18)           74.64  0.000204   -0.06     74.59   
    95. A(H   6,Al 12,H  18)          159.14 -0.000013    0.01    159.15   
    96. A(Al  0,Al 12,H  18)          154.05  0.000043   -0.02    154.03   
    97. A(H  14,Al 12,Al 16)          117.66  0.000054    0.00    117.66   
    98. A(H  13,Al 12,Al 16)           41.09 -0.000092    0.02     41.10   
    99. A(H   9,Al 12,Al 16)          100.05  0.000174   -0.05    100.00   
   100. A(Al  8,Al 12,Al 16)          101.62  0.000161   -0.06    101.56   
   101. A(H   6,Al 12,Al 16)          124.25  0.000077   -0.02    124.23   
   102. A(Al  0,Al 12,Al 16)          128.91  0.000075   -0.02    128.89   
   103. A(H  13,Al 12,H  18)           80.61 -0.000170    0.03     80.65   
   104. A(Al 12,H  13,Al 16)           98.83  0.000204   -0.04     98.79   
   105. A(H  18,Al 16,H  19)          110.36 -0.000081    0.02    110.39   
   106. A(H  17,Al 16,H  19)          129.63  0.000209   -0.04    129.58   
   107. A(Al 12,Al 16,H  19)          115.13 -0.000151    0.02    115.15   
   108. A(H  17,Al 16,H  18)          110.65  0.000007   -0.01    110.64   
   109. A(H  13,Al 16,H  18)           84.06 -0.000248    0.05     84.11   
   110. A(Al 12,Al 16,H  18)           43.98 -0.000136    0.03     44.01   
   111. A(H  13,Al 16,H  17)          106.01 -0.000013   -0.00    106.01   
   112. A(H  13,Al 16,H  19)          106.10 -0.000068    0.03    106.13   
   113. A(Al 12,Al 16,H  17)          114.53 -0.000061    0.02    114.55   
   114. A(Al 12,Al 16,H  13)           40.08 -0.000111    0.02     40.11   
   115. A(Al 12,H  18,Al 16)           96.49  0.000214   -0.05     96.45   
   116. D(H   3,Al  1,Al  0,Al 12)   -178.18 -0.000083    0.21   -177.98   
   117. D(H   2,Al  1,Al  0,H   4)    -51.55 -0.000055    0.08    -51.48   
   118. D(H   2,Al  1,Al  0,Al 12)     56.50 -0.000140    0.20     56.70   
   119. D(H   2,Al  1,Al  0,H   6)     63.27 -0.000193    0.24     63.50   
   120. D(H   3,Al  1,Al  0,H   5)     77.01 -0.000008    0.25     77.26   
   121. D(H   3,Al  1,Al  0,H   4)     73.76  0.000002    0.09     73.85   
   122. D(H   2,Al  1,Al  0,H  11)    172.65 -0.000115    0.23    172.88   
   123. D(H   3,Al  1,Al  0,H   6)   -171.42 -0.000136    0.25   -171.17   
[...]
     29       0.061873  -0.152965  -0.033996  -0.013041  -0.000004  -0.029569
     30      -0.277610   0.395513   0.107653   0.551759   0.122824   0.014989
     31      -0.228467   0.327125   0.091499   0.465932   0.102627   0.011983
     32       0.037480  -0.051782  -0.012111  -0.075255  -0.015081  -0.004031
     33       0.130235   0.040831  -0.006663   0.015083  -0.011883   0.001354
     34       0.148231   0.046151  -0.007686   0.016560  -0.017801  -0.000913
     35      -0.094216  -0.027117   0.005656  -0.011232   0.009649   0.003055
     36       0.001556   0.005699  -0.000731   0.001777  -0.000259  -0.032894
     37      -0.000702  -0.000023  -0.000323   0.001113  -0.000119  -0.010498
     38      -0.001231   0.002114   0.000843   0.000282   0.000631   0.005518
     39       0.000259  -0.001343   0.002204   0.002863   0.001296   0.002055
     40      -0.001528  -0.015021  -0.008857   0.002393   0.005913  -0.024613
     41       0.000954   0.014651   0.009114  -0.005415  -0.006035   0.011150
     42      -0.064309  -0.044763   0.051003  -0.055392  -0.000132   0.929372
     43      -0.019330  -0.017074   0.011530  -0.016649   0.001491   0.248149
     44       0.008895   0.006545  -0.009657   0.007139  -0.005315  -0.148171
     45       0.364093  -0.605183   0.055194   0.607493   0.109450   0.050918
     46      -0.074730   0.126921  -0.013826  -0.138174  -0.021501  -0.010965
     47      -0.061512   0.102127  -0.009617  -0.104200  -0.017738  -0.011020
     48       0.000016  -0.001897   0.038893  -0.006388  -0.001085  -0.002247
     49      -0.000348   0.000635   0.006749  -0.001722  -0.000726   0.000747
     50       0.000841  -0.002309   0.022587  -0.002311   0.000315  -0.002910
     51      -0.019818   0.054429  -0.538236   0.060122  -0.003314   0.047878
     52       0.002500  -0.007037   0.065885  -0.007248   0.000883  -0.007666
     53      -0.021899   0.059869  -0.587560   0.064396  -0.004499   0.052220
     54       0.001783   0.000255   0.006077   0.004952   0.002228  -0.011425
     55       0.001881  -0.005980  -0.004751   0.001976   0.002704  -0.022923
     56      -0.003483   0.003208   0.007483  -0.009916  -0.006912   0.025314
     57       0.017824  -0.001388  -0.516073   0.108270   0.030540   0.017743
     58       0.007856  -0.000045  -0.243443   0.050581   0.014581   0.005448
     59       0.001080  -0.001054  -0.027056   0.007044   0.001541   0.002665


-----------
IR SPECTRUM
-----------

 Mode   freq       eps      Int      T**2         TX        TY        TZ
       cm**-1   L/(mol*cm) km/mol    a.u.
----------------------------------------------------------------------------
  6:     41.72   0.000477    2.41  0.003568  ( 0.028087 -0.039581  0.034813)
  7:     46.33   0.000073    0.37  0.000492  (-0.014801 -0.000377 -0.016519)
  8:     73.08   0.000241    1.22  0.001031  (-0.023215  0.020226  0.009107)
  9:     90.54   0.001004    5.08  0.003462  (-0.009191  0.049865 -0.029847)
 10:    114.72   0.001486    7.51  0.004043  ( 0.025844  0.000483  0.058095)
 11:    128.28   0.000352    1.78  0.000857  (-0.008766 -0.022412 -0.016661)
 12:    189.62   0.000095    0.48  0.000156  ( 0.006659  0.002611 -0.010256)
 13:    203.11   0.000697    3.52  0.001071  (-0.015369  0.018797 -0.021939)
 14:    211.79   0.000808    4.08  0.001191  (-0.005052  0.020966  0.026939)
 15:    238.65   0.000129    0.65  0.000169  (-0.008137  0.001303 -0.010036)
 16:    290.93   0.004068   20.56  0.004364  (-0.012907  0.009879 -0.064028)
 17:    307.19   0.000916    4.63  0.000930  ( 0.025469  0.015565  0.006282)
 18:    339.96   0.001940    9.81  0.001781  ( 0.018009 -0.034999  0.015232)
 19:    348.20   0.002397   12.11  0.002148  (-0.010647 -0.019524  0.040666)
 20:    373.84   0.006887   34.80  0.005749  ( 0.047588 -0.031945  0.049633)
 21:    393.43   0.002331   11.78  0.001849  (-0.018697  0.032553 -0.020974)
 22:    433.26   0.000625    3.16  0.000450  ( 0.003222  0.009349  0.018771)
 23:    435.62   0.000228    1.15  0.000163  ( 0.004198  0.011801 -0.002551)
 24:    479.27   0.001821    9.20  0.001186  ( 0.020465  0.021285  0.017712)
 25:    502.99   0.020953  105.89  0.013000  (-0.014833 -0.015251  0.112013)
 26:    531.39   0.026423  133.53  0.015517  (-0.016966 -0.098576 -0.074245)
 27:    549.31   0.007388   37.34  0.004197  ( 0.025287 -0.004963  0.059440)
 28:    569.62   0.043240  218.52  0.023689  (-0.064200  0.135550 -0.034546)
 29:    652.42   0.122342  618.26  0.058518  (-0.015748  0.164397 -0.176759)
 30:    669.08   0.054051  273.15  0.025210  (-0.007738  0.129234 -0.091915)
 31:    676.15   0.097548  492.97  0.045021  (-0.026104  0.166701  0.128647)
 32:    688.21   0.045882  231.87  0.020805  ( 0.061800 -0.103896 -0.078685)
 33:    700.20   0.027379  138.36  0.012202  (-0.035241 -0.082998  0.063810)
 34:    721.81   0.020237  102.27  0.008749  ( 0.089925 -0.021217  0.014584)
 35:    733.95   0.036094  182.40  0.015346  (-0.042760 -0.060010  0.099583)
 36:    739.49   0.025295  127.83  0.010675  (-0.017306 -0.086258 -0.054172)
 37:    758.33   0.037369  188.85  0.015378  (-0.026534  0.043445 -0.113077)
 38:    827.79   0.019981  100.98  0.007533  (-0.077800 -0.028213 -0.026153)
 39:    847.06   0.028702  145.05  0.010574  ( 0.028310  0.034858  0.092507)
 40:   1054.55   0.050154  253.46  0.014842  ( 0.065997 -0.095386  0.037251)
 41:   1101.27   0.030762  155.46  0.008717  (-0.003118  0.093217 -0.004214)
 42:   1139.90   0.019061   96.32  0.005218  ( 0.030062  0.016928  0.063465)
 43:   1190.65   0.021208  107.18  0.005559  ( 0.064053  0.027411  0.026542)
 44:   1376.04   0.026720  135.03  0.006060  (-0.032283  0.067983  0.019897)
 45:   1429.34   0.154437  780.46  0.033718  ( 0.002269 -0.113930  0.143987)
 46:   1568.08   0.069799  352.74  0.013891  (-0.011512 -0.059362  0.101165)
 47:   1617.00   0.066146  334.28  0.012766  (-0.020323  0.104789  0.037037)
 48:   1687.87   0.072767  367.73  0.013454  ( 0.016085  0.047062 -0.104785)
 49:   1757.26   0.203966  1030.76  0.036221  ( 0.025757 -0.176689 -0.065871)
 50:   1844.09   0.057708  291.63  0.009765  ( 0.057392 -0.054145  0.059498)
 51:   1862.75   0.053999  272.89  0.009046  ( 0.051582 -0.038643  0.069946)
 52:   1879.37   0.020728  104.75  0.003442  (-0.057196  0.000363 -0.013051)
 53:   1891.10   0.011667   58.96  0.001925  (-0.029267 -0.026261  0.019471)
 54:   1900.58   0.019789  100.01  0.003249  (-0.046709  0.013052  0.029953)
 55:   1903.00   0.012143   61.36  0.001991  ( 0.001381 -0.029774  0.033209)
 56:   1909.95   0.030882  156.06  0.005046  ( 0.053259  0.000556  0.046999)
 57:   1918.78   0.032743  165.47  0.005325  (-0.067915 -0.022017  0.015104)
 58:   1923.36   0.028839  145.74  0.004679  (-0.029575  0.021623 -0.057766)
 59:   1941.55   0.017329   87.57  0.002785  (-0.037273 -0.034685  0.013891)

* The epsilon (eps) is given for a Dirac delta lineshape.
** The dipole moment derivative (T) already includes vibrational overlap.

The first frequency considered to be a vibration is 6
The total number of vibrations considered is 54


--------------------------
THERMOCHEMISTRY AT 298.15K
--------------------------

Temperature         ...   298.15 K
Pressure            ...     1.00 atm
Total Mass          ...   150.03 AMU
Quasi RRHO          ...     True
Cut-Off Frequency   ...     1.00 cm^-1

Throughout the following assumptions are being made:
  (1) The electronic state is orbitally nondegenerate
  (2) There are no thermally accessible electronically excited states
  (3) Hindered rotations indicated by low frequency modes are not
      treated as such but are treated as vibrations and this may
      cause some error
  (4) All equations used are the standard statistical mechanics
      equations for an ideal gas
  (5) All vibrations are strictly harmonic

freq.      41.72  E(vib)   ...       0.53 
freq.      46.33  E(vib)   ...       0.53 
freq.      73.08  E(vib)   ...       0.49 
freq.      90.54  E(vib)   ...       0.47 
freq.     114.72  E(vib)   ...       0.44 
freq.     128.28  E(vib)   ...       0.43 
freq.     189.62  E(vib)   ...       0.36 
freq.     203.11  E(vib)   ...       0.35 
freq.     211.79  E(vib)   ...       0.34 
freq.     238.65  E(vib)   ...       0.32 
freq.     290.93  E(vib)   ...       0.27 
freq.     307.19  E(vib)   ...       0.26 
freq.     339.96  E(vib)   ...       0.23 
freq.     348.20  E(vib)   ...       0.23 
freq.     373.84  E(vib)   ...       0.21 
freq.     393.43  E(vib)   ...       0.20 
freq.     433.26  E(vib)   ...       0.17 
freq.     435.62  E(vib)   ...       0.17 
freq.     479.27  E(vib)   ...       0.15 
freq.     502.99  E(vib)   ...       0.14 
freq.     531.39  E(vib)   ...       0.13 
freq.     549.31  E(vib)   ...       0.12 
freq.     569.62  E(vib)   ...       0.11 
freq.     652.42  E(vib)   ...       0.08 
freq.     669.08  E(vib)   ...       0.08 
freq.     676.15  E(vib)   ...       0.08 
freq.     688.21  E(vib)   ...       0.07 
freq.     700.20  E(vib)   ...       0.07 
freq.     721.81  E(vib)   ...       0.07 
freq.     733.95  E(vib)   ...       0.06 
freq.     739.49  E(vib)   ...       0.06 
freq.     758.33  E(vib)   ...       0.06 
freq.     827.79  E(vib)   ...       0.04 
freq.     847.06  E(vib)   ...       0.04 
freq.    1054.55  E(vib)   ...       0.02 
freq.    1101.27  E(vib)   ...       0.02 
freq.    1139.90  E(vib)   ...       0.01 
freq.    1190.65  E(vib)   ...       0.01 
freq.    1376.04  E(vib)   ...       0.01 
freq.    1429.34  E(vib)   ...       0.00 
freq.    1568.08  E(vib)   ...       0.00 
freq.    1617.00  E(vib)   ...       0.00 
freq.    1687.87  E(vib)   ...       0.00 
freq.    1757.26  E(vib)   ...       0.00 
freq.    1844.09  E(vib)   ...       0.00 
freq.    1862.75  E(vib)   ...       0.00 
freq.    1879.37  E(vib)   ...       0.00 
freq.    1891.10  E(vib)   ...       0.00 
freq.    1900.58  E(vib)   ...       0.00 
freq.    1903.00  E(vib)   ...       0.00 
freq.    1909.95  E(vib)   ...       0.00 
freq.    1918.78  E(vib)   ...       0.00 
freq.    1923.36  E(vib)   ...       0.00 
freq.    1941.55  E(vib)   ...       0.00 

------------
INNER ENERGY
------------

The inner energy is: U= E(el) + E(ZPE) + E(vib) + E(rot) + E(trans)
    E(el)   - is the total energy from the electronic structure calculation
              = E(kin-el) + E(nuc-el) + E(el-el) + E(nuc-nuc)
    E(ZPE)  - the the zero temperature vibrational energy from the frequency calculation
    E(vib)  - the the finite temperature correction to E(ZPE) due to population
              of excited vibrational states
    E(rot)  - is the rotational thermal energy
    E(trans)- is the translational thermal energy

Summary of contributions to the inner energy U:
Electronic energy                ...  -1220.44227980 Eh
Zero point energy                ...      0.10890515 Eh      68.34 kcal/mol
Thermal vibrational correction   ...      0.01188806 Eh       7.46 kcal/mol
Thermal rotational correction    ...      0.00141627 Eh       0.89 kcal/mol
Thermal translational correction ...      0.00141627 Eh       0.89 kcal/mol
-----------------------------------------------------------------------
Total thermal energy                  -1220.31865405 Eh


Summary of corrections to the electronic energy:
(perhaps to be used in another calculation)
Total thermal correction                  0.01472061 Eh       9.24 kcal/mol
Non-thermal (ZPE) correction              0.10890515 Eh      68.34 kcal/mol
-----------------------------------------------------------------------
Total correction                          0.12362575 Eh      77.58 kcal/mol


--------
ENTHALPY
--------

The enthalpy is H = U + kB*T
                kB is Boltzmann's constant
Total thermal energy              ...  -1220.31865405 Eh 
Thermal Enthalpy correction       ...      0.00094421 Eh       0.59 kcal/mol
-----------------------------------------------------------------------
Total Enthalpy                    ...  -1220.31770984 Eh


Note: Only C1 symmetry has been detected, increase convergence thresholds 
      if your molecule has a higher symmetry. Symmetry factor of 1.0 is   
      used for the rotational entropy correction. 
 

Note: Rotational entropy computed according to Herzberg 
Infrared and Raman Spectra, Chapter V,1, Van Nostrand Reinhold, 1945 
Point Group:  C1, Symmetry Number:   1  
Rotational constants in cm-1:     0.047776     0.023301     0.017154 

Vibrational entropy computed according to the QRRHO of S. Grimme
Chem.Eur.J. 2012 18 9955 using a reference frequency of 100.0 cm-1


-------
ENTROPY
-------

The entropy contributions are T*S = T*(S(el)+S(vib)+S(rot)+S(trans))
     S(el)   - electronic entropy
     S(vib)  - vibrational entropy
     S(rot)  - rotational entropy
     S(trans)- translational entropy
The entropies will be listed as multiplied by the temperature to get
units of energy

Electronic entropy                ...      0.00000000 Eh      0.00 kcal/mol
Vibrational entropy               ...      0.02068027 Eh     12.98 kcal/mol
Rotational entropy                ...      0.01464055 Eh      9.19 kcal/mol
Translational entropy             ...      0.01944577 Eh     12.20 kcal/mol
-----------------------------------------------------------------------
Final entropy term                ...      0.05476659 Eh     34.37 kcal/mol

In case the symmetry of your molecule has not been determined correctly
or in case you have a reason to use a different symmetry number we print 
out the resulting rotational entropy values for sn=1,12:

 non-linear molecules -----------------------------------
|  sn= 1 | S(rot)=       0.01464055 Eh      9.19 kcal/mol|
|  sn= 2 | S(rot)=       0.01398609 Eh      8.78 kcal/mol|
|  sn= 3 | S(rot)=       0.01360326 Eh      8.54 kcal/mol|
|  sn= 4 | S(rot)=       0.01333164 Eh      8.37 kcal/mol|
|  sn= 5 | S(rot)=       0.01312095 Eh      8.23 kcal/mol|
|  sn= 6 | S(rot)=       0.01294880 Eh      8.13 kcal/mol|
|  sn= 7 | S(rot)=       0.01280326 Eh      8.03 kcal/mol|
|  sn= 8 | S(rot)=       0.01267718 Eh      7.96 kcal/mol|
|  sn= 9 | S(rot)=       0.01256597 Eh      7.89 kcal/mol|
|  sn=10 | S(rot)=       0.01246649 Eh      7.82 kcal/mol|
|  sn=11 | S(rot)=       0.01237650 Eh      7.77 kcal/mol|
|  sn=12 | S(rot)=       0.01229435 Eh      7.71 kcal/mol|
 linear molecules ---------------------------------------
|  Dinfh | S(rot)=       0.00916437 Eh      5.75 kcal/mol|
|  Cinfv | S(rot)=       0.00981883 Eh      6.16 kcal/mol|
 --------------------------------------------------------


-------------------
GIBBS FREE ENERGY
-------------------

The Gibbs free energy is G = H - T*S

Total enthalpy                    ...  -1220.31770984 Eh 
Total entropy correction          ...     -0.05476659 Eh    -34.37 kcal/mol
-----------------------------------------------------------------------
Final Gibbs free energy         ...  -1220.37247643 Eh

For completeness - the Gibbs free energy minus the electronic energy
G-E(el)                           ...      0.06980337 Eh     43.80 kcal/mol


Maximum memory used throughout the entire PROP-calculation: 41.3 MB

--------------------------------
SUGGESTED CITATIONS FOR THIS RUN
--------------------------------

Below you find a list of papers that are relevant to this ORCA run
We neither can nor want to force you to cite these papers, but we appreciate if you do
You receive ORCA, which is the product of decades of hard work by many enthusiastic individuals, for free
The only thing we kindly ask in return is that you cite our papers,
We deeply appreciate it, if you show your appreciation for ORCA by not just citing the generic ORCA reference.

Please note that relegating all ORCA citations to the supporting information does *not* help us.
SI sections are not indexed - citations you put there will not count into any citation statistics
But we need these citations in order to attract the funding resources that allow us to do what we are doing

Therefore, if you are a happy ORCA user, please consider citing a few of the papers listed below in the main body of your paper

In addition to the list printed below, the program has created the file run.bibtex that contains the list in bibtex format
You can import this file easily into all common literature databanks and citation aid programs


List of essential papers. We consider these as the minimum necessary citations

  1. Neese, F.
     Software update: the ORCA program system, version 6.0
     WIRES Comput. Molec. Sci. 2025 15(1), e70019
     doi.org/10.1002/wcms.7019

List of papers to cite with high priority. The work reported in these papers was absolutely
necessary for this run to complete.
Our perspective: the developers of density functionals and basis sets usually get cited in chemistry papers
Good! But without the algorithms to do something with them, the functionals or basis sets would not do anything.
Hence, in our opinion, the algorithm design and method developments papers are equally worthy of getting cited

  1. Neese, F.
     An improvement of the resolution of the identity approximation for the formation of the Coulomb matrix
     J. Comp. Chem. 2003 24(14), 1740-1747
     doi.org/10.1002/jcc.10318
  2. Grimme, S.; Antony, J.; Ehrlich, S.; Krieg, H.
     A consistent and accurate ab initio parametrization of density functional dispersion correction (DFT-D) for the 94 elements H-Pu
     J. Chem. Phys. 2010 132 , 154104
     doi.org/10.1063/1.3382344
  3. Grimme, S.; Ehrlich, S.; Goerigk, L.
     Effect of the damping function in dispersion corrected density functional theory
     J. Comput. Chem. 2011 32(7), 1456-1465
     doi.org/10.1002/jcc.21759
  4. Bykov, D.; Petrenko, T.; Izsak, R.; Kossmann, S.; Becker, U.; Valeev, E.; Neese, F.
     Efficient implementation of the analytic second derivatives of Hartree-Fock and hybrid DFT energies: a detailed analysis of different approximations
     Molec. Phys. 2015 113 , 1961-1977
     doi.org/10.1080/00268976.2015.1025114
  5. Neese, F.
     The SHARK Integral Generation and Digestion System
     J. Comp. Chem. 2022 44(3), 381
     doi.org/10.1002/jcc.26942

List of suggested additional citations. These are papers that are important in the 'surrounding' of 
of this run, or papers that preceded the highly important papers. If you like your results we are grateful for a citation.

  1. Neese, F.
     The ORCA program system
     WIRES Comput. Molec. Sci. 2012 2(1), 73-78
     doi.org/10.1002/wcms.81
  2. Neese, F.
     Software update: the ORCA program system, version 4.0
     WIRES Comput. Molec. Sci. 2018 8(1), 1-6
     doi.org/10.1002/wcms.1327
  3. Neese, F.; Wennmohs, F.; Becker, U.; Riplinger, C.
     The ORCA quantum chemistry program package
     J. Chem. Phys. 2020 152(22), 224108
     doi.org/10.1063/5.0004608
  4. Neese, F.
     Software update: The ORCA program system—Version 5.0
     WIRES Comput. Molec. Sci. 2022 12(1), e1606
     doi.org/10.1002/wcms.1606

List of optional additional citations

  1. Neese, F.
     Approximate second-order SCF convergence for spin unrestricted wavefunctions
     Chem. Phys. Lett. 2000 325(1-3), 93-98
     doi.org/10.1016/s0009-2614(00)00662-x

Timings for individual modules:

Sum of individual times          ...      824.797 sec (=  13.747 min)
Startup calculation              ...      249.964 sec (=   4.166 min)  30.3 %
SCF iterations                   ...      232.561 sec (=   3.876 min)  28.2 %
Property integrals               ...       94.367 sec (=   1.573 min)  11.4 %
SCF Response                     ...       34.862 sec (=   0.581 min)   4.2 %
Property calculations            ...       33.469 sec (=   0.558 min)   4.1 %
SCF Gradient evaluation          ...      178.510 sec (=   2.975 min)  21.6 %
Geometry relaxation              ...        1.064 sec (=   0.018 min)   0.1 %
                             ****ORCA TERMINATED NORMALLY****
TOTAL RUN TIME: 0 days 0 hours 14 minutes 18 seconds 925 msec
