
                                 *****************
                                 * O   R   C   A *
                                 *****************

                                            #,                                       
                                            ###                                      
                                            ####                                     
                                            #####                                    
                                            ######                                   
                                           ########,                                 
                                     ,,################,,,,,                         
                               ,,#################################,,                 
                          ,,##########################################,,             
                       ,#########################################, ''#####,          
                    ,#############################################,,   '####,        
                  ,##################################################,,,,####,       
                ,###########''''           ''''###############################       
              ,#####''   ,,,,##########,,,,          '''####'''          '####       
            ,##' ,,,,###########################,,,                        '##       
           ' ,,###''''                  '''############,,,                           
         ,,##''                                '''############,,,,        ,,,,,,###''
      ,#''                                            '''#######################'''  
     '                                                          ''''####''''         
             ,#######,   #######,   ,#######,      ##                                
            ,#'     '#,  ##    ##  ,#'     '#,    #''#        ######   ,####,        
            ##       ##  ##   ,#'  ##            #'  '#       #        #'  '#        
            ##       ##  #######   ##           ,######,      #####,   #    #        
            '#,     ,#'  ##    ##  '#,     ,#' ,#      #,         ##   #,  ,#        
             '#######'   ##     ##  '#######'  #'      '#     #####' # '####'        



                  #######################################################
                  #                        -***-                        #
                  #          Department of theory and spectroscopy      #
                  #    Directorship and core code : Frank Neese         #
                  #        Max Planck Institute fuer Kohlenforschung    #
                  #                Kaiser Wilhelm Platz 1               #
                  #                 D-45470 Muelheim/Ruhr               #
                  #                      Germany                        #
                  #                                                     #
                  #                  All rights reserved                #
                  #                        -***-                        #
                  #######################################################


                         Program Version 5.0.4 -  RELEASE  -


 With contributions from (in alphabetic order):
   Daniel Aravena         : Magnetic Suceptibility
   Michael Atanasov       : Ab Initio Ligand Field Theory (pilot matlab implementation)
   Alexander A. Auer      : GIAO ZORA, VPT2 properties, NMR spectrum
   Ute Becker             : Parallelization
   Giovanni Bistoni       : ED, misc. LED, open-shell LED, HFLD
   Martin Brehm           : Molecular dynamics
   Dmytro Bykov           : SCF Hessian
   Vijay G. Chilkuri      : MRCI spin determinant printing, contributions to CSF-ICE
   Dipayan Datta          : RHF DLPNO-CCSD density
   Achintya Kumar Dutta   : EOM-CC, STEOM-CC
   Dmitry Ganyushin       : Spin-Orbit,Spin-Spin,Magnetic field MRCI
   Miquel Garcia          : C-PCM and meta-GGA Hessian, CC/C-PCM, Gaussian charge scheme
   Yang Guo               : DLPNO-NEVPT2, F12-NEVPT2, CIM, IAO-localization
   Andreas Hansen         : Spin unrestricted coupled pair/coupled cluster methods
   Benjamin Helmich-Paris : MC-RPA, TRAH-SCF, COSX integrals
   Lee Huntington         : MR-EOM, pCC
   Robert Izsak           : Overlap fitted RIJCOSX, COSX-SCS-MP3, EOM
   Marcus Kettner         : VPT2
   Christian Kollmar      : KDIIS, OOCD, Brueckner-CCSD(T), CCSD density, CASPT2, CASPT2-K
   Simone Kossmann        : Meta GGA functionals, TD-DFT gradient, OOMP2, MP2 Hessian
   Martin Krupicka        : Initial AUTO-CI
   Lucas Lang             : DCDCAS
   Marvin Lechner         : AUTO-CI (C++ implementation), FIC-MRCC
   Dagmar Lenk            : GEPOL surface, SMD
   Dimitrios Liakos       : Extrapolation schemes; Compound Job, initial MDCI parallelization
   Dimitrios Manganas     : Further ROCIS development; embedding schemes
   Dimitrios Pantazis     : SARC Basis sets
   Anastasios Papadopoulos: AUTO-CI, single reference methods and gradients
   Taras Petrenko         : DFT Hessian,TD-DFT gradient, ASA, ECA, R-Raman, ABS, FL, XAS/XES, NRVS
   Peter Pinski           : DLPNO-MP2, DLPNO-MP2 Gradient
   Christoph Reimann      : Effective Core Potentials
   Marius Retegan         : Local ZFS, SOC
   Christoph Riplinger    : Optimizer, TS searches, QM/MM, DLPNO-CCSD(T), (RO)-DLPNO pert. Triples
   Tobias Risthaus        : Range-separated hybrids, TD-DFT gradient, RPA, STAB
   Michael Roemelt        : Original ROCIS implementation
   Masaaki Saitow         : Open-shell DLPNO-CCSD energy and density
   Barbara Sandhoefer     : DKH picture change effects
   Avijit Sen             : IP-ROCIS
   Kantharuban Sivalingam : CASSCF convergence, NEVPT2, FIC-MRCI
   Bernardo de Souza      : ESD, SOC TD-DFT
   Georgi Stoychev        : AutoAux, RI-MP2 NMR, DLPNO-MP2 response
   Willem Van den Heuvel  : Paramagnetic NMR
   Boris Wezisla          : Elementary symmetry handling
   Frank Wennmohs         : Technical directorship


 We gratefully acknowledge several colleagues who have allowed us to
 interface, adapt or use parts of their codes:
   Stefan Grimme, W. Hujo, H. Kruse, P. Pracht,  : VdW corrections, initial TS optimization,
                  C. Bannwarth, S. Ehlert          DFT functionals, gCP, sTDA/sTD-DF
   Ed Valeev, F. Pavosevic, A. Kumar             : LibInt (2-el integral package), F12 methods
   Garnet Chan, S. Sharma, J. Yang, R. Olivares  : DMRG
   Ulf Ekstrom                                   : XCFun DFT Library
   Mihaly Kallay                                 : mrcc  (arbitrary order and MRCC methods)
   Jiri Pittner, Ondrej Demel                    : Mk-CCSD
   Frank Weinhold                                : gennbo (NPA and NBO analysis)
   Christopher J. Cramer and Donald G. Truhlar   : smd solvation model
   Lars Goerigk                                  : TD-DFT with DH, B97 family of functionals
   V. Asgeirsson, H. Jonsson                     : NEB implementation
   FAccTs GmbH                                   : IRC, NEB, NEB-TS, DLPNO-Multilevel, CI-OPT
                                                   MM, QMMM, 2- and 3-layer-ONIOM, Crystal-QMMM,
                                                   LR-CPCM, SF, NACMEs, symmetry and pop. for TD-DFT,
                                                   nearIR, NL-DFT gradient (VV10), updates on ESD,
                                                   ML-optimized integration grids
   S Lehtola, MJT Oliveira, MAL Marques          : LibXC Library
   Liviu Ungur et al                             : ANISO software


 Your calculation uses the libint2 library for the computation of 2-el integrals
 For citations please refer to: http://libint.valeyev.net

 Your ORCA version has been built with support for libXC version: 5.1.0
 For citations please refer to: https://tddft.org/programs/libxc/

 This ORCA versions uses:
   CBLAS   interface :  Fast vector & matrix operations
   LAPACKE interface :  Fast linear algebra routines
   SCALAPACK package :  Parallel linear algebra routines
   Shared memory     :  Shared parallel matrices
   BLAS/LAPACK       :  OpenBLAS 0.3.15  USE64BITINT DYNAMIC_ARCH NO_AFFINITY Barcelona SINGLE_THREADED
        Core in use  :  Barcelona
   Copyright (c) 2011-2014, The OpenBLAS Project




***************************************
The coordinates will be read from file: start.xyz
***************************************


Your calculation utilizes the atom-pairwise dispersion correction
with the Becke-Johnson damping scheme (D3BJ)
Cite in your paper:
S.Grimme, S.Ehrlich, L.Goerigk, J Comput Chem, (2011), 32, 1456–1465 
S.Grimme, J.Antony, S.Ehrlich and H.Krieg, J.Chem.Phys., 132, (2010), 154104 
   

================================================================================

----- Orbital basis set information -----
Your calculation utilizes the basis: pc-3
   H, C-F              : F. Jensen, J. Chem. Phys. 115, 9113 (2001).
                         F. Jensen, J. Chem. Phys. 116, 7372 (2002).
                         F. Jensen, J. Chem. Phys. 117, 9234 (2002).
   Si-Cl               : F. Jensen, T. Helgaker, J. Chem. Phys. 121, 3463 (2004).
   He-B, Ne-Mg, Al, Ar : F. Jensen, J. Phys. Chem. A 111, 11198 (2007).
   K, Ca, Ga-Kr        : F. Jensen, J. Chem. Phys. 136, 094110 (2012).
   Sc-Zn               : F. Jensen, J. Chem. Phys. 138, 014107 (2013).

----- AuxJ basis set information -----
Your calculation utilizes the AutoAux generation procedure.
  G. L. Stoychev, A. A. Auer, F. Neese, J. Chem. Theory Comput. 13, 554 (2017)

----- AuxC basis set information -----
Your calculation utilizes the AutoAux generation procedure.
  G. L. Stoychev, A. A. Auer, F. Neese, J. Chem. Theory Comput. 13, 554 (2017)

----- AuxJK basis set information -----
Your calculation utilizes the AutoAux generation procedure.
  G. L. Stoychev, A. A. Auer, F. Neese, J. Chem. Theory Comput. 13, 554 (2017)

================================================================================
                                        WARNINGS
                       Please study these warnings very carefully!
================================================================================


WARNING: Geometry Optimization
  ===> : Switching off AutoStart
         For restart on a previous wavefunction, please use MOREAD

INFO   : the flag for use of the SHARK integral package has been found!

================================================================================
                                       INPUT FILE
================================================================================
NAME = run.inp
|  1> # Geometry optimization for (AlH3)n cluster
|  2> 
|  3> ! PBE 	# functional used for the MOF calculations later (non-expensive)
|  4> ! RKS	# closed shell for AlH3
|  5> ! D3BJ  # better geometries at low cost
|  6> ! pc-3 	# proven basiset from earlier work
|  7> ! Freq 	# Frequency analysis to check the stabiltity of the structures
|  8> 
|  9> ! NoPop # population analysis not necessary	
| 10> 
| 11> ! RI 		# speed up calculation 
| 12> ! AutoAux # no auxiliary basis set for pc implemented
| 13> ! DEFGRID3 # dense integration grid in space
| 14> ! TightSCF # 
| 15> ! TightOpt # thight convergence criteria for geometry optimizations
| 16> 
| 17> ! SmallPrint
| 18> 
| 19> 
| 20> * xyzFile 0 1 start.xyz # only maingroup elements H and Al so there should be no net spin
| 21> 
| 22>                          ****END OF INPUT****
================================================================================

                       *****************************
                       * Geometry Optimization Run *
                       *****************************

Geometry optimization settings:
Update method            Update   .... BFGS
Choice of coordinates    CoordSys .... Z-matrix Internals
Initial Hessian          InHess   .... Almoef's Model

Convergence Tolerances:
Energy Change            TolE     ....  1.0000e-06 Eh
Max. Gradient            TolMAXG  ....  1.0000e-04 Eh/bohr
RMS Gradient             TolRMSG  ....  3.0000e-05 Eh/bohr
Max. Displacement        TolMAXD  ....  1.0000e-03 bohr
RMS Displacement         TolRMSD  ....  6.0000e-04 bohr
Strict Convergence                ....  False
------------------------------------------------------------------------------
                        ORCA OPTIMIZATION COORDINATE SETUP
------------------------------------------------------------------------------

The optimization will be done in new redundant internal coordinates
Making redundant internal coordinates   ...  (new redundants) done
Evaluating the initial hessian          ...  (Almloef) done
Evaluating the coordinates              ...  done
Calculating the B-matrix                .... done
Calculating the G-matrix                .... done
Diagonalizing the G-matrix              .... done
The first mode is                       ....  195
The number of degrees of freedom        ....   42

    -----------------------------------------------------------------
                    Redundant Internal Coordinates


    -----------------------------------------------------------------
         Definition                    Initial Value    Approx d2E/dq
    -----------------------------------------------------------------
      1. B(H   1,Al  0)                  1.7415         0.230415   
      2. B(H   2,Al  0)                  1.7415         0.230460   
      3. B(H   3,Al  0)                  1.7418         0.230228   
      4. B(Al  4,Al  0)                  2.4343         0.661916   
      5. B(H   5,Al  4)                  1.6992         0.269195   
      6. B(H   5,Al  0)                  1.7412         0.230688   
      7. B(H   6,Al  4)                  1.5978         0.390657   
      8. B(H   7,Al  4)                  1.7004         0.267981   
      9. B(H   7,Al  0)                  1.7407         0.231151   
     10. B(Al  8,H   1)                  1.6999         0.268472   
     11. B(Al  8,Al  0)                  2.4371         0.655029   
     12. B(H   9,Al  8)                  1.5968         0.392077   
     13. B(H  10,Al  4)                  1.5965         0.392614   
     14. B(H  11,Al  8)                  1.5970         0.391903   
     15. B(Al 12,Al  0)                  2.4366         0.656397   
     16. B(Al 12,H   3)                  1.6997         0.268681   
     17. B(Al 12,H   2)                  1.6995         0.268850   
     18. B(H  13,Al 12)                  1.5970         0.391908   
     19. B(H  14,Al 12)                  1.5967         0.392229   
     20. B(H  15,Al  8)                  1.6991         0.269268   
     21. B(H  15,Al  0)                  1.7421         0.229915   
     22. A(H   2,Al  0,H   7)           89.4127         0.319204   
     23. A(H   5,Al  0,H   7)           88.5780         0.319256   
     24. A(Al  4,Al  0,Al 12)          120.4942         0.639808   
     25. A(H   1,Al  0,Al 12)          133.7331         0.444614   
     26. A(H   3,Al  0,H   5)           89.5911         0.319048   
     27. A(H   2,Al  0,H   3)           88.4551         0.318996   
     28. A(H   3,Al  0,Al  4)           91.4742         0.445223   
     29. A(H   5,Al  0,Al 12)          133.8117         0.444710   
     30. A(H   3,Al  0,Al  8)          133.7555         0.444381   
     31. A(H   2,Al  0,Al 12)           44.2279         0.444630   
     32. A(Al  4,Al  0,Al  8)          120.2392         0.639548   
     33. A(Al 12,Al  0,H  15)           90.9961         0.444440   
     34. A(H   1,Al  0,H   5)           92.4498         0.319090   
     35. A(H   5,Al  0,Al  8)           91.7243         0.444542   
     36. A(H   7,Al  0,Al  8)          133.8620         0.444703   
     37. A(H   2,Al  0,Al  8)           91.1381         0.444462   
     38. A(Al  8,Al  0,Al 12)          119.2665         0.638506   
     39. A(H   7,Al  0,Al 12)           91.8446         0.444871   
     40. A(H   1,Al  0,H   7)           89.6531         0.319194   
     41. A(H   1,Al  0,H   2)           89.5764         0.319038   
     42. A(H   1,Al  0,Al  8)           44.2274         0.444446   
     43. A(H   3,Al  0,Al 12)           44.2336         0.444549   
     44. A(Al  8,Al  0,H  15)           44.2010         0.444272   
     45. A(H   1,Al  0,Al  4)           91.3707         0.445289   
     46. A(H   2,Al  0,Al  4)          133.6916         0.445305   
     47. A(Al  4,Al  0,H   7)           44.3093         0.445546   
     48. A(Al  4,Al  0,H  15)          133.6432         0.445114   
     49. A(H   5,Al  0,H  15)           89.4133         0.318977   
     50. A(H   3,Al  0,H   7)           92.3799         0.319152   
     51. A(H   3,Al  0,H  15)           89.6147         0.318873   
     52. A(Al  4,Al  0,H   5)           44.2688         0.445384   
     53. A(H   1,Al  0,H  15)           88.4252         0.318915   
     54. A(H   2,Al  0,H  15)           92.6651         0.318925   
     55. A(Al  0,H   1,Al  8)           90.1636         0.327126   
     56. A(Al  0,H   2,Al 12)           90.1512         0.327213   
     57. A(Al  0,H   3,Al 12)           90.1363         0.327124   
     58. A(H   5,Al  4,H   6)          112.4913         0.357514   
     59. A(Al  0,Al  4,H   6)          123.1087         0.490511   
     60. A(H   6,Al  4,H   7)          112.5281         0.357240   
     61. A(H   5,Al  4,H   7)           91.3151         0.335557   
     62. A(Al  0,Al  4,H   5)           45.6668         0.458056   
     63. A(Al  0,Al  4,H   7)           45.6484         0.457679   
     64. A(H   7,Al  4,H  10)          112.6005         0.357543   
     65. A(H   6,Al  4,H  10)          113.3616         0.381458   
     66. A(H   5,Al  4,H  10)          112.6899         0.357818   
     67. A(Al  0,Al  4,H  10)          123.5297         0.490966   
     68. A(Al  0,H   5,Al  4)           90.0644         0.327335   
     69. A(Al  0,H   7,Al  4)           90.0422         0.327199   
     70. A(H   1,Al  8,H   9)          112.4691         0.357571   
     71. A(Al  0,Al  8,H   9)          122.5563         0.489891   
     72. A(Al  0,Al  8,H   1)           45.6090         0.456960   
     73. A(H   9,Al  8,H  11)          113.4401         0.381578   
     74. A(H   1,Al  8,H  11)          112.7987         0.357544   
     75. A(Al  0,Al  8,H  11)          124.0033         0.489851   
     76. A(H  11,Al  8,H  15)          112.6903         0.357724   
     77. A(H   9,Al  8,H  15)          112.3202         0.357751   
     78. A(H   1,Al  8,H  15)           91.2344         0.335675   
     79. A(Al  0,Al  8,H  15)           45.6288         0.457206   
     80. A(H  13,Al 12,H  14)          113.4157         0.381605   
     81. A(H   3,Al 12,H  14)          112.8933         0.357642   
     82. A(H   2,Al 12,H  14)          112.7772         0.357681   
     83. A(Al  0,Al 12,H  14)          124.3275         0.490116   
     84. A(H   3,Al 12,H  13)          112.4118         0.357592   
     85. A(H   2,Al 12,H  13)          112.2175         0.357631   
     86. A(Al  0,Al 12,H  13)          122.2564         0.490042   
     87. A(H   2,Al 12,H   3)           91.2443         0.335631   
     88. A(Al  0,Al 12,H   3)           45.6301         0.457198   
     89. A(Al  0,Al 12,H   2)           45.6209         0.457251   
     90. A(Al  0,H  15,Al  8)           90.1702         0.327169   
     91. D(Al  8,H   1,Al  0,Al 12)    -89.2614         0.004270   
     92. D(Al  8,H   1,Al  0,H   7)    178.5175         0.004270   
     93. D(Al  8,H   1,Al  0,H   2)    -92.0673         0.004270   
     94. D(Al  8,H   1,Al  0,H  15)      0.6105         0.004270   
     95. D(Al  8,H   1,Al  0,H   5)     89.9557         0.004270   
     96. D(Al  8,H   1,Al  0,Al  4)    134.2379         0.004270   
     97. D(Al 12,H   2,Al  0,Al  4)    -91.4157         0.004271   
     98. D(Al 12,H   2,Al  0,H  15)     88.6896         0.004271   
     99. D(Al 12,H   2,Al  0,H   1)    177.0932         0.004271   
    100. D(Al 12,H   2,Al  0,H   3)     -0.8526         0.004271   
    101. D(Al 12,H   2,Al  0,Al  8)    132.8911         0.004271   
    102. D(Al 12,H   2,Al  0,H   7)    -93.2493         0.004271   
    103. D(Al 12,H   3,Al  0,Al  4)    134.5272         0.004265   
    104. D(Al 12,H   3,Al  0,H   5)    178.7600         0.004265   
    105. D(Al 12,H   3,Al  0,H  15)    -91.8240         0.004265   
    106. D(Al 12,H   3,Al  0,H   7)     90.2003         0.004265   
    107. D(Al 12,H   3,Al  0,Al  8)    -89.2441         0.004265   
    108. D(Al 12,H   3,H   1,Al  8)    -91.2472         0.001500   
    109. D(Al 12,H   3,Al  0,H   2)      0.8525         0.004265   
    110. D(H   6,Al  4,Al  0,H   1)     -2.0250         0.002089   
    111. D(H   6,Al  4,Al  0,H   2)    -92.7488         0.002089   
    112. D(H   6,Al  4,Al  0,H   5)     90.0786         0.002089   
    113. D(H   7,Al  4,Al  0,H   3)    -91.8969         0.002089   
    114. D(H   5,Al  4,Al  0,Al 12)    123.1514         0.002089   
    115. D(H   5,Al  4,Al  0,H  15)     -2.9727         0.002089   
    116. D(H   7,Al  4,Al  0,H   1)     88.0985         0.002089   
    117. D(H  10,Al  4,Al  0,Al 12)     33.1772         0.002089   
    118. D(H   5,Al  4,Al  0,Al  8)    -56.7630         0.002089   
    119. D(H  10,Al  4,Al  0,H   3)     -2.0733         0.002089   
    120. D(H   6,Al  4,Al  0,H   7)    -90.1235         0.002089   
    121. D(H   7,Al  4,Al  0,H  15)    177.2294         0.002089   
    122. D(H   5,Al  4,Al  0,H   2)    177.1726         0.002089   
    123. D(H   5,Al  4,Al  0,H   1)    -92.1037         0.002089   
    124. D(H   7,Al  4,Al  0,Al 12)    -56.6465         0.002089   
    125. D(H   5,Al  4,Al  0,H   3)     87.9010         0.002089   
    126. D(H   7,Al  4,Al  0,Al  8)    123.4391         0.002089   
    127. D(H  10,Al  4,Al  0,H  15)    -92.9470         0.002089   
    128. D(H  10,Al  4,Al  0,Al  8)   -146.7372         0.002089   
    129. D(H   6,Al  4,Al  0,H   3)    177.9796         0.002089   
    130. D(H  10,Al  4,Al  0,H   5)    -89.9743         0.002089   
    131. D(H  10,Al  4,Al  0,H   1)    177.9221         0.002089   
    132. D(H  10,Al  4,Al  0,H   2)     87.1983         0.002089   
    133. D(H   5,Al  4,Al  0,H   7)    179.7979         0.002089   
    134. D(H   6,Al  4,Al  0,Al  8)     33.3157         0.002089   
    135. D(H   7,Al  4,Al  0,H   2)     -2.6253         0.002089   
    136. D(H   6,Al  4,Al  0,Al 12)   -146.7699         0.002089   
    137. D(H   6,Al  4,Al  0,H  15)     87.1059         0.002089   
    138. D(H  10,Al  4,Al  0,H   7)     89.8236         0.002089   
    139. D(H   7,Al  4,Al  0,H   5)   -179.7979         0.002089   
    140. D(Al  4,H   5,Al  0,H  15)    177.8491         0.004277   
    141. D(Al  0,H   5,Al  4,H   6)   -114.9613         0.004467   
    142. D(Al  0,H   5,Al  4,H   7)      0.1446         0.004467   
    143. D(Al  4,H   5,H   2,Al 12)    -93.4193         0.001500   
    144. D(Al  4,H   5,Al  0,Al 12)    -91.3333         0.004277   
    145. D(Al  4,H   5,Al  0,Al  8)    133.7033         0.004277   
    146. D(Al  4,H   5,Al  0,H   7)     -0.1412         0.004277   
    147. D(Al  0,H   5,Al  4,H  10)    115.3743         0.004467   
    148. D(Al  4,H   5,Al  0,H   3)    -92.5320         0.004277   
    149. D(Al  4,H   5,Al  0,H   1)     89.4506         0.004277   
    150. D(Al  4,H   7,Al  0,H   1)    -92.3181         0.004288   
    151. D(Al  4,H   7,Al  0,H   2)    178.1020         0.004288   
    152. D(Al  4,H   7,Al  0,H   3)     89.6727         0.004288   
    153. D(Al  4,H   7,Al  0,H   5)      0.1411         0.004288   
    154. D(Al  0,H   7,Al  4,H  10)   -115.4534         0.004439   
    155. D(Al  0,H   7,Al  4,H   5)     -0.1446         0.004439   
    156. D(Al  4,H   7,Al  0,Al 12)    133.9348         0.004288   
    157. D(Al  4,H   7,Al  0,Al  8)    -90.8839         0.004288   
    158. D(Al  0,H   7,Al  4,H   6)    114.9287         0.004439   
    159. D(H  15,Al  8,H   1,Al  0)     -0.6259         0.004451   
    160. D(H  11,Al  8,H   1,Al  0)   -115.9410         0.004451   
    161. D(H   9,Al  8,H   1,Al  0)    114.2080         0.004451   
    162. D(H  15,Al  8,Al  0,Al 12)    -56.7924         0.002078   
    163. D(H  15,Al  8,Al  0,H   7)    177.0683         0.002078   
    164. D(H  15,Al  8,Al  0,H   5)     87.3836         0.002078   
    165. D(H  15,Al  8,Al  0,H   3)     -3.7017         0.002078   
    166. D(H  15,Al  8,Al  0,H   2)    -92.6525         0.002078   
    167. D(H  15,Al  8,Al  0,H   1)    179.1246         0.002078   
    168. D(H  11,Al  8,Al  0,Al 12)   -146.2771         0.002078   
    169. D(H  11,Al  8,Al  0,H   7)     87.5836         0.002078   
    170. D(H  11,Al  8,Al  0,H   5)     -2.1011         0.002078   
    171. D(H  11,Al  8,Al  0,H   3)    -93.1864         0.002078   
    172. D(H  11,Al  8,Al  0,H   2)    177.8628         0.002078   
    173. D(H  11,Al  8,Al  0,H   1)     89.6399         0.002078   
    174. D(H   9,Al  8,Al  0,H  15)     90.3297         0.002078   
    175. D(H   9,Al  8,Al  0,Al 12)     33.5373         0.002078   
    176. D(H  11,Al  8,Al  0,Al  4)     33.6383         0.002078   
    177. D(H   9,Al  8,Al  0,H   7)    -92.6020         0.002078   
    178. D(H   9,Al  8,Al  0,H   5)    177.7133         0.002078   
    179. D(H   9,Al  8,Al  0,Al  4)   -146.5472         0.002078   
    180. D(H  11,Al  8,Al  0,H  15)    -89.4847         0.002078   
    181. D(H   9,Al  8,Al  0,H   3)     86.6281         0.002078   
    182. D(H   9,Al  8,Al  0,H   2)     -2.3228         0.002078   
    183. D(H   9,Al  8,Al  0,H   1)    -90.5456         0.002078   
    184. D(H  15,Al  8,Al  0,Al  4)    123.1230         0.002078   
    185. D(H   1,Al  8,Al  0,H  15)   -179.1246         0.002078   
    186. D(H   1,Al  8,Al  0,Al 12)    124.0830         0.002078   
    187. D(H   1,Al  8,Al  0,H   5)    -91.7411         0.002078   
    188. D(H   1,Al  8,Al  0,Al  4)    -56.0016         0.002078   
    189. D(H   1,Al  8,Al  0,H   3)    177.1737         0.002078   
    190. D(H   1,Al  8,Al  0,H   2)     88.2229         0.002078   
    191. D(H   1,Al  8,Al  0,H   7)     -2.0564         0.002078   
    192. D(H  14,Al 12,Al  0,H   3)     89.4829         0.002080   
    193. D(H  14,Al 12,Al  0,H   2)    -89.2952         0.002080   
    194. D(H  14,Al 12,Al  0,H   1)    -93.3195         0.002080   
    195. D(H  13,Al 12,Al  0,Al  8)     33.3524         0.002080   
    196. D(H  13,Al 12,Al  0,H   7)    177.7202         0.002080   
    197. D(H  13,Al 12,Al  0,H   5)    -92.4810         0.002080   
    198. D(H  13,Al 12,Al  0,H   3)    -90.7625         0.002080   
    199. D(H  13,Al 12,Al  0,H   2)     90.4594         0.002080   
    200. D(H  13,Al 12,Al  0,H   1)     86.4351         0.002080   
    201. D(H   3,Al 12,Al  0,H  15)     88.4241         0.002080   
    202. D(H   3,Al 12,Al  0,Al  8)    124.1149         0.002080   
    203. D(H   3,Al 12,Al  0,H   7)    -91.5173         0.002080   
    204. D(H   3,Al 12,Al  0,H   5)     -1.7185         0.002080   
    205. D(H   3,Al 12,Al  0,Al  4)    -55.8003         0.002080   
    206. D(H   3,Al 12,Al  0,H   2)   -178.7781         0.002080   
    207. D(H   3,Al 12,Al  0,H   1)    177.1976         0.002080   
    208. D(H  13,Al 12,Al  0,Al  4)   -146.5628         0.002080   
    209. D(H   2,Al 12,Al  0,H  15)    -92.7977         0.002080   
    210. D(H   2,Al 12,Al  0,Al  8)    -57.1069         0.002080   
    211. D(H   2,Al 12,Al  0,H   7)     87.2609         0.002080   
    212. D(H  13,Al 12,Al  0,H  15)     -2.3384         0.002080   
    213. D(H   2,Al 12,Al  0,H   5)    177.0597         0.002080   
    214. D(H   2,Al 12,Al  0,Al  4)    122.9778         0.002080   
    215. D(H   2,Al 12,Al  0,H   3)    178.7781         0.002080   
    216. D(H  14,Al 12,Al  0,Al  4)     33.6826         0.002080   
    217. D(H   2,Al 12,Al  0,H   1)     -4.0243         0.002080   
    218. D(H  14,Al 12,H   3,Al  0)   -116.3108         0.004455   
    219. D(H  13,Al 12,H   3,Al  0)    113.8394         0.004455   
    220. D(H   2,Al 12,H   3,Al  0)     -0.8735         0.004455   
    221. D(H  14,Al 12,H   2,Al  0)    116.4135         0.004459   
    222. D(H  13,Al 12,H   2,Al  0)   -114.0119         0.004459   
    223. D(H   3,Al 12,H   2,Al  0)      0.8736         0.004459   
    224. D(H  14,Al 12,Al  0,H  15)    177.9071         0.002080   
    225. D(H  14,Al 12,Al  0,Al  8)   -146.4021         0.002080   
    226. D(H  14,Al 12,Al  0,H   7)     -2.0343         0.002080   
    227. D(H  14,Al 12,Al  0,H   5)     87.7645         0.002080   
    228. D(Al  0,H  15,Al  8,H  11)    116.0367         0.004469   
    229. D(Al  0,H  15,Al  8,H   9)   -114.3404         0.004469   
    230. D(Al  0,H  15,Al  8,H   1)      0.6257         0.004469   
    231. D(Al  8,H  15,H   7,Al  4)    -92.9650         0.001500   
    232. D(Al  8,H  15,Al  0,Al 12)    133.1134         0.004257   
    233. D(Al  8,H  15,Al  0,H   5)    -93.0778         0.004257   
    234. D(Al  8,H  15,Al  0,Al  4)    -91.0032         0.004257   
    235. D(Al  8,H  15,Al  0,H   3)    177.3271         0.004257   
    236. D(Al  8,H  15,Al  0,H   2)     88.8916         0.004257   
    237. D(Al  8,H  15,Al  0,H   1)     -0.6108         0.004257   
    -----------------------------------------------------------------

Number of atoms                         .... 16
Number of degrees of freedom            .... 237

Time needed for optimization step       :     1.84 sec

         *************************************************************
         *                GEOMETRY OPTIMIZATION CYCLE   1            *
         *************************************************************
---------------------------------
CARTESIAN COORDINATES (ANGSTROEM)
---------------------------------
  Al     0.000000    0.000000    2.434290
  H     -1.720810   -0.264660    2.475950
  H     -0.175680    1.246900    3.637270
  H      1.720930    0.264820    2.479100
  Al     0.000000    0.000000    0.000000
  H      0.228730   -1.193700    1.187450
  H     -1.314830   -0.250070   -0.872780
  H     -0.224610    1.194990    1.188700
  Al    -1.512430   -1.464840    3.661660
  H     -2.155640   -1.054930    5.064570
  H      1.307150    0.249860   -0.881840
  H     -1.955170   -2.914600    3.159200
  Al     1.510320    1.458430    3.670730
  H      2.144160    1.036020    5.074330
  H      1.961010    2.910240    3.182170
  H      0.172720   -1.248810    3.636650

----------------------------
CARTESIAN COORDINATES (A.U.)
----------------------------
  NO LB      ZA    FRAG     MASS         X           Y           Z
   0 Al   13.0000    0    26.982    0.000000    0.000000    4.600141
   1 H     1.0000    0     1.008   -3.251860   -0.500135    4.678867
   2 H     1.0000    0     1.008   -0.331987    2.356300    6.873444
   3 H     1.0000    0     1.008    3.252086    0.500437    4.684820
   4 Al   13.0000    0    26.982    0.000000    0.000000    0.000000
   5 H     1.0000    0     1.008    0.432237   -2.255766    2.243955
   6 H     1.0000    0     1.008   -2.484669   -0.472564   -1.649315
   7 H     1.0000    0     1.008   -0.424451    2.258204    2.246317
   8 Al   13.0000    0    26.982   -2.858078   -2.768146    6.919535
   9 H     1.0000    0     1.008   -4.073569   -1.993529    9.570650
  10 H     1.0000    0     1.008    2.470156    0.472167   -1.666436
  11 H     1.0000    0     1.008   -3.694736   -5.507796    5.970023
  12 Al   13.0000    0    26.982    2.854091    2.756033    6.936674
  13 H     1.0000    0     1.008    4.051875    1.957794    9.589094
  14 H     1.0000    0     1.008    3.705772    5.499557    6.013430
  15 H     1.0000    0     1.008    0.326393   -2.359909    6.872273

--------------------------------
INTERNAL COORDINATES (ANGSTROEM)
--------------------------------
 Al     0   0   0     0.000000000000     0.00000000     0.00000000
 H      1   0   0     1.741541709894     0.00000000     0.00000000
 H      1   2   0     1.741489004502    89.57638118     0.00000000
 H      1   2   3     1.741762794814   177.15507381    46.21251166
 Al     1   2   3     2.434290000000    91.37072220   226.30523282
 H      5   1   2     1.699198224281    45.66682282   267.89634917
 H      5   1   2     1.597829109198   123.10866373   357.97498215
 H      5   1   2     1.700428899484    45.64844983    88.09846090
 Al     2   1   3     1.699930134123    90.16361266   267.93267776
 H      9   2   1     1.596841188190   112.46905351   114.20803162
 H      5   1   2     1.596468893433   123.52969173   177.92208496
 H      9   2   1     1.596962371755   112.79873871   244.05903455
 Al     3   1   2     1.699547149243    90.15122749   177.09324927
 H     13   3   1     1.596958457099   112.21747291   245.98809591
 H     13   3   1     1.596735615498   112.77723192   116.41350160
 H      9   2   1     1.699124769845    91.23436700   359.37413752

---------------------------
INTERNAL COORDINATES (A.U.)
---------------------------
 Al     0   0   0     0.000000000000     0.00000000     0.00000000
 H      1   0   0     3.291036882500     0.00000000     0.00000000
 H      1   2   0     3.290937283743    89.57638118     0.00000000
 H      1   2   3     3.291454672453   177.15507381    46.21251166
 Al     1   2   3     4.600141430543    91.37072220   226.30523282
 H      5   1   2     3.211019291137    45.66682282   267.89634917
 H      5   1   2     3.019459425191   123.10866373   357.97498215
 H      5   1   2     3.213344930230    45.64844983    88.09846090
 Al     2   1   3     3.212402400293    90.16361266   267.93267776
 H      9   2   1     3.017592525044   112.46905351   114.20803162
 H      5   1   2     3.016888989913   123.52969173   177.92208496
 H      9   2   1     3.017821528793   112.79873871   244.05903455
 Al     3   1   2     3.211678663756    90.15122749   177.09324927
 H     13   3   1     3.017814131167   112.21747291   245.98809591
 H     13   3   1     3.017393021570   112.77723192   116.41350160
 H      9   2   1     3.210880482369    91.23436700   359.37413752

---------------------
BASIS SET INFORMATION
---------------------
There are 2 groups of distinct atoms

 Group   1 Type Al  : 35s21p4d2f1g contracted to 6s5p4d2f1g pattern {121010111/99111/1111/11/1}
 Group   2 Type H   : 9s4p2d1f contracted to 5s4p2d1f pattern {51111/1111/11/1}

Atom   0Al   basis set group =>   1
Atom   1H    basis set group =>   2
Atom   2H    basis set group =>   2
Atom   3H    basis set group =>   2
Atom   4Al   basis set group =>   1
Atom   5H    basis set group =>   2
Atom   6H    basis set group =>   2
Atom   7H    basis set group =>   2
Atom   8Al   basis set group =>   1
Atom   9H    basis set group =>   2
Atom  10H    basis set group =>   2
Atom  11H    basis set group =>   2
Atom  12Al   basis set group =>   1
Atom  13H    basis set group =>   2
Atom  14H    basis set group =>   2
Atom  15H    basis set group =>   2
---------------------------------
AUXILIARY/J BASIS SET INFORMATION
---------------------------------
There are 2 groups of distinct atoms

 Group   1 Type Al  : 19s16p15d8f8g5h contracted to 19s16p15d8f8g5h pattern {1111111111111111111/1111111111111111/111111111111111/11111111/11111111/11111}
 Group   2 Type H   : 15s7p6d4f4g contracted to 15s7p6d4f4g pattern {111111111111111/1111111/111111/1111/1111}

Atom   0Al   basis set group =>   1
Atom   1H    basis set group =>   2
Atom   2H    basis set group =>   2
Atom   3H    basis set group =>   2
Atom   4Al   basis set group =>   1
Atom   5H    basis set group =>   2
Atom   6H    basis set group =>   2
Atom   7H    basis set group =>   2
Atom   8Al   basis set group =>   1
Atom   9H    basis set group =>   2
Atom  10H    basis set group =>   2
Atom  11H    basis set group =>   2
Atom  12Al   basis set group =>   1
Atom  13H    basis set group =>   2
Atom  14H    basis set group =>   2
Atom  15H    basis set group =>   2
---------------------------------
AUXILIARY/C BASIS SET INFORMATION
---------------------------------
There are 2 groups of distinct atoms

 Group   1 Type Al  : 19s16p15d8f8g5h contracted to 19s16p15d8f8g5h pattern {1111111111111111111/1111111111111111/111111111111111/11111111/11111111/11111}
 Group   2 Type H   : 15s7p6d4f4g contracted to 15s7p6d4f4g pattern {111111111111111/1111111/111111/1111/1111}

Atom   0Al   basis set group =>   1
Atom   1H    basis set group =>   2
Atom   2H    basis set group =>   2
Atom   3H    basis set group =>   2
Atom   4Al   basis set group =>   1
Atom   5H    basis set group =>   2
Atom   6H    basis set group =>   2
Atom   7H    basis set group =>   2
Atom   8Al   basis set group =>   1
Atom   9H    basis set group =>   2
Atom  10H    basis set group =>   2
Atom  11H    basis set group =>   2
Atom  12Al   basis set group =>   1
Atom  13H    basis set group =>   2
Atom  14H    basis set group =>   2
Atom  15H    basis set group =>   2
----------------------------------
AUXILIARY/JK BASIS SET INFORMATION
----------------------------------
There are 2 groups of distinct atoms

 Group   1 Type Al  : 19s16p15d8f8g5h contracted to 19s16p15d8f8g5h pattern {1111111111111111111/1111111111111111/111111111111111/11111111/11111111/11111}
 Group   2 Type H   : 15s7p6d4f4g contracted to 15s7p6d4f4g pattern {111111111111111/1111111/111111/1111/1111}

Atom   0Al   basis set group =>   1
Atom   1H    basis set group =>   2
Atom   2H    basis set group =>   2
Atom   3H    basis set group =>   2
Atom   4Al   basis set group =>   1
Atom   5H    basis set group =>   2
Atom   6H    basis set group =>   2
Atom   7H    basis set group =>   2
Atom   8Al   basis set group =>   1
Atom   9H    basis set group =>   2
Atom  10H    basis set group =>   2
Atom  11H    basis set group =>   2
Atom  12Al   basis set group =>   1
Atom  13H    basis set group =>   2
Atom  14H    basis set group =>   2
Atom  15H    basis set group =>   2
------------------------------------------------------------------------------
                           ORCA GTO INTEGRAL CALCULATION
                           -- RI-GTO INTEGRALS CHOSEN --
------------------------------------------------------------------------------
------------------------------------------------------------------------------
                   ___                                                        
                  /   \      - P O W E R E D   B Y -                         
                 /     \                                                     
                 |  |  |   _    _      __       _____    __    __             
                 |  |  |  | |  | |    /  \     |  _  \  |  |  /  |          
                  \  \/   | |  | |   /    \    | | | |  |  | /  /          
                 / \  \   | |__| |  /  /\  \   | |_| |  |  |/  /          
                |  |  |   |  __  | /  /__\  \  |    /   |      \           
                |  |  |   | |  | | |   __   |  |    \   |  |\   \          
                \     /   | |  | | |  |  |  |  | |\  \  |  | \   \       
                 \___/    |_|  |_| |__|  |__|  |_| \__\ |__|  \__/        
                                                                              
                      - O R C A' S   B I G   F R I E N D -                    
                                      &                                       
                       - I N T E G R A L  F E E D E R -                       
                                                                              
 v1 FN, 2020, v2 2021                                                         
------------------------------------------------------------------------------


Reading SHARK input file run.SHARKINP.tmp ... ok
----------------------
SHARK INTEGRAL PACKAGE
----------------------

Number of atoms                             ...     16
Number of basis functions                   ...    664
Number of shells                            ...    216
Maximum angular momentum                    ...      4
Integral batch strategy                     ... SHARK/LIBINT Hybrid
RI-J (if used) integral strategy            ... SPLIT-RIJ (Revised 2003 algorithm where possible)
Printlevel                                  ...      1
Contraction scheme used                     ... SEGMENTED contraction
Coulomb Range Separation                    ... NOT USED
Exchange Range Separation                   ... NOT USED
Finite Nucleus Model                        ... NOT USED
Auxiliary Coulomb fitting basis             ... AVAILABLE
   # of basis functions in Aux-J            ...   2860
   # of shells in Aux-J                     ...    716
   Maximum angular momentum in Aux-J        ...      5
Auxiliary J/K fitting basis                 ... AVAILABLE
   # of basis functions in Aux-JK           ...   2860
   # of shells in Aux-JK                    ...    716
   Maximum angular momentum in Aux-JK       ...      5
Auxiliary Correlation fitting basis         ... AVAILABLE
   # of basis functions in Aux-C            ...   2860
   # of shells in Aux-C                     ...    716
   Maximum angular momentum in Aux-C        ...      5
Auxiliary 'external' fitting basis          ... NOT available
Integral threshold                          ...     2.500000e-11
Primitive cut-off                           ...     2.500000e-12
Primitive pair pre-selection threshold      ...     2.500000e-12

Calculating pre-screening integrals         ... done (  2.0 sec) Dimension = 216
Organizing shell pair data                  ... done (  1.2 sec)
Shell pair information
Total number of shell pairs                 ...     23436
Shell pairs after pre-screening             ...     19398
Total number of primitive shell pairs       ...     99822
Primitive shell pairs kept                  ...     55325
          la=0 lb=0:   3160 shell pairs
          la=1 lb=0:   4878 shell pairs
          la=1 lb=1:   1919 shell pairs
          la=2 lb=0:   2805 shell pairs
          la=2 lb=1:   2103 shell pairs
          la=2 lb=2:    613 shell pairs
          la=3 lb=0:   1392 shell pairs
          la=3 lb=1:    998 shell pairs
          la=3 lb=2:    572 shell pairs
          la=3 lb=3:    157 shell pairs
          la=4 lb=0:    312 shell pairs
          la=4 lb=1:    254 shell pairs
          la=4 lb=2:    153 shell pairs
          la=4 lb=3:     72 shell pairs
          la=4 lb=4:     10 shell pairs

Calculating one electron integrals          ... done (  0.4 sec)
Calculating RI/J V-Matrix + Cholesky decomp.... done (  2.0 sec)
Calculating RI/JK V-Matrix + Cholesky decomp... done (  1.6 sec)
Calculating RI/C V-Matrix + Cholesky decomp.... done (  1.6 sec)
Calculating Nuclear repulsion               ... done (  0.0 sec) ENN=    309.567334684254 Eh

SHARK setup successfully completed in  13.9 seconds

Maximum memory used throughout the entire GTOINT-calculation: 521.1 MB
-------------------------------------------------------------------------------
                                 ORCA SCF
-------------------------------------------------------------------------------

------------
SCF SETTINGS
------------
Hamiltonian:
 Density Functional     Method          .... DFT(GTOs)
 Exchange Functional    Exchange        .... PBE
   PBE kappa parameter   XKappa         ....  0.804000
   PBE mue parameter    XMuePBE         ....  0.219520
 Correlation Functional Correlation     .... PBE
   PBE beta parameter  CBetaPBE         ....  0.066725
 LDA part of GGA corr.  LDAOpt          .... PW91-LDA
 Gradients option       PostSCFGGA      .... off
   Density functional embedding theory  .... OFF
   NL short-range parameter             ....  6.400000
 RI-approximation to the Coulomb term is turned on
   Number of AuxJ basis functions       .... 2860


General Settings:
 Integral files         IntName         .... run
 Hartree-Fock type      HFTyp           .... RHF
 Total Charge           Charge          ....    0
 Multiplicity           Mult            ....    1
 Number of Electrons    NEL             ....   64
 Basis Dimension        Dim             ....  664
 Nuclear Repulsion      ENuc            ....    309.5673346843 Eh

Convergence Acceleration:
 DIIS                   CNVDIIS         .... on
   Start iteration      DIISMaxIt       ....    12
   Startup error        DIISStart       ....  0.200000
   # of expansion vecs  DIISMaxEq       ....     5
   Bias factor          DIISBfac        ....   1.050
   Max. coefficient     DIISMaxC        ....  10.000
 Trust-Rad. Augm. Hess. CNVTRAH         .... auto
   Auto Start mean grad. ratio tolernc. ....  1.125000
   Auto Start start iteration           ....    20
   Auto Start num. interpolation iter.  ....    10
   Max. Number of Micro iterations      ....    16
   Max. Number of Macro iterations      .... Maxiter - #DIIS iter
   Number of Davidson start vectors     ....     2
   Converg. threshold I  (grad. norm)   ....   1.000e-05
   Converg. threshold II (energy diff.) ....   1.000e-08
   Grad. Scal. Fac. for Micro threshold ....   0.100
   Minimum threshold for Micro iter.    ....   0.010
   NR start threshold (gradient norm)   ....   0.001
   Initial trust radius                 ....   0.400
   Minimum AH scaling param. (alpha)    ....   1.000
   Maximum AH scaling param. (alpha)    .... 1000.000
   Orbital update algorithm             .... Taylor
   White noise on init. David. guess    .... on
   Maximum white noise                  ....   0.010
   Quad. conv. algorithm                .... NR
 SOSCF                  CNVSOSCF        .... on
   Start iteration      SOSCFMaxIt      ....   150
   Startup grad/error   SOSCFStart      ....  0.003300
 Level Shifting         CNVShift        .... on
   Level shift para.    LevelShift      ....    0.2500
   Turn off err/grad.   ShiftErr        ....    0.0010
 Zerner damping         CNVZerner       .... off
 Static damping         CNVDamp         .... on
   Fraction old density DampFac         ....    0.7000
   Max. Damping (<1)    DampMax         ....    0.9800
   Min. Damping (>=0)   DampMin         ....    0.0000
   Turn off err/grad.   DampErr         ....    0.1000
 Fernandez-Rico         CNVRico         .... off

SCF Procedure:
 Maximum # iterations   MaxIter         ....   125
 SCF integral mode      SCFMode         .... Direct
   Integral package                     .... SHARK and LIBINT hybrid scheme
 Reset frequency        DirectResetFreq ....    20
 Integral Threshold     Thresh          ....  2.500e-11 Eh
 Primitive CutOff       TCut            ....  2.500e-12 Eh

Convergence Tolerance:
 Convergence Check Mode ConvCheckMode   .... Total+1el-Energy
 Convergence forced     ConvForced      .... 0
 Energy Change          TolE            ....  1.000e-08 Eh
 1-El. energy change                    ....  1.000e-05 Eh
 Orbital Gradient       TolG            ....  1.000e-05
 Orbital Rotation angle TolX            ....  1.000e-05
 DIIS Error             TolErr          ....  5.000e-07


Diagonalization of the overlap matrix:
Smallest eigenvalue                        ... 5.649e-05
Time for diagonalization                   ...    0.437 sec
Threshold for overlap eigenvalues          ... 1.000e-08
Number of eigenvalues below threshold      ... 0
Time for construction of square roots      ...    0.172 sec
Total time needed                          ...    0.612 sec

Time for model grid setup =    1.232 sec

------------------------------
INITIAL GUESS: MODEL POTENTIAL
------------------------------
Loading Hartree-Fock densities                     ... done
Calculating cut-offs                               ... done
Initializing the effective Hamiltonian             ... done
Setting up the integral package (SHARK)            ... done
Starting the Coulomb interaction                   ... done (   2.8 sec)
Reading the grid                                   ... done
Mapping shells                                     ... done
Starting the XC term evaluation                    ... done (   2.1 sec)
  promolecular density results
     # of electrons  =     63.997540507
     EX              =    -75.718294705
     EC              =     -2.232387702
     EX+EC           =    -77.950682408
Transforming the Hamiltonian                       ... done (   0.1 sec)
Diagonalizing the Hamiltonian                      ... done (   0.3 sec)
Back transforming the eigenvectors                 ... done (   0.1 sec)
Now organizing SCF variables                       ... done
                      ------------------
                      INITIAL GUESS DONE (   6.7 sec)
                      ------------------
-------------------
DFT GRID GENERATION
-------------------

General Integration Accuracy     IntAcc      ... 4.959
Radial Grid Type                 RadialGrid  ... OptM3 with GC (2021)
Angular Grid (max. ang.)         AngularGrid ... 6 (Lebedev-590)
Angular grid pruning method      GridPruning ... 4 (adaptive)
Weight generation scheme         WeightScheme... Becke
Basis function cutoff            BFCut       ... 1.0000e-11
Integration weight cutoff        WCut        ... 1.0000e-14
Angular grids for H and He will be reduced by one unit
Partially contracted basis set               ... off
Rotationally invariant grid construction     ... off

Total number of grid points                  ...   178174
Total number of batches                      ...     2794
Average number of points per batch           ...       63
Average number of grid points per atom       ...    11136
Time for grid setup =    9.435 sec

--------------
SCF ITERATIONS
--------------
ITER       Energy         Delta-E        Max-DP      RMS-DP      [F,P]     Damp
               ***  Starting incremental Fock matrix formation  ***
  0   -976.3159580690   0.000000000000 0.01128253  0.00011322  0.0826215 0.7000
  1   -976.3323513979  -0.016393328920 0.01076940  0.00010877  0.0548887 0.7000
                               ***Turning on DIIS***
  2   -976.3430283279  -0.010676929933 0.02391385  0.00026637  0.0320923 0.0000
  3   -976.3604167868  -0.017388458902 0.00663486  0.00006512  0.0162173 0.0000
  4   -976.3619844566  -0.001567669772 0.00198907  0.00002402  0.0034329 0.0000
                      *** Initiating the SOSCF procedure ***
                           *** Shutting down DIIS ***
                      *** Re-Reading the Fockian *** 
                      *** Removing any level shift *** 
ITER      Energy       Delta-E        Grad      Rot      Max-DP    RMS-DP
  5   -976.36210660  -0.0001221431  0.000355  0.000355  0.000890  0.000010
               *** Restarting incremental Fock matrix formation ***
  6   -976.36212251  -0.0000159127  0.000193  0.000916  0.000646  0.000008
  7   -976.36212449  -0.0000019806  0.000082  0.000225  0.000135  0.000002
  8   -976.36212492  -0.0000004305  0.000024  0.000060  0.000075  0.000001
  9   -976.36212485   0.0000000780  0.000029  0.000037  0.000042  0.000000
 10   -976.36212502  -0.0000001705  0.000006  0.000009  0.000017  0.000000
                  ***Gradient check signals convergence***
              ***Rediagonalizing the Fockian in SOSCF/NRSCF***

               *****************************************************
               *                     SUCCESS                       *
               *           SCF CONVERGED AFTER  11 CYCLES          *
               *****************************************************


----------------
TOTAL SCF ENERGY
----------------

Total Energy       :         -976.36212500 Eh          -26568.16412 eV

Components:
Nuclear Repulsion  :          309.56733468 Eh            8423.75543 eV
Electronic Energy  :        -1285.92945968 Eh          -34991.91955 eV
One Electron Energy:        -1972.05242420 Eh          -53662.27460 eV
Two Electron Energy:          686.12296452 Eh           18670.35505 eV

Virial components:
Potential Energy   :        -1951.99034146 Eh          -53116.35757 eV
Kinetic Energy     :          975.62821646 Eh           26548.19345 eV
Virial Ratio       :            2.00075224


DFT components:
N(Alpha)           :       31.999997425270 electrons
N(Beta)            :       31.999997425270 electrons
N(Total)           :       63.999994850539 electrons
E(X)               :      -76.329207351520 Eh       
E(C)               :       -2.203693268787 Eh       
E(XC)              :      -78.532900620308 Eh       
DFET-embed. en.    :        0.000000000000 Eh       

---------------
SCF CONVERGENCE
---------------

  Last Energy change         ...    1.7399e-08  Tolerance :   1.0000e-08
  Last MAX-Density change    ...    1.0219e-04  Tolerance :   1.0000e-07
  Last RMS-Density change    ...    2.6751e-07  Tolerance :   5.0000e-09
  Last Orbital Gradient      ...    1.9955e-06  Tolerance :   1.0000e-05
  Last Orbital Rotation      ...    3.1754e-06  Tolerance :   1.0000e-05

             **** THE GBW FILE WAS UPDATED (run.gbw) ****
             **** DENSITY run.scfp WAS UPDATED ****
             **** ENERGY FILE WAS UPDATED (run.en.tmp) ****
             **** THE GBW FILE WAS UPDATED (run.gbw) ****
             **** DENSITY run.scfp WAS UPDATED ****
----------------
ORBITAL ENERGIES
----------------

  NO   OCC          E(Eh)            E(eV) 
   0   2.0000     -55.405259     -1507.6537 
   1   2.0000     -55.358514     -1506.3817 
   2   2.0000     -55.358402     -1506.3787 
   3   2.0000     -55.358383     -1506.3782 
   4   2.0000      -3.978274      -108.2543 
   5   2.0000      -3.934372      -107.0597 
   6   2.0000      -3.934247      -107.0563 
   7   2.0000      -3.934223      -107.0557 
   8   2.0000      -2.579491       -70.1915 
   9   2.0000      -2.579458       -70.1906 
  10   2.0000      -2.579345       -70.1875 
  11   2.0000      -2.538220       -69.0685 
  12   2.0000      -2.538101       -69.0652 
  13   2.0000      -2.538077       -69.0646 
  14   2.0000      -2.535363       -68.9907 
  15   2.0000      -2.535238       -68.9873 
  16   2.0000      -2.535212       -68.9866 
  17   2.0000      -2.532356       -68.9089 
  18   2.0000      -2.532229       -68.9055 
  19   2.0000      -2.532204       -68.9048 
  20   2.0000      -0.542082       -14.7508 
  21   2.0000      -0.447998       -12.1906 
  22   2.0000      -0.447628       -12.1806 
  23   2.0000      -0.378000       -10.2859 
  24   2.0000      -0.335459        -9.1283 
  25   2.0000      -0.331647        -9.0246 
  26   2.0000      -0.331261        -9.0141 
  27   2.0000      -0.304254        -8.2792 
  28   2.0000      -0.304231        -8.2786 
  29   2.0000      -0.268637        -7.3100 
  30   2.0000      -0.268618        -7.3095 
  31   2.0000      -0.264467        -7.1965 
  32   0.0000      -0.065457        -1.7812 
  33   0.0000      -0.060312        -1.6412 
  34   0.0000      -0.058070        -1.5802 
  35   0.0000      -0.057780        -1.5723 
  36   0.0000      -0.041857        -1.1390 
  37   0.0000      -0.041503        -1.1293 
  38   0.0000      -0.041385        -1.1261 
  39   0.0000      -0.007431        -0.2022 
  40   0.0000      -0.007344        -0.1998 
  41   0.0000       0.004865         0.1324 
  42   0.0000       0.012289         0.3344 
  43   0.0000       0.018920         0.5149 
  44   0.0000       0.019175         0.5218 
  45   0.0000       0.023241         0.6324 
  46   0.0000       0.024641         0.6705 
  47   0.0000       0.025603         0.6967 
  48   0.0000       0.039574         1.0769 
  49   0.0000       0.039931         1.0866 
  50   0.0000       0.042894         1.1672 
  51   0.0000       0.061028         1.6607 
  52   0.0000       0.061109         1.6628 
  53   0.0000       0.072159         1.9636 
  54   0.0000       0.078202         2.1280 
  55   0.0000       0.078594         2.1387 
  56   0.0000       0.095113         2.5882 
  57   0.0000       0.103573         2.8184 
  58   0.0000       0.114857         3.1254 
  59   0.0000       0.117895         3.2081 
  60   0.0000       0.118640         3.2284 
  61   0.0000       0.131927         3.5899 
  62   0.0000       0.132216         3.5978 
  63   0.0000       0.137309         3.7364 
  64   0.0000       0.143213         3.8970 
  65   0.0000       0.143751         3.9117 
  66   0.0000       0.144691         3.9372 
  67   0.0000       0.150048         4.0830 
  68   0.0000       0.151125         4.1123 
  69   0.0000       0.151798         4.1306 
  70   0.0000       0.163886         4.4596 
  71   0.0000       0.165137         4.4936 
  72   0.0000       0.188336         5.1249 
  73   0.0000       0.189196         5.1483 
  74   0.0000       0.189375         5.1531 
  75   0.0000       0.200423         5.4538 
  76   0.0000       0.200901         5.4668 
  77   0.0000       0.207587         5.6487 
  78   0.0000       0.226434         6.1616 
  79   0.0000       0.231123         6.2892 
  80   0.0000       0.245365         6.6767 
  81   0.0000       0.245823         6.6892 
  82   0.0000       0.285921         7.7803 
  83   0.0000       0.287749         7.8301 
  84   0.0000       0.291241         7.9251 
  85   0.0000       0.292685         7.9644 
  86   0.0000       0.313830         8.5398 
  87   0.0000       0.314021         8.5449 
  88   0.0000       0.337268         9.1775 
  89   0.0000       0.338441         9.2095 
  90   0.0000       0.341624         9.2961 
  91   0.0000       0.347947         9.4681 
  92   0.0000       0.348841         9.4925 
  93   0.0000       0.354720         9.6524 
  94   0.0000       0.378978        10.3125 
  95   0.0000       0.380066        10.3421 
  96   0.0000       0.388266        10.5653 
  97   0.0000       0.388414        10.5693 
  98   0.0000       0.390105        10.6153 
  99   0.0000       0.399041        10.8585 
 100   0.0000       0.404305        11.0017 
 101   0.0000       0.404762        11.0141 
 102   0.0000       0.414179        11.2704 
 103   0.0000       0.418814        11.3965 
 104   0.0000       0.419452        11.4139 
 105   0.0000       0.428479        11.6595 
 106   0.0000       0.446644        12.1538 
 107   0.0000       0.448335        12.1998 
 108   0.0000       0.460324        12.5261 
 109   0.0000       0.470687        12.8080 
 110   0.0000       0.479953        13.0602 
 111   0.0000       0.480802        13.0833 
 112   0.0000       0.485027        13.1983 
 113   0.0000       0.501913        13.6578 
 114   0.0000       0.501955        13.6589 
 115   0.0000       0.526288        14.3210 
 116   0.0000       0.537404        14.6235 
 117   0.0000       0.537891        14.6368 
 118   0.0000       0.556065        15.1313 
 119   0.0000       0.558227        15.1901 
 120   0.0000       0.566967        15.4280 
 121   0.0000       0.570950        15.5363 
 122   0.0000       0.583031        15.8651 
 123   0.0000       0.584519        15.9056 
 124   0.0000       0.585285        15.9264 
 125   0.0000       0.594872        16.1873 
 126   0.0000       0.594917        16.1885 
 127   0.0000       0.611662        16.6442 
 128   0.0000       0.613612        16.6972 
 129   0.0000       0.616213        16.7680 
 130   0.0000       0.630135        17.1468 
 131   0.0000       0.631713        17.1898 
 132   0.0000       0.675478        18.3807 
 133   0.0000       0.709002        19.2929 
 134   0.0000       0.710077        19.3222 
 135   0.0000       0.726072        19.7574 
 136   0.0000       0.726790        19.7770 
 137   0.0000       0.728917        19.8348 
 138   0.0000       0.730372        19.8744 
 139   0.0000       0.730742        19.8845 
 140   0.0000       0.747035        20.3279 
 141   0.0000       0.748258        20.3611 
 142   0.0000       0.753269        20.4975 
 143   0.0000       0.753568        20.5056 
 144   0.0000       0.767114        20.8742 
 145   0.0000       0.799100        21.7446 
 146   0.0000       0.800364        21.7790 
 147   0.0000       0.807399        21.9705 
 148   0.0000       0.829565        22.5736 
 149   0.0000       0.830255        22.5924 
 150   0.0000       0.830830        22.6080 
 151   0.0000       0.839286        22.8381 
 152   0.0000       0.840206        22.8632 
 153   0.0000       0.864504        23.5244 
 154   0.0000       0.876762        23.8579 
 155   0.0000       0.879275        23.9263 
 156   0.0000       0.895779        24.3754 
 157   0.0000       0.899200        24.4685 
 158   0.0000       0.899890        24.4872 
 159   0.0000       0.928927        25.2774 
 160   0.0000       0.929024        25.2800 
 161   0.0000       0.962658        26.1953 
 162   0.0000       0.973307        26.4850 
 163   0.0000       0.975334        26.5402 
 164   0.0000       0.979097        26.6426 
 165   0.0000       1.009974        27.4828 
 166   0.0000       1.021095        27.7854 
 167   0.0000       1.023549        27.8522 
 168   0.0000       1.026816        27.9411 
 169   0.0000       1.030576        28.0434 
 170   0.0000       1.063782        28.9470 
 171   0.0000       1.064400        28.9638 
 172   0.0000       1.074851        29.2482 
 173   0.0000       1.096901        29.8482 
 174   0.0000       1.098863        29.9016 
 175   0.0000       1.108626        30.1672 
 176   0.0000       1.120767        30.4976 
 177   0.0000       1.121718        30.5235 
 178   0.0000       1.125605        30.6293 
 179   0.0000       1.157152        31.4877 
 180   0.0000       1.158777        31.5319 
 181   0.0000       1.175146        31.9773 
 182   0.0000       1.176700        32.0196 
 183   0.0000       1.176811        32.0227 
 184   0.0000       1.192174        32.4407 
 185   0.0000       1.193853        32.4864 
 186   0.0000       1.200611        32.6703 
 187   0.0000       1.203767        32.7562 
 188   0.0000       1.207373        32.8543 
 189   0.0000       1.211383        32.9634 
 190   0.0000       1.240041        33.7432 
 191   0.0000       1.271211        34.5914 
 192   0.0000       1.272735        34.6329 
 193   0.0000       1.272972        34.6393 
 194   0.0000       1.318882        35.8886 
 195   0.0000       1.324797        36.0496 
 196   0.0000       1.348629        36.6981 
 197   0.0000       1.350282        36.7431 
 198   0.0000       1.369270        37.2597 
 199   0.0000       1.379357        37.5342 
 200   0.0000       1.420611        38.6568 
 201   0.0000       1.420940        38.6657 
 202   0.0000       1.450324        39.4653 
 203   0.0000       1.452053        39.5124 
 204   0.0000       1.465614        39.8814 
 205   0.0000       1.487581        40.4791 
 206   0.0000       1.489772        40.5388 
 207   0.0000       1.512120        41.1469 
 208   0.0000       1.513618        41.1876 
 209   0.0000       1.514447        41.2102 
 210   0.0000       1.530645        41.6510 
 211   0.0000       1.556145        42.3449 
 212   0.0000       1.557971        42.3946 
 213   0.0000       1.559177        42.4274 
 214   0.0000       1.567972        42.6667 
 215   0.0000       1.582902        43.0729 
 216   0.0000       1.585001        43.1301 
 217   0.0000       1.604716        43.6666 
 218   0.0000       1.607797        43.7504 
 219   0.0000       1.633881        44.4602 
 220   0.0000       1.645226        44.7689 
 221   0.0000       1.648059        44.8460 
 222   0.0000       1.668849        45.4117 
 223   0.0000       1.669716        45.4353 
 224   0.0000       1.676636        45.6236 
 225   0.0000       1.698662        46.2229 
 226   0.0000       1.705161        46.3998 
 227   0.0000       1.705871        46.4191 
 228   0.0000       1.731801        47.1247 
 229   0.0000       1.742231        47.4085 
 230   0.0000       1.742490        47.4156 
 231   0.0000       1.744702        47.4758 
 232   0.0000       1.746353        47.5207 
 233   0.0000       1.768811        48.1318 
 234   0.0000       1.770521        48.1783 
 235   0.0000       1.781589        48.4795 
 236   0.0000       1.784472        48.5579 
 237   0.0000       1.813558        49.3494 
 238   0.0000       1.816782        49.4371 
 239   0.0000       1.838704        50.0337 
 240   0.0000       1.841592        50.1123 
 241   0.0000       1.842070        50.1253 
 242   0.0000       1.849334        50.3229 
 243   0.0000       1.867325        50.8125 
 244   0.0000       1.867869        50.8273 
 245   0.0000       1.875921        51.0464 
 246   0.0000       1.886369        51.3307 
 247   0.0000       1.898315        51.6558 
 248   0.0000       1.899851        51.6976 
 249   0.0000       1.917015        52.1646 
 250   0.0000       1.926291        52.4171 
 251   0.0000       1.928227        52.4697 
 252   0.0000       1.942683        52.8631 
 253   0.0000       2.018192        54.9178 
 254   0.0000       2.023336        55.0578 
 255   0.0000       2.027679        55.1759 
 256   0.0000       2.045873        55.6710 
 257   0.0000       2.049325        55.7650 
 258   0.0000       2.052676        55.8561 
 259   0.0000       2.054413        55.9034 
 260   0.0000       2.075532        56.4781 
 261   0.0000       2.080984        56.6264 
 262   0.0000       2.100304        57.1522 
 263   0.0000       2.100803        57.1657 
 264   0.0000       2.108239        57.3681 
 265   0.0000       2.114001        57.5249 
 266   0.0000       2.114541        57.5396 
 267   0.0000       2.120886        57.7123 
 268   0.0000       2.143399        58.3248 
 269   0.0000       2.144236        58.3476 
 270   0.0000       2.172553        59.1182 
 271   0.0000       2.184549        59.4446 
 272   0.0000       2.214924        60.2711 
 273   0.0000       2.233265        60.7702 
 274   0.0000       2.235050        60.8188 
 275   0.0000       2.237672        60.8902 
 276   0.0000       2.241776        61.0018 
 277   0.0000       2.277708        61.9796 
 278   0.0000       2.302395        62.6514 
 279   0.0000       2.305023        62.7229 
 280   0.0000       2.329914        63.4002 
 281   0.0000       2.337728        63.6128 
 282   0.0000       2.342003        63.7292 
 283   0.0000       2.358020        64.1650 
 284   0.0000       2.372233        64.5517 
 285   0.0000       2.375258        64.6341 
 286   0.0000       2.389314        65.0165 
 287   0.0000       2.398032        65.2538 
 288   0.0000       2.400130        65.3109 
 289   0.0000       2.408881        65.5490 
 290   0.0000       2.411843        65.6296 
 291   0.0000       2.442734        66.4702 
 292   0.0000       2.463557        67.0368 
 293   0.0000       2.466615        67.1200 
 294   0.0000       2.497718        67.9664 
 295   0.0000       2.500265        68.0357 
 296   0.0000       2.512536        68.3696 
 297   0.0000       2.514782        68.4307 
 298   0.0000       2.521125        68.6033 
 299   0.0000       2.523178        68.6592 
 300   0.0000       2.542984        69.1981 
 301   0.0000       2.566757        69.8450 
 302   0.0000       2.568534        69.8934 
 303   0.0000       2.582870        70.2835 
 304   0.0000       2.596068        70.6426 
 305   0.0000       2.631665        71.6112 
 306   0.0000       2.635146        71.7060 
 307   0.0000       2.673466        72.7487 
 308   0.0000       2.694203        73.3130 
 309   0.0000       2.696473        73.3748 
 310   0.0000       2.719183        73.9927 
 311   0.0000       2.760365        75.1134 
 312   0.0000       2.761299        75.1388 
 313   0.0000       2.762272        75.1653 
 314   0.0000       2.777675        75.5844 
 315   0.0000       2.777775        75.5871 
 316   0.0000       2.784868        75.7801 
 317   0.0000       2.870497        78.1102 
 318   0.0000       2.871443        78.1359 
 319   0.0000       2.896691        78.8230 
 320   0.0000       2.918720        79.4224 
 321   0.0000       2.918841        79.4257 
 322   0.0000       2.939310        79.9827 
 323   0.0000       2.939654        79.9921 
 324   0.0000       2.949041        80.2475 
 325   0.0000       2.965637        80.6991 
 326   0.0000       2.978507        81.0493 
 327   0.0000       2.978780        81.0567 
 328   0.0000       3.023564        82.2753 
 329   0.0000       3.044167        82.8360 
 330   0.0000       3.047955        82.9391 
 331   0.0000       3.072530        83.6078 
 332   0.0000       3.073409        83.6317 
 333   0.0000       3.109501        84.6138 
 334   0.0000       3.153046        85.7987 
 335   0.0000       3.158192        85.9388 
 336   0.0000       3.159513        85.9747 
 337   0.0000       3.201546        87.1185 
 338   0.0000       3.236931        88.0814 
 339   0.0000       3.236955        88.0820 
 340   0.0000       3.287564        89.4592 
 341   0.0000       3.291661        89.5706 
 342   0.0000       3.320134        90.3454 
 343   0.0000       3.345966        91.0484 
 344   0.0000       3.347906        91.1011 
 345   0.0000       3.366726        91.6133 
 346   0.0000       3.388396        92.2029 
 347   0.0000       3.389246        92.2261 
 348   0.0000       3.420475        93.0758 
 349   0.0000       3.432402        93.4004 
 350   0.0000       3.437746        93.5458 
 351   0.0000       3.438134        93.5564 
 352   0.0000       3.451770        93.9274 
 353   0.0000       3.455064        94.0171 
 354   0.0000       3.455766        94.0362 
 355   0.0000       3.534407        96.1761 
 356   0.0000       3.544495        96.4506 
 357   0.0000       3.545848        96.4874 
 358   0.0000       3.572829        97.2216 
 359   0.0000       3.613561        98.3300 
 360   0.0000       3.613935        98.3402 
 361   0.0000       3.621695        98.5513 
 362   0.0000       3.659384        99.5769 
 363   0.0000       3.660444        99.6058 
 364   0.0000       3.660986        99.6205 
 365   0.0000       3.666080        99.7591 
 366   0.0000       3.667090        99.7866 
 367   0.0000       3.685928       100.2992 
 368   0.0000       3.719750       101.2195 
 369   0.0000       3.720024       101.2270 
 370   0.0000       3.733854       101.6033 
 371   0.0000       3.746799       101.9556 
 372   0.0000       3.772468       102.6541 
 373   0.0000       3.772628       102.6584 
 374   0.0000       3.776101       102.7529 
 375   0.0000       3.776476       102.7631 
 376   0.0000       3.800953       103.4292 
 377   0.0000       3.802637       103.4750 
 378   0.0000       3.802773       103.4787 
 379   0.0000       3.810894       103.6997 
 380   0.0000       3.840151       104.4958 
 381   0.0000       3.840439       104.5037 
 382   0.0000       3.860990       105.0629 
 383   0.0000       3.915617       106.5494 
 384   0.0000       3.916976       106.5863 
 385   0.0000       3.925511       106.8186 
 386   0.0000       4.037183       109.8573 
 387   0.0000       4.048935       110.1771 
 388   0.0000       4.050371       110.2162 
 389   0.0000       4.101155       111.5981 
 390   0.0000       4.113859       111.9438 
 391   0.0000       4.115637       111.9922 
 392   0.0000       4.196794       114.2006 
 393   0.0000       4.197736       114.2262 
 394   0.0000       4.261740       115.9678 
 395   0.0000       4.286947       116.6538 
 396   0.0000       4.297216       116.9332 
 397   0.0000       4.391988       119.5121 
 398   0.0000       4.403832       119.8344 
 399   0.0000       4.407144       119.9245 
 400   0.0000       4.440413       120.8298 
 401   0.0000       4.469679       121.6262 
 402   0.0000       4.474839       121.7666 
 403   0.0000       4.511373       122.7607 
 404   0.0000       4.536880       123.4548 
 405   0.0000       4.538506       123.4990 
 406   0.0000       4.567194       124.2797 
 407   0.0000       4.617181       125.6399 
 408   0.0000       4.623960       125.8243 
 409   0.0000       4.626080       125.8820 
 410   0.0000       4.672897       127.1560 
 411   0.0000       4.673408       127.1699 
 412   0.0000       4.913869       133.7132 
 413   0.0000       4.915229       133.7502 
 414   0.0000       4.920173       133.8847 
 415   0.0000       4.982886       135.5912 
 416   0.0000       4.985746       135.6690 
 417   0.0000       4.986648       135.6936 
 418   0.0000       5.019338       136.5831 
 419   0.0000       5.042706       137.2190 
 420   0.0000       5.044540       137.2689 
 421   0.0000       5.056470       137.5936 
 422   0.0000       5.073671       138.0616 
 423   0.0000       5.076192       138.1302 
 424   0.0000       5.124991       139.4581 
 425   0.0000       5.127543       139.5275 
 426   0.0000       5.170434       140.6947 
 427   0.0000       5.175918       140.8439 
 428   0.0000       5.193149       141.3128 
 429   0.0000       5.196623       141.4073 
 430   0.0000       5.386039       146.5616 
 431   0.0000       5.423957       147.5934 
 432   0.0000       5.424276       147.6021 
 433   0.0000       5.428610       147.7200 
 434   0.0000       5.539828       150.7464 
 435   0.0000       5.540727       150.7709 
 436   0.0000       5.542420       150.8169 
 437   0.0000       5.599945       152.3823 
 438   0.0000       5.604899       152.5171 
 439   0.0000       5.654418       153.8645 
 440   0.0000       5.704732       155.2336 
 441   0.0000       5.709583       155.3656 
 442   0.0000       5.756065       156.6305 
 443   0.0000       5.761882       156.7888 
 444   0.0000       5.808097       158.0463 
 445   0.0000       5.973228       162.5398 
 446   0.0000       6.011351       163.5772 
 447   0.0000       6.014344       163.6586 
 448   0.0000       7.443610       202.5509 
 449   0.0000       7.443992       202.5613 
 450   0.0000       7.451929       202.7773 
 451   0.0000       7.489259       203.7931 
 452   0.0000       7.496693       203.9954 
 453   0.0000       7.496768       203.9974 
 454   0.0000       7.537379       205.1025 
 455   0.0000       7.538283       205.1271 
 456   0.0000       7.546354       205.3467 
 457   0.0000       7.546494       205.3505 
 458   0.0000       7.550890       205.4702 
 459   0.0000       7.565728       205.8739 
 460   0.0000       7.639444       207.8798 
 461   0.0000       7.641240       207.9287 
 462   0.0000       7.686683       209.1653 
 463   0.0000       7.687564       209.1893 
 464   0.0000       7.715004       209.9359 
 465   0.0000       7.721552       210.1141 
 466   0.0000       7.727628       210.2794 
 467   0.0000       7.728852       210.3128 
 468   0.0000       7.735829       210.5026 
 469   0.0000       7.755562       211.0396 
 470   0.0000       7.757205       211.0843 
 471   0.0000       7.758425       211.1175 
 472   0.0000       7.759533       211.1476 
 473   0.0000       7.782639       211.7764 
 474   0.0000       7.789932       211.9748 
 475   0.0000       7.790508       211.9905 
 476   0.0000       7.815176       212.6617 
 477   0.0000       7.817693       212.7302 
 478   0.0000       7.827814       213.0056 
 479   0.0000       7.828315       213.0193 
 480   0.0000       7.831651       213.1101 
 481   0.0000       7.864700       214.0094 
 482   0.0000       7.864886       214.0144 
 483   0.0000       7.892118       214.7555 
 484   0.0000       7.893048       214.7808 
 485   0.0000       7.893448       214.7916 
 486   0.0000       7.909978       215.2414 
 487   0.0000       7.912404       215.3075 
 488   0.0000       7.921383       215.5518 
 489   0.0000       7.921560       215.5566 
 490   0.0000       7.951283       216.3654 
 491   0.0000       7.952939       216.4105 
 492   0.0000       7.988542       217.3793 
 493   0.0000       7.988923       217.3896 
 494   0.0000       7.990544       217.4338 
 495   0.0000       8.039984       218.7791 
 496   0.0000       8.042195       218.8393 
 497   0.0000       8.045086       218.9179 
 498   0.0000       8.052531       219.1205 
 499   0.0000       8.080510       219.8818 
 500   0.0000       8.149590       221.7616 
 501   0.0000       8.154238       221.8881 
 502   0.0000       8.208000       223.3510 
 503   0.0000       8.230218       223.9556 
 504   0.0000       8.239352       224.2042 
 505   0.0000       8.240780       224.2430 
 506   0.0000       8.271311       225.0738 
 507   0.0000       8.272024       225.0932 
 508   0.0000       8.575430       233.3493 
 509   0.0000       8.576024       233.3655 
 510   0.0000       8.577664       233.4101 
 511   0.0000       8.581317       233.5095 
 512   0.0000       8.608819       234.2579 
 513   0.0000       8.611181       234.3222 
 514   0.0000       8.627871       234.7763 
 515   0.0000       8.769858       238.6400 
 516   0.0000       8.769925       238.6418 
 517   0.0000       8.775410       238.7910 
 518   0.0000       8.813130       239.8175 
 519   0.0000       8.813592       239.8300 
 520   0.0000       8.938114       243.2184 
 521   0.0000       8.964320       243.9315 
 522   0.0000       8.965389       243.9606 
 523   0.0000       9.010711       245.1939 
 524   0.0000       9.097686       247.5606 
 525   0.0000       9.097863       247.5654 
 526   0.0000       9.138648       248.6753 
 527   0.0000       9.140786       248.7334 
 528   0.0000       9.141085       248.7416 
 529   0.0000       9.148137       248.9335 
 530   0.0000       9.148627       248.9468 
 531   0.0000       9.150535       248.9987 
 532   0.0000       9.150772       249.0052 
 533   0.0000       9.151160       249.0157 
 534   0.0000       9.151788       249.0328 
 535   0.0000       9.156338       249.1566 
 536   0.0000       9.160734       249.2762 
 537   0.0000       9.160964       249.2825 
 538   0.0000       9.164513       249.3791 
 539   0.0000       9.181180       249.8326 
 540   0.0000       9.181557       249.8429 
 541   0.0000       9.208941       250.5880 
 542   0.0000       9.210138       250.6206 
 543   0.0000       9.211696       250.6630 
 544   0.0000       9.224387       251.0083 
 545   0.0000       9.225142       251.0289 
 546   0.0000       9.225669       251.0432 
 547   0.0000       9.227415       251.0907 
 548   0.0000       9.232268       251.2228 
 549   0.0000       9.235003       251.2972 
 550   0.0000       9.235541       251.3118 
 551   0.0000       9.252445       251.7718 
 552   0.0000       9.252536       251.7743 
 553   0.0000       9.257400       251.9066 
 554   0.0000       9.260746       251.9977 
 555   0.0000       9.289655       252.7844 
 556   0.0000       9.290064       252.7955 
 557   0.0000       9.321672       253.6556 
 558   0.0000       9.324693       253.7378 
 559   0.0000       9.325039       253.7472 
 560   0.0000       9.340649       254.1720 
 561   0.0000       9.363584       254.7961 
 562   0.0000       9.364320       254.8161 
 563   0.0000       9.380196       255.2481 
 564   0.0000       9.395157       255.6552 
 565   0.0000       9.395888       255.6751 
 566   0.0000       9.457601       257.3544 
 567   0.0000       9.458385       257.3757 
 568   0.0000       9.460255       257.4266 
 569   0.0000       9.463536       257.5159 
 570   0.0000       9.497808       258.4485 
 571   0.0000       9.499283       258.4886 
 572   0.0000       9.509369       258.7631 
 573   0.0000       9.509948       258.7788 
 574   0.0000       9.510520       258.7944 
 575   0.0000       9.584624       260.8109 
 576   0.0000       9.586655       260.8661 
 577   0.0000       9.587440       260.8875 
 578   0.0000       9.663244       262.9502 
 579   0.0000       9.665196       263.0033 
 580   0.0000       9.674026       263.2436 
 581   0.0000       9.694821       263.8095 
 582   0.0000       9.701817       263.9999 
 583   0.0000       9.703024       264.0327 
 584   0.0000       9.717815       264.4352 
 585   0.0000       9.717956       264.4390 
 586   0.0000       9.722702       264.5682 
 587   0.0000       9.726853       264.6811 
 588   0.0000       9.728315       264.7209 
 589   0.0000       9.728896       264.7367 
 590   0.0000       9.812554       267.0132 
 591   0.0000       9.844826       267.8913 
[...]
 403   0.0000       4.443137       120.9039 
 404   0.0000       4.475451       121.7832 
 405   0.0000       4.484373       122.0260 
 406   0.0000       4.484993       122.0429 
 407   0.0000       4.557626       124.0193 
 408   0.0000       4.562860       124.1617 
 409   0.0000       4.563628       124.1826 
 410   0.0000       4.622848       125.7941 
 411   0.0000       4.623703       125.8174 
 412   0.0000       4.885457       132.9400 
 413   0.0000       4.885625       132.9446 
 414   0.0000       4.885845       132.9506 
 415   0.0000       4.989869       135.7813 
 416   0.0000       4.989877       135.7815 
 417   0.0000       4.998661       136.0205 
 418   0.0000       5.015424       136.4766 
 419   0.0000       5.016111       136.4953 
 420   0.0000       5.026199       136.7698 
 421   0.0000       5.039886       137.1423 
 422   0.0000       5.058307       137.6435 
 423   0.0000       5.059342       137.6717 
 424   0.0000       5.099179       138.7557 
 425   0.0000       5.099566       138.7662 
 426   0.0000       5.117647       139.2582 
 427   0.0000       5.167306       140.6095 
 428   0.0000       5.193042       141.3099 
 429   0.0000       5.195254       141.3700 
 430   0.0000       5.341769       145.3569 
 431   0.0000       5.393615       146.7677 
 432   0.0000       5.393880       146.7749 
 433   0.0000       5.404242       147.0569 
 434   0.0000       5.468294       148.7998 
 435   0.0000       5.468421       148.8033 
 436   0.0000       5.543491       150.8461 
 437   0.0000       5.555499       151.1728 
 438   0.0000       5.555843       151.1822 
 439   0.0000       5.579194       151.8176 
 440   0.0000       5.672079       154.3451 
 441   0.0000       5.672596       154.3592 
 442   0.0000       5.760900       156.7620 
 443   0.0000       5.761563       156.7801 
 444   0.0000       5.841237       158.9482 
 445   0.0000       5.874972       159.8661 
 446   0.0000       5.986129       162.8908 
 447   0.0000       5.988996       162.9689 
 448   0.0000       7.464978       203.1324 
 449   0.0000       7.465383       203.1434 
 450   0.0000       7.473084       203.3530 
 451   0.0000       7.489895       203.8104 
 452   0.0000       7.501952       204.1385 
 453   0.0000       7.502404       204.1508 
 454   0.0000       7.521073       204.6588 
 455   0.0000       7.521166       204.6613 
 456   0.0000       7.525664       204.7837 
 457   0.0000       7.534373       205.0207 
 458   0.0000       7.534377       205.0208 
 459   0.0000       7.543444       205.2676 
 460   0.0000       7.653135       208.2524 
 461   0.0000       7.654089       208.2784 
 462   0.0000       7.695956       209.4176 
 463   0.0000       7.695970       209.4180 
 464   0.0000       7.698939       209.4988 
 465   0.0000       7.722915       210.1512 
 466   0.0000       7.724627       210.1978 
 467   0.0000       7.727755       210.2829 
 468   0.0000       7.728157       210.2938 
 469   0.0000       7.733630       210.4428 
 470   0.0000       7.734575       210.4685 
 471   0.0000       7.737509       210.5483 
 472   0.0000       7.756704       211.0706 
 473   0.0000       7.776772       211.6167 
 474   0.0000       7.776819       211.6180 
 475   0.0000       7.785179       211.8455 
 476   0.0000       7.797138       212.1709 
 477   0.0000       7.797443       212.1792 
 478   0.0000       7.809366       212.5036 
 479   0.0000       7.819784       212.7871 
 480   0.0000       7.830426       213.0767 
 481   0.0000       7.830581       213.0809 
 482   0.0000       7.873714       214.2546 
 483   0.0000       7.873849       214.2583 
 484   0.0000       7.906487       215.1465 
 485   0.0000       7.906609       215.1498 
 486   0.0000       7.907241       215.1670 
 487   0.0000       7.928766       215.7527 
 488   0.0000       7.928870       215.7555 
 489   0.0000       7.931307       215.8218 
 490   0.0000       7.939089       216.0336 
 491   0.0000       7.939742       216.0514 
 492   0.0000       7.959578       216.5911 
 493   0.0000       7.999808       217.6858 
 494   0.0000       8.000066       217.6929 
 495   0.0000       8.031642       218.5521 
 496   0.0000       8.034250       218.6231 
 497   0.0000       8.034802       218.6381 
 498   0.0000       8.045161       218.9200 
 499   0.0000       8.065893       219.4841 
 500   0.0000       8.142663       221.5731 
 501   0.0000       8.144509       221.6234 
 502   0.0000       8.182119       222.6468 
 503   0.0000       8.220112       223.6806 
 504   0.0000       8.220753       223.6981 
 505   0.0000       8.244321       224.3394 
 506   0.0000       8.304894       225.9876 
 507   0.0000       8.305664       226.0086 
 508   0.0000       8.488423       230.9817 
 509   0.0000       8.566668       233.1109 
 510   0.0000       8.566833       233.1154 
 511   0.0000       8.592691       233.8190 
 512   0.0000       8.633007       234.9161 
 513   0.0000       8.637611       235.0413 
 514   0.0000       8.637725       235.0445 
 515   0.0000       8.701378       236.7765 
 516   0.0000       8.735725       237.7112 
 517   0.0000       8.736723       237.7383 
 518   0.0000       8.777493       238.8477 
 519   0.0000       8.779038       238.8898 
 520   0.0000       8.918223       242.6772 
 521   0.0000       8.941017       243.2975 
 522   0.0000       8.941610       243.3136 
 523   0.0000       9.007349       245.1024 
 524   0.0000       9.097911       247.5667 
 525   0.0000       9.098091       247.5716 
 526   0.0000       9.128539       248.4002 
 527   0.0000       9.130235       248.4463 
 528   0.0000       9.130313       248.4484 
 529   0.0000       9.140627       248.7291 
 530   0.0000       9.140818       248.7343 
 531   0.0000       9.140845       248.7350 
 532   0.0000       9.144637       248.8382 
 533   0.0000       9.144676       248.8393 
 534   0.0000       9.145629       248.8652 
 535   0.0000       9.149284       248.9647 
 536   0.0000       9.155031       249.1211 
 537   0.0000       9.155369       249.1303 
 538   0.0000       9.155503       249.1339 
 539   0.0000       9.161205       249.2891 
 540   0.0000       9.161266       249.2907 
 541   0.0000       9.179564       249.7886 
 542   0.0000       9.202844       250.4221 
 543   0.0000       9.203013       250.4267 
 544   0.0000       9.217625       250.8243 
 545   0.0000       9.221634       250.9334 
 546   0.0000       9.221764       250.9369 
 547   0.0000       9.223775       250.9917 
 548   0.0000       9.229107       251.1368 
 549   0.0000       9.253191       251.7921 
 550   0.0000       9.253362       251.7968 
 551   0.0000       9.257152       251.8999 
 552   0.0000       9.257358       251.9055 
 553   0.0000       9.263056       252.0606 
 554   0.0000       9.263103       252.0618 
 555   0.0000       9.265284       252.1212 
 556   0.0000       9.265368       252.1235 
 557   0.0000       9.281319       252.5575 
 558   0.0000       9.298401       253.0223 
 559   0.0000       9.298419       253.0228 
 560   0.0000       9.340977       254.1809 
 561   0.0000       9.377646       255.1787 
 562   0.0000       9.377985       255.1880 
 563   0.0000       9.380945       255.2685 
 564   0.0000       9.400223       255.7931 
 565   0.0000       9.400749       255.8074 
 566   0.0000       9.408391       256.0153 
 567   0.0000       9.414000       256.1680 
 568   0.0000       9.414462       256.1805 
 569   0.0000       9.433736       256.7050 
 570   0.0000       9.434425       256.7238 
 571   0.0000       9.436085       256.7689 
 572   0.0000       9.467577       257.6259 
 573   0.0000       9.467720       257.6298 
 574   0.0000       9.547980       259.8137 
 575   0.0000       9.560921       260.1659 
 576   0.0000       9.569451       260.3980 
 577   0.0000       9.570866       260.4365 
 578   0.0000       9.598950       261.2007 
 579   0.0000       9.599247       261.2088 
 580   0.0000       9.641815       262.3671 
 581   0.0000       9.666476       263.0382 
 582   0.0000       9.666603       263.0416 
 583   0.0000       9.670288       263.1419 
 584   0.0000       9.689008       263.6513 
 585   0.0000       9.689496       263.6646 
 586   0.0000       9.705426       264.0981 
 587   0.0000       9.784662       266.2542 
 588   0.0000       9.784718       266.2557 
 589   0.0000       9.786102       266.2934 
 590   0.0000       9.820327       267.2247 
 591   0.0000       9.830863       267.5114 
 592   0.0000       9.831068       267.5170 
 593   0.0000       9.855465       268.1808 
 594   0.0000       9.877540       268.7815 
 595   0.0000       9.877871       268.7905 
 596   0.0000       9.878926       268.8192 
 597   0.0000       9.897937       269.3366 
 598   0.0000       9.898745       269.3585 
 599   0.0000       9.936782       270.3936 
 600   0.0000       9.936959       270.3984 
 601   0.0000       9.956384       270.9270 
 602   0.0000      10.003914       272.2203 
 603   0.0000      10.004071       272.2246 
 604   0.0000      12.115763       329.6867 
 605   0.0000      12.302169       334.7590 
 606   0.0000      12.303610       334.7983 
 607   0.0000      12.338544       335.7489 
 608   0.0000      13.414014       365.0139 
 609   0.0000      13.414631       365.0307 
 610   0.0000      13.414891       365.0377 
 611   0.0000      13.459111       366.2410 
 612   0.0000      13.515262       367.7690 
 613   0.0000      13.517085       367.8186 
 614   0.0000      13.522604       367.9688 
 615   0.0000      13.542716       368.5160 
 616   0.0000      13.543150       368.5279 
 617   0.0000      13.742627       373.9559 
 618   0.0000      13.749384       374.1398 
 619   0.0000      13.750427       374.1681 
 620   0.0000      13.975597       380.2953 
 621   0.0000      13.975999       380.3063 
 622   0.0000      13.985297       380.5593 
 623   0.0000      14.018923       381.4743 
 624   0.0000      14.018990       381.4761 
 625   0.0000      14.032245       381.8368 
 626   0.0000      14.396506       391.7489 
 627   0.0000      14.396620       391.7519 
 628   0.0000      19.040925       518.1299 
 629   0.0000      19.041196       518.1373 
 630   0.0000      19.041762       518.1527 
 631   0.0000      19.122412       520.3473 
 632   0.0000      19.122810       520.3581 
 633   0.0000      19.123425       520.3749 
 634   0.0000      19.142281       520.8879 
 635   0.0000      19.142329       520.8893 
 636   0.0000      19.150580       521.1138 
 637   0.0000      19.153458       521.1921 
 638   0.0000      19.154425       521.2184 
 639   0.0000      19.155855       521.2573 
 640   0.0000      19.173598       521.7401 
 641   0.0000      19.178697       521.8789 
 642   0.0000      19.178973       521.8864 
 643   0.0000      19.203713       522.5596 
 644   0.0000      19.244149       523.6599 
 645   0.0000      19.245742       523.7033 
 646   0.0000      19.390445       527.6408 
 647   0.0000      19.390949       527.6545 
 648   0.0000      19.465014       529.6700 
 649   0.0000      19.534441       531.5592 
 650   0.0000      19.535046       531.5756 
 651   0.0000      19.574030       532.6364 
 652   0.0000      19.577920       532.7423 
 653   0.0000      19.578046       532.7457 
 654   0.0000      19.595331       533.2161 
 655   0.0000      19.597889       533.2857 
 656   0.0000      19.598100       533.2914 
 657   0.0000      19.666586       535.1550 
 658   0.0000      19.667891       535.1905 
 659   0.0000      19.713471       536.4308 
 660   0.0000      19.724934       536.7427 
 661   0.0000      19.802252       538.8467 
 662   0.0000      19.892823       541.3112 
 663   0.0000      19.894661       541.3612 
-------
TIMINGS
-------

Total SCF time: 0 days 0 hours 3 min 20 sec 

Total time                  ....     200.999 sec
Sum of individual times     ....     197.583 sec  ( 98.3%)

Fock matrix formation       ....     185.333 sec  ( 92.2%)
  Split-RI-J                ....     110.844 sec  ( 59.8% of F)
  XC integration            ....      74.558 sec  ( 40.2% of F)
    Basis function eval.    ....      20.817 sec  ( 27.9% of XC)
    Density eval.           ....      29.618 sec  ( 39.7% of XC)
    XC-Functional eval.     ....       1.773 sec  (  2.4% of XC)
    XC-Potential eval.      ....      20.307 sec  ( 27.2% of XC)
Diagonalization             ....       0.526 sec  (  0.3%)
Density matrix formation    ....       0.061 sec  (  0.0%)
Population analysis         ....       0.000 sec  (  0.0%)
Initial guess               ....       0.545 sec  (  0.3%)
Orbital Transformation      ....       0.000 sec  (  0.0%)
Orbital Orthonormalization  ....       0.515 sec  (  0.3%)
DIIS solution               ....       0.154 sec  (  0.1%)
SOSCF solution              ....       1.390 sec  (  0.7%)
Grid generation             ....       9.573 sec  (  4.8%)

Maximum memory used throughout the entire SCF-calculation: 630.5 MB


-------------------------------------------------------------------------------
                          DFT DISPERSION CORRECTION                            
                                                                               
                              DFTD3 V3.1  Rev 1                                
                          USING Becke-Johnson damping                          
-------------------------------------------------------------------------------
The PBE functional is recognized
Active option DFTDOPT                   ...         4   

molecular C6(AA) [au] = 4934.807799 


            DFT-D V3
 parameters
 s6 scaling factor         :     1.0000 
 a1 scaling factor         :     0.4289 
 s8 scaling factor         :     0.7875 
 a2 scaling factor         :     4.4407 
 ad hoc parameters k1-k3   :    16.0000     1.3333    -4.0000 

 Edisp/kcal,au: -8.779499368031  -0.013991021322 
 E6   /kcal   :  -5.540138078 
 E8   /kcal   :  -3.239361290 
 % E8         :  36.896879361 

-------------------------   ----------------
Dispersion correction           -0.013991021
-------------------------   ----------------


-------------------------   --------------------
FINAL SINGLE POINT ENERGY      -976.399552150024
-------------------------   --------------------

                                *** OPTIMIZATION RUN DONE ***

                            ***************************************
                            *     ORCA property calculations      *
                            ***************************************

                                    ---------------------
                                    Active property flags
                                    ---------------------
   (+) Dipole Moment


------------------------------------------------------------------------------
                       ORCA ELECTRIC PROPERTIES CALCULATION
------------------------------------------------------------------------------

Dipole Moment Calculation                       ... on
Quadrupole Moment Calculation                   ... off
Polarizability Calculation                      ... off
GBWName                                         ... run.gbw
Electron density                                ... run.scfp
The origin for moment calculation is the CENTER OF MASS  = (-0.001600, -0.003498  4.617204)

-------------
DIPOLE MOMENT
-------------
                                X             Y             Z
Electronic contribution:      0.00135       0.00162      -0.00960
Nuclear contribution   :     -0.00061      -0.00074       0.00439
                        -----------------------------------------
Total Dipole Moment    :      0.00075       0.00088      -0.00521
                        -----------------------------------------
Magnitude (a.u.)       :      0.00534
Magnitude (Debye)      :      0.01357



--------------------
Rotational spectrum 
--------------------
 
Rotational constants in cm-1:     0.051644     0.051238     0.026488 
Rotational constants in MHz :  1548.252295  1536.069156   794.104843 

 Dipole components along the rotational axes: 
x,y,z [a.u.] :    -0.005063    -0.001689    -0.000111 
x,y,z [Debye]:    -0.012870    -0.004294    -0.000282 

 

-------------------------------------------------------------------------------
                               ORCA SCF HESSIAN
-------------------------------------------------------------------------------

                   --------- SHARK INITIALIZATION DONE ---------

Hessian of the Kohn-Sham DFT energy:
Kohn-Sham wavefunction type                      ... RKS
Hartree-Fock exchange scaling                    ...    0.000
Number of operators                              ...    1
Number of atoms                                  ...   16
Basis set dimensions                             ...  664
Integral neglect threshold                       ... 2.5e-11
Integral primitive cutoff                        ... 2.5e-12

Setting up DFT Hessian calculations              ... 

HESS GRID
---------

General Integration Accuracy     IntAcc      ... 4.959
Radial Grid Type                 RadialGrid  ... OptM3 with GC (2021)
Angular Grid (max. ang.)         AngularGrid ... 7 (Lebedev-770)
Angular grid pruning method      GridPruning ... 4 (adaptive)
Weight generation scheme         WeightScheme... Becke
Basis function cutoff            BFCut       ... 1.0000e-11
Integration weight cutoff        WCut        ... 1.0000e-14
Angular grids for H and He will be reduced by one unit
Partially contracted basis set               ... off
Rotationally invariant grid construction     ... off

Total number of grid points                  ...   259536
Total number of batches                      ...     4062
Average number of points per batch           ...       63
Average number of grid points per atom       ...    16221

Building densities                               ... done   (      0.0 sec)
Calculating rho(r) on the grid                   ... done   (     15.3 sec)
Building xc-kernel on the grid                   ... done   (      0.7 sec)
                                                     done   (     31.2 sec)

Nuclear repulsion Hessian  (SHARK)               ... done   (      0.0 sec)

----------------------------------------------
Forming right-hand sides of CP-SCF equations     ...
----------------------------------------------
One electron integral derivatives  (SHARK)       ... done   (      5.1 sec)
Transforming the overlap derivative matrices     ... done   (      6.7 sec)
Making the Q(x) pseudodensities                  ... done   (      6.7 sec)
Adding the E*S(x)*S(y) terms to the Hessian      ... done   (      1.0 sec)
Calculating energy weighted overlap derivatives  ... done   (      0.1 sec)
Two electron integral derivatives (SHARK-RI)     ... done   (    392.1 sec)
Exchange-correlation integral derivatives        ... done   (   2280.8 sec)
tr(F(y)Q(x)) contribution to the Hessian         ... done   (      1.6 sec)

Response fock operator R(S(x)) (SHARK-RI)        ... 
IBatch  1 (of  3):                                                70.3 sec
IBatch  2 (of  3):                                                70.2 sec
IBatch  3 (of  3):                                                53.4 sec
                                                 ... done   (    194.0 sec)
XC Response fock operator R(S(x))                ... done   (    891.6 sec)
tr(F(y)S(x)) contribution to the Hessian         ... done   (      1.6 sec)
Transforming and finalizing RHSs                 ... done   (      6.7 sec)

----------------------------------------------
Solving the CP-SCF equations (RI)                ...
----------------------------------------------

ERROR - OUT OF MEMORY !!!

    MINIMUM REQUIRED:  1037.0 MB
    MAXCORE:           1024.0 MB

ORCA finished by error termination in SCF Hessian
Calling Command: /home/mehlhorn/orca5/orca_scfhess run.scfhess.inp 
[file orca_tools/qcmsg.cpp, line 465]: 
  .... aborting the run

