
                                 *****************
                                 * O   R   C   A *
                                 *****************

                                            #,                                       
                                            ###                                      
                                            ####                                     
                                            #####                                    
                                            ######                                   
                                           ########,                                 
                                     ,,################,,,,,                         
                               ,,#################################,,                 
                          ,,##########################################,,             
                       ,#########################################, ''#####,          
                    ,#############################################,,   '####,        
                  ,##################################################,,,,####,       
                ,###########''''           ''''###############################       
              ,#####''   ,,,,##########,,,,          '''####'''          '####       
            ,##' ,,,,###########################,,,                        '##       
           ' ,,###''''                  '''############,,,                           
         ,,##''                                '''############,,,,        ,,,,,,###''
      ,#''                                            '''#######################'''  
     '                                                          ''''####''''         
             ,#######,   #######,   ,#######,      ##                                
            ,#'     '#,  ##    ##  ,#'     '#,    #''#        ,####,    ,#,          
            ##       ##  ##   ,#'  ##            #'  '#       #'       ,# #          
            ##       ##  #######   ##           ,######,      #####,      #          
            '#,     ,#'  ##    ##  '#,     ,#' ,#      #,     #,   #      #          
             '#######'   ##     ##  '#######'  #'      '#     '####' #    #          



                #########################################################
                #                        -***-                          #
                #          Department of theory and spectroscopy        #
                #                                                       #
                #                      Frank Neese                      #
                #                                                       #
                #     Directorship, Architecture, Infrastructure        #
                #                    SHARK, DRIVERS                     #
                #        Core code/Algorithms in most modules           #
                #                                                       #
                #        Max Planck Institute fuer Kohlenforschung      #
                #                Kaiser Wilhelm Platz 1                 #
                #                 D-45470 Muelheim/Ruhr                 #
                #                      Germany                          #
                #                                                       #
                #                  All rights reserved                  #
                #                        -***-                          #
                #########################################################


                         Program Version 6.1.0  -  RELEASE   -
                                (GIT: $679e74b$)
                          ($2025-06-10 18:02:51 +0200$)


 With contributions from (in alphabetic order):
[Max-Planck-Institut fuer Kohlenforschung]                               
  Daniel Aravena         : Magnetic Suceptibility                        
  Michael Atanasov       : Ab Initio Ligand Field Theory (pilot matlab implementation)
  Alexander A. Auer      : GIAO ZORA, VPT2 properties, NMR spectrum      
  Ute Becker             : All parallelization in ORCA, NUMFREQ, NUMCALC 
  Giovanni Bistoni       : ED, misc. LED, open-shell LED, HFLD           
  Dmytro Bykov           : pre 5.0 version of the SCF Hessian            
  Marcos Casanova-Páez   : Triplet and SCS-CIS(D). UHF-(DLPNO)-IP/EA/STEOM-CCSD. UHF-CVS-IP/STEOM-CCSD   
  Vijay G. Chilkuri      : MRCI spin determinant printing, contributions to CSF-ICE 
  Pauline Colinet        : FMM embedding                                 
  Dipayan Datta          : RHF DLPNO-CCSD density                        
  Achintya Kumar Dutta   : EOM-CC, STEOM-CC                              
  Nicolas Foglia         : Exact transition moments, OPA infrastructure, MCD improvements    
  Dmitry Ganyushin       : Spin-Orbit,Spin-Spin,Magnetic field MRCI      
  Miquel Garcia-Rates    : C-PCM and meta-GGA Hessian, CCSD/C-PCM, Gaussian charge scheme 
  Tiago L. C. Gouveia    : GS-ROHF, GS-ROCIS                             
  Yang Guo               : DLPNO-NEVPT2, F12-NEVPT2, CIM, IAO-localization        
  Andreas Hansen         : Spin unrestricted coupled pair/coupled cluster methods 
  Ingolf Harden          : AUTO-CI MPn and infrastructure                
  Benjamin Helmich-Paris : MC-RPA, TRAH-(SCF,CASSCF), AVAS, COSX integrals, SCF dyn. polar., MC-PDFT, srDFT 
  Lee Huntington         : MR-EOM, pCC                                   
  Robert Izsak           : Overlap fitted RIJCOSX, COSX-SCS-MP3, EOM     
  Riya Kayal             : Wick's Theorem for AUTO-CI, AUTO-CI UHF-CCSDT 
  Emily Kempfer          : AUTO-CI RHF CISDT and CCSDT, approximate NEVPT4
  Christian Kollmar      : KDIIS, OOCD, Brueckner-CCSD(T), CCSD density, CASPT2, CASPT2-K, improved NEVPT2 
  Axel Koslowski         : Symmetry handling                             
  Simone Kossmann        : meta-GGA functionals, TD-DFT gradient, OOMP2, (MP2 Hessian; deprecated post 5.0) 
  Lucas Lang             : DCDCAS, Hyperfine gauge corrections, ICE-SOC+SSC
  Marvin Lechner         : AUTO-CI (C++ implementation), FIC-MRCC        
  Spencer Leger          : CASSCF response                               
  Dagmar Lenk            : GEPOL surface, SMD, ORCA-2-JSON               
  Dimitrios Liakos       : Extrapolation schemes; Compound Job, Property file
  Dimitrios Manganas     : Further ROCIS development; embedding schemes. LFT, Crystal Embedding 
  Dimitrios Pantazis     : SARC Basis sets                               
  Anastasios Papadopoulos: AUTO-CI, single reference methods and gradients 
  Taras Petrenko         : pre 6.0 DFT Hessian and TD-DFT gradient,  ECA, NRVS 
  Petra Pikulova         : Analytic Raman intensities                    
  Peter Pinski           : DLPNO-MP2, DLPNO-MP2 Gradient                 
  Shashank Vittal Rao    : ES-AILFT, MagRelax                            
  Christoph Reimann      : Effective Core Potentials                     
  Marius Retegan         : Local ZFS, SOC                                
  Christoph Riplinger    : Optimizer, TS searches, QM/MM, DLPNO-CCSD(T), (RO)-DLPNO pert. Triples 
  Michael Roemelt        : Original ROCIS implementation, recursive CI coupling coefficients
  Masaaki Saitow         : Open-shell DLPNO-CCSD energy and density      
  Barbara Sandhoefer     : DKH picture change effects                    
  Yorick L. A. Schmerwitz: GMF and freeze-and-release deltaSCF, NEB S-IDPP initial path                    
  Kantharuban Sivalingam : CASSCF convergence/infrastructure, NEVPT2, NEVPT3, NEVPT4(SD), FIC-MRCI and CEPA variants
  Bernardo de Souza      : ESD, SOC TD-DFT                               
  Georgi L. Stoychev     : AutoAux, RI-MP2 NMR, DLPNO-MP2 response, X2C  
  Van Anh Tran           : RI-MP2 g-tensors                              
  Willem Van den Heuvel  : Paramagnetic NMR                              
  Zikuan Wang            : NOTCH, Electric field optimization            
  Frank Wennmohs         : Technical directorship and infrastructure     
  Hang Xu                : AUTO-CI-Response properties                   
                                                                         
[FACCTs GmbH]                                                            
  Markus Bursch, Nicolas Foglia, Miquel Garcia-Rates, Ingolf Harden, Hagen Neugebauer, Anastasios Papadopoulos, 
  Christoph Riplinger, Bernardo de Souza, Georgi L. Stoychev                                                    
                                                                 
  APM, various basis sets, CI-OPT, improved COSX, DLPNO-Multilevel,           
  DOCKER, DRACO, updates on ESD, Fragmentator, GOAT, IRC, LR-CPCM, L-BFGS, MBIS, meta-GGA TD-DFT gradient, ML-optimized integration grids, 
  MM, NACMEs, nearIR, NEB, NEB-TS, NL-DFT gradient (VV10), 2- and 3-layer-ONIOM, interface openCOSMO-RS, QMMM,   
  Crystal-QMMM, RESP, rigid body optimization, SF, symmetry and pop. for TD-DFT, various functionals, SOLVATOR                                   
                                                                         
[Other institutions]                                                     
  V. Asgeirsson          : NEB                                           
  Christoph Bannwarth    : sTDA-DFT, sTD-DFT, PBEh-3c, B97-3c, D3        
  Giovanni Bistoni       : ETS/NOCV, ADLD/ADEX, COVALED                  
  Martin Brehm           : Molecular dynamics                            
  Ronald Cardenas        : ETS/NOCV                                      
  Martina Colucci        : COVALED                                       
  Sebastian Ehlert       : rSCAN, r2SCAN, r2SCAN-3c, D4, dhf basis sets  
  Marvin Friede          : D4 for Fr, Ra, Ac-Lr                          
  Lars Goerigk           : TD-DFT with DH, B97 family of functionals     
  Stefan Grimme          : VdW corrections, initial TS optimization, DFT functionals, gCP, sTDA/sTD-DF 
  Waldemar Hujo          : DFT-NL                                        
  H. Jonsson             : NEB                                           
  Holger Kruse           : gCP                                           
  Marcel Mueller         : wB97X-3c, vDZP basis set                      
  Hagen Neugebauer       : wr2SCAN, Native XTB                           
  Gianluca Regni         : ADLD/ADEX                                     
  Tobias Risthaus        : pre 6.0 range-separated hybrid DFT and stability analysis
  Lukas Wittmann         : regularized MP2, r2SCAN double-hybrids, wr2SCAN        
                                                                         
We gratefully acknowledge several colleagues who have allowed us to      
interface, adapt or use parts of their codes:                            
  Ed Valeev, F. Pavosevic, A. Kumar             : LibInt (2-el integral package), F12 methods 
  Garnet Chan, S. Sharma, J. Yang, R. Olivares  : DMRG                   
  Ulf Ekstrom                                   : XCFun DFT Library      
  Mihaly Kallay                                 : mrcc  (arbitrary order and MRCC methods)
  Frank Weinhold                                : gennbo (NPA and NBO analysis)           
  Simon Mueller                                 : openCOSMO-RS                            
  Christopher J. Cramer and Donald G. Truhlar   : smd solvation model                     
  S Lehtola, MJT Oliveira, MAL Marques          : LibXC Library                           
  Liviu Ungur et al                             : ANISO software                          


 Your calculation uses the libint2 library for the computation of 2-el integrals
 For citations please refer to: http://libint.valeyev.net

 Your ORCA version has been built with support for libXC version: 7.0.0
 For citations please refer to: https://libxc.gitlab.io

 This ORCA versions uses:
   CBLAS   interface :  Fast vector & matrix operations
   LAPACKE interface :  Fast linear algebra routines
   SCALAPACK package :  Parallel linear algebra routines
   Shared memory     :  Shared parallel matrices
   BLAS/LAPACK       :  OpenBLAS 0.3.29  USE64BITINT DYNAMIC_ARCH NO_AFFINITY Bulldozer SINGLE_THREADED
        Core in use  :  Bulldozer
   Copyright (c) 2011-2014, The OpenBLAS Project


  ***********************************
  * Starting time: Thu Aug 14 16:42:11 2025
  * Host name:     chromium05
  * Process ID:    312433
  * Working dir.:  /local/scratch/mehlhorn/61921
  ***********************************



***************************************
The coordinates will be read from file: start.xyz
***************************************


Your calculation utilizes the atom-pairwise dispersion correction
with the Becke-Johnson damping scheme (D3BJ)


Warning: RI is on but no J-basis has been assigned. Assigning Def2/J (nothing to worry about!)
================================================================================

----- Orbital basis set information -----
Your calculation utilizes the basis: def2-SV(P)
   F. Weigend and R. Ahlrichs, Phys. Chem. Chem. Phys. 7, 3297 (2005).

----- AuxJ basis set information -----
Your calculation utilizes the auxiliary basis: def2/J
   H-Rn: F. Weigend, Phys. Chem. Chem. Phys. 8, 1057 (2006).
   Fr-Lr: K. Eichkorn, F. Weigend, O. Treutler, R. Ahlrichs; Theor. Chem. Acc. 97, 119 (1997).

================================================================================
                                        WARNINGS
                       Please study these warnings very carefully!
================================================================================


WARNING: Gradients are needed
  ===> : At least TightSCF should be used for SCF convergence

WARNING: Geometry Optimization
  ===> : Switching off AutoStart
         For restart on a previous wavefunction, please use MOREAD

================================================================================
                                       INPUT FILE
================================================================================
NAME = run.inp
|  1> # Geometry optimization for (AlH3)n cluster
|  2> 
|  3> %pal nprocs 24  end
|  4> 
|  5> %geom MaxIter 500 end
|  6> 
|  7> 
|  8> ! PBE def2-SV(P)
|  9> ! RKS	# closed shell for AlH3
| 10> ! D3    #  dispersion correction
| 11> ! Freq 	# Frequency analysis to check the stabiltity of the structures
| 12> 
| 13> ! NoPop # population analysis not necessary	
| 14> 
| 15> ! RI
| 16> ! DEFGRID2
| 17> ! NormalSCF
| 18> ! SloppyOpt
| 19> 
| 20> ! SmallPrint
| 21> 
| 22> 
| 23> * xyzFile 0 1 start.xyz # only maingroup elements H and Al so there should be no net spin
| 24> 
| 25>                          ****END OF INPUT****
================================================================================

                       *****************************
                       * Geometry Optimization Run *
                       *****************************

Geometry optimization settings:
Update method            Update   .... BFGS
Choice of coordinates    CoordSys .... (2022) Redundant Internals
Initial Hessian          InHess   .... Almloef's Model
Max. no of cycles        MaxIter  .... 500

Convergence Tolerances:
Energy Change            TolE     ....  8.0000e-05 Eh
Max. Gradient            TolMAXG  ....  5.0000e-03 Eh/bohr
RMS Gradient             TolRMSG  ....  1.0000e-03 Eh/bohr
Max. Displacement        TolMAXD  ....  3.0000e-02 bohr
RMS Displacement         TolRMSD  ....  2.0000e-02 bohr
Strict Convergence                .... False

------------------------------------------------------------------------------
                        ORCA OPTIMIZATION COORDINATE SETUP
------------------------------------------------------------------------------

The optimization will be done in redundant internal coordinates (2022)
Making redundant internal coordinates   ...  (2022 redundants) done
Evaluating the initial hessian          ...  (Almloef) done
Evaluating the coordinates              ...  done
Calculating the B-matrix                .... done
Calculating the G-matrix                .... done
The number of degrees of freedom        ....   51

    -----------------------------------------------------------------
                    Redundant Internal Coordinates


    -----------------------------------------------------------------
         Definition                    Initial Value    Approx d2E/dq
    -----------------------------------------------------------------
      1. B(Al  1,Al  0)                  2.0686         2.536518   
      2. B(H   2,Al  0)                  1.7084         0.260226   
      3. B(H   2,Al  1)                  1.7079         0.260736   
      4. B(H   3,Al  1)                  1.5995         0.388294   
      5. B(H   4,Al  1)                  1.7084         0.260280   
      6. B(H   4,Al  0)                  1.7077         0.260952   
      7. B(H   5,Al  0)                  1.6003         0.387190   
      8. B(H   6,Al  0)                  1.6004         0.386937   
      9. B(H   7,Al  1)                  1.6001         0.387411   
     10. A(H   2,Al  0,H   5)          110.5729         0.354926   
     11. A(Al  1,Al  0,H   5)          126.3115         0.632094   
     12. A(H   4,Al  0,H   6)          110.5532         0.355054   
     13. A(H   4,Al  0,H   5)          110.5741         0.355094   
     14. A(Al  1,Al  0,H   4)           52.7466         0.585694   
     15. A(H   2,Al  0,H   4)          105.4601         0.332206   
     16. A(Al  1,Al  0,H   2)           52.7229         0.585381   
     17. A(H   5,Al  0,H   6)          109.0923         0.379908   
     18. A(H   2,Al  0,H   6)          110.5573         0.354886   
     19. A(Al  1,Al  0,H   6)          124.5963         0.632014   
     20. A(H   4,Al  1,H   7)          110.5367         0.354972   
     21. A(H   2,Al  1,H   3)          110.5609         0.355215   
     22. A(H   3,Al  1,H   4)          110.5514         0.355110   
     23. A(Al  0,Al  1,H   2)           52.7464         0.585601   
     24. A(H   2,Al  1,H   4)          105.4527         0.332172   
     25. A(Al  0,Al  1,H   4)           52.7156         0.585404   
     26. A(Al  0,Al  1,H   3)          124.5946         0.632444   
     27. A(Al  0,Al  1,H   7)          126.2405         0.632164   
     28. A(H   2,Al  1,H   7)          110.5392         0.355078   
     29. A(H   3,Al  1,H   7)          109.1650         0.380176   
     30. A(Al  0,H   2,Al  1)           74.5306         0.332160   
     31. A(Al  0,H   4,Al  1)           74.5378         0.332217   
     32. D(H   4,Al  1,Al  0,H   2)   -178.7212         0.010000   
     33. D(H   3,Al  1,Al  0,H   4)    -90.6221         0.010000   
     34. D(H   3,Al  1,Al  0,H   2)     90.6567         0.010000   
     35. D(H   2,Al  1,Al  0,H   6)    -90.6343         0.010000   
     36. D(H   3,Al  1,Al  0,H   5)   -179.9924         0.010000   
     37. D(H   3,Al  1,Al  0,H   6)      0.0224         0.010000   
     38. D(H   2,Al  1,Al  0,H   5)     89.3509         0.010000   
     39. D(H   2,Al  1,Al  0,H   4)    178.7212         0.010000   
     40. D(Al  0,H   2,Al  1,H   7)    120.5437         0.010000   
     41. D(Al  0,H   2,Al  1,H   4)      1.0556         0.010000   
     42. D(Al  0,H   2,Al  1,H   3)   -118.4615         0.010000   
     43. D(Al  1,H   2,Al  0,H   6)    118.4656         0.010000   
     44. D(Al  1,H   2,Al  0,H   5)   -120.6109         0.010000   
     45. D(Al  1,H   2,Al  0,H   4)     -1.0560         0.010000   
     46. D(Al  1,H   4,Al  0,H   2)      1.0557         0.010000   
     47. D(Al  0,H   4,Al  1,H   7)   -120.5458         0.010000   
     48. D(Al  0,H   4,Al  1,H   3)    118.4673         0.010000   
     49. D(Al  0,H   4,Al  1,H   2)     -1.0560         0.010000   
     50. D(Al  1,H   4,Al  0,H   6)   -118.4687         0.010000   
     51. D(Al  1,H   4,Al  0,H   5)    120.6098         0.010000   
    -----------------------------------------------------------------

Number of atoms                         .... 8
Number of degrees of freedom            .... 51


         *************************************************************
         *                GEOMETRY OPTIMIZATION CYCLE   1            *
         *************************************************************
---------------------------------
CARTESIAN COORDINATES (ANGSTROEM)
---------------------------------
  Al     0.000000   -0.000000    2.068600
  Al     0.000000    0.000000    0.000000
  H      1.358660   -0.045440    1.033860
  H     -0.059090   -1.315350   -0.908130
  H     -1.357130    0.075740    1.034880
  H      0.057700    1.288210    3.016230
  H     -0.058610   -1.316130    2.977310
  H      0.057230    1.289280   -0.945940

----------------------------
CARTESIAN COORDINATES (A.U.)
----------------------------
  NO LB      ZA    FRAG     MASS         X           Y           Z
   0 Al   13.0000    0    26.982    0.000000   -0.000000    3.909087
   1 Al   13.0000    0    26.982    0.000000    0.000000    0.000000
   2 H     1.0000    0     1.008    2.567495   -0.085869    1.953712
   3 H     1.0000    0     1.008   -0.111664   -2.485651   -1.716117
   4 H     1.0000    0     1.008   -2.564604    0.143128    1.955640
   5 H     1.0000    0     1.008    0.109037    2.434364    5.699849
   6 H     1.0000    0     1.008   -0.110757   -2.487125    5.626301
   7 H     1.0000    0     1.008    0.108149    2.436386   -1.787568

--------------------------------
INTERNAL COORDINATES (ANGSTROEM)
--------------------------------
 Al     0   0   0     0.000000000000     0.00000000     0.00000000
 Al     1   0   0     2.068600000000     0.00000000     0.00000000
 H      2   1   0     1.707890010744    52.74644099     0.00000000
 H      2   1   3     1.599480336703   124.59456454    90.65666491
 H      1   2   3     1.707663732384    52.74656846   178.72122351
 H      1   2   3     1.600255264325   126.31145359    89.35091558
 H      1   2   3     1.600433432886   124.59625477   269.36571185
 H      2   1   3     1.600100207768   126.24046790   270.62611338

---------------------------
INTERNAL COORDINATES (A.U.)
---------------------------
 Al     0   0   0     0.000000000000     0.00000000     0.00000000
 Al     1   0   0     3.909087480630     0.00000000     0.00000000
 H      2   1   0     3.227444387166    52.74644099     0.00000000
 H      2   1   3     3.022579792961   124.59456454    90.65666491
 H      1   2   3     3.227016783036    52.74656846   178.72122351
 H      1   2   3     3.024044193940   126.31145359    89.35091558
 H      1   2   3     3.024380883726   124.59625477   269.36571185
 H      2   1   3     3.023751179512   126.24046790   270.62611338

---------------------
BASIS SET INFORMATION
---------------------
There are 2 groups of distinct atoms

 Group   1 Type Al  : 10s7p1d contracted to 4s3p1d pattern {5311/511/1}
 Group   2 Type H   : 4s contracted to 2s pattern {31}

Atom   0Al   basis set group =>   1
Atom   1Al   basis set group =>   1
Atom   2H    basis set group =>   2
Atom   3H    basis set group =>   2
Atom   4H    basis set group =>   2
Atom   5H    basis set group =>   2
Atom   6H    basis set group =>   2
Atom   7H    basis set group =>   2
---------------------------------
AUXILIARY/J BASIS SET INFORMATION
---------------------------------
There are 2 groups of distinct atoms

 Group   1 Type Al  : 14s5p5d2f1g contracted to 8s4p3d1f1g pattern {71111111/2111/311/2/1}
 Group   2 Type H   : 5s2p1d contracted to 3s1p1d pattern {311/2/1}

Atom   0Al   basis set group =>   1
Atom   1Al   basis set group =>   1
Atom   2H    basis set group =>   2
Atom   3H    basis set group =>   2
Atom   4H    basis set group =>   2
Atom   5H    basis set group =>   2
Atom   6H    basis set group =>   2
Atom   7H    basis set group =>   2


           ************************************************************
           *        Program running with 24 parallel MPI-processes    *
           *              working on a common directory               *
           ************************************************************
------------------------------------------------------------------------------
                             ORCA STARTUP CALCULATIONS
                           -- RI-GTO INTEGRALS CHOSEN --
------------------------------------------------------------------------------
------------------------------------------------------------------------------
                   ___                                                        
                  /   \      - P O W E R E D   B Y -                         
                 /     \                                                     
                 |  |  |   _    _      __       _____    __    __             
                 |  |  |  | |  | |    /  \     |  _  \  |  |  /  |          
                  \  \/   | |  | |   /    \    | | | |  |  | /  /          
                 / \  \   | |__| |  /  /\  \   | |_| |  |  |/  /          
                |  |  |   |  __  | /  /__\  \  |    /   |      \           
                |  |  |   | |  | | |   __   |  |    \   |  |\   \          
                \     /   | |  | | |  |  |  |  | |\  \  |  | \   \       
                 \___/    |_|  |_| |__|  |__|  |_| \__\ |__|  \__/        
                                                                              
                      - O R C A' S   B I G   F R I E N D -                    
                                      &                                       
                       - I N T E G R A L  F E E D E R -                       
                                                                              
 v1 FN, 2020, v2 2021, v3 2022-2024                                           
------------------------------------------------------------------------------


----------------------
SHARK INTEGRAL PACKAGE
----------------------

Number of atoms                             ...      8
Number of basis functions                   ...     48
Number of shells                            ...     28
Maximum angular momentum                    ...      2
Integral batch strategy                     ... SHARK/LIBINT Hybrid
RI-J (if used) integral strategy            ... SPLIT-RIJ (Revised 2003 algorithm where possible)
Printlevel                                  ...      1
Contraction scheme used                     ... SEGMENTED contraction
Prescreening option                         ... SCHWARTZ
   Thresh                                   ... 1.000e-10
   Tcut                                     ... 1.000e-11
   Tpresel                                  ... 1.000e-11 
Coulomb Range Separation                    ... NOT USED
Exchange Range Separation                   ... NOT USED
Multipole approximations                    ... NOT USED
Finite Nucleus Model                        ... NOT USED
CABS basis                                  ... NOT available
Auxiliary Coulomb fitting basis             ... AVAILABLE
   # of basis functions in Aux-J            ...    168
   # of shells in Aux-J                     ...     64
   Maximum angular momentum in Aux-J        ...      4
Auxiliary J/K fitting basis                 ... NOT available
Auxiliary Correlation fitting basis         ... NOT available
Auxiliary 'external' fitting basis          ... NOT available

Checking pre-screening integrals            ... done (  0.0 sec) Dimension = 28
   => SHARK Basis and OBASIS are compatible. Storing Pre-screening
Shell pair information
Shell pair cut-off parameter TPreSel        ...   1.0e-11
Total number of shell pairs                 ...       406
Shell pairs after pre-screening             ...       405
Total number of primitive shell pairs       ...      1894
Primitive shell pairs kept                  ...      1531
          la=0 lb=0:    209 shell pairs
          la=1 lb=0:    120 shell pairs
          la=1 lb=1:     21 shell pairs
          la=2 lb=0:     40 shell pairs
          la=2 lb=1:     12 shell pairs
          la=2 lb=2:      3 shell pairs

Checking whether 4 symmetric matrices of dimension 48 fit in memory
:Max Core in MB      =   4096.00
 MB in use           =      3.77
 MB left             =   4092.23
 MB needed           =      0.04
 Data fit in memory  = YES
Calculating RI/J V-Matrix + Cholesky decomp.... done (  0.0 sec)
Calculating Nuclear repulsion               ... done (  0.0 sec) ENN=     87.613124514475 Eh

Diagonalization of the overlap matrix:
Smallest eigenvalue                        ... 6.427e-03
Time for diagonalization                   ...    0.017 sec
Threshold for overlap eigenvalues          ... 1.000e-07
Number of eigenvalues below threshold      ... 0
Time for construction of square roots      ...    0.001 sec
Total time needed                          ...    0.047 sec

-------------------
DFT GRID GENERATION
-------------------

General Integration Accuracy     IntAcc      ... 4.388
Radial Grid Type                 RadialGrid  ... OptM3 with GC (2021)
Angular Grid (max. ang.)         AngularGrid ... 4 (Lebedev-302)
Angular grid pruning method      GridPruning ... 4 (adaptive)
Weight generation scheme         WeightScheme... mBecke (2022)
Basis function cutoff            BFCut       ... 1.0000e-10
Integration weight cutoff        WCut        ... 1.0000e-14
Partially contracted basis set               ... off
Rotationally invariant grid construction     ... off
Angular grids for H and He will be reduced by one unit

Total number of grid points                  ...    34270
Total number of batches                      ...      540
Average number of points per batch           ...       63
Average number of grid points per atom       ...     4284
Grids setup in   0.5 sec
Initializing property integral containers    ... done (  0.0 sec)

SHARK setup successfully completed in   0.8 seconds

Maximum memory used throughout the entire STARTUP-calculation: 10.1 MB


           ************************************************************
           *        Program running with 24 parallel MPI-processes    *
           *              working on a common directory               *
           ************************************************************
-------------------------------------------------------------------------------
                                 ORCA GUESS
                   Start orbitals & Density for SCF / CASSCF
-------------------------------------------------------------------------------

------------
SCF SETTINGS
------------
Hamiltonian:
 Density Functional     Method          .... DFT(GTOs)
 Exchange Functional    Exchange        .... PBE
   PBE kappa parameter   XKappa         ....  0.804000
   PBE mue parameter    XMuePBE         ....  0.219520
 Correlation Functional Correlation     .... PBE
   PBE beta parameter  CBetaPBE         ....  0.066725
 LDA part of GGA corr.  LDAOpt          .... PW91-LDA
 Gradients option       PostSCFGGA      .... off
   NL short-range parameter             ....  6.400000
 RI-approximation to the Coulomb term is turned on
   Number of AuxJ basis functions       .... 168


General Settings:
 Integral files         IntName         .... run
 Hartree-Fock type      HFTyp           .... RHF
 Total Charge           Charge          ....    0
 Multiplicity           Mult            ....    1
 Number of Electrons    NEL             ....   32
 Basis Dimension        Dim             ....   48
 Nuclear Repulsion      ENuc            ....     87.6131245145 Eh

Convergence Acceleration:
 AO-DIIS                CNVDIIS         .... on
   Start iteration      DIISMaxIt       ....    12
   Startup error        DIISStart       ....  0.200000
   # of expansion vecs  DIISMaxEq       ....     5
   Bias factor          DIISBfac        ....   1.050
   Max. coefficient     DIISMaxC        ....  10.000
 MO-DIIS                CNVKDIIS        .... off
 Trust-Rad. Augm. Hess. CNVTRAH         .... auto
   Auto Start mean grad. ratio tolernc. ....  1.125000
   Auto Start start iteration           ....    50
   Auto Start num. interpolation iter.  ....    10
   Max. Number of Micro iterations      ....    24
   Max. Number of Macro iterations      .... Maxiter - #DIIS iter
   Number of Davidson start vectors     ....     2
   Converg. threshold    (grad. norm)   ....   5.000e-05
   Grad. Scal. Fac. for Micro threshold ....   0.100
   Minimum threshold for Micro iter.    ....   1.000e-02
   NR start threshold (gradient norm)   ....   1.000e-04
   Initial trust radius                 ....   0.400
   Minimum AH scaling param. (alpha)    ....   1.000
   Maximum AH scaling param. (alpha)    .... 1000.000
   Quad. conv. algorithm                .... NR
   White noise on init. David. guess    .... on
   Maximum white noise                  ....   0.010
   Pseudo random numbers                .... off
   Inactive MOs                         .... canonical
   Orbital update algorithm             .... Taylor
   Preconditioner                       .... Diag
   Full preconditioner red. dimension   ....   250
 SOSCF                 CNVSOSCF           .... on
   Start iteration     SOSCFMaxIt         ....   150
   Startup grad/error  SOSCFStart         ....  0.003300
   Hessian update      SOSCFHessUp        .... L-BFGS
   Autom. constraints  SOSCFAutoConstrain .... off
 Level Shifting         CNVShift        .... on
   Level shift para.    LevelShift      ....    0.2500
   Turn off err/grad.   ShiftErr        ....    0.0010
 Zerner damping         CNVZerner       .... off
 Static damping         CNVDamp         .... on
   Fraction old density DampFac         ....    0.7000
   Max. Damping (<1)    DampMax         ....    0.9800
   Min. Damping (>=0)   DampMin         ....    0.0000
   Turn off err/grad.   DampErr         ....    0.1000

SCF Procedure:
 Maximum # iterations   MaxIter         ....   125
 SCF integral mode      SCFMode         .... Direct
   Integral package                     .... SHARK and LIBINT hybrid scheme
 Reset frequency        DirectResetFreq ....    20
 Integral Threshold     Thresh          ....  1.000e-10 Eh
 Primitive CutOff       TCut            ....  1.000e-11 Eh

Convergence Tolerance:
 Convergence Check Mode ConvCheckMode   .... Total+1el-Energy
 Convergence forced     ConvForced      .... 0
 Energy Change          TolE            ....  1.000e-06 Eh
 1-El. energy change                    ....  1.000e-03 Eh
 Orbital Gradient       TolG            ....  5.000e-05
 Orbital Rotation angle TolX            ....  5.000e-05
 DIIS Error             TolErr          ....  1.000e-05

------------------------------
INITIAL GUESS: MODEL POTENTIAL
------------------------------
Loading Hartree-Fock densities                     ... done
Calculating cut-offs                               ... done
Initializing the effective Hamiltonian             ... done
Setting up the integral package (SHARK)            ... done
Starting the Coulomb interaction                   ... done (   0.0 sec)
Making the grid                                    ... done (   0.1 sec)
Mapping shells                                     ... done
Starting the XC term evaluation                    ... done (   0.0 sec)
  promolecular density results
     # of electrons  =     31.997950220
     EX              =    -37.842758514
     EC              =     -1.100938553
     EX+EC           =    -38.943697067
Transforming the Hamiltonian                       ... done (   0.0 sec)
Diagonalizing the Hamiltonian                      ... done (   0.0 sec)
Back transforming the eigenvectors                 ... done (   0.0 sec)
Now organizing SCF variables                       ... done
                      ------------------
                      INITIAL GUESS DONE (   0.2 sec)
                      ------------------
             **** ENERGY FILE WAS UPDATED (run.en.tmp) ****
Finished Guess after   0.8 sec
Maximum memory used throughout the entire GUESS-calculation: 5.9 MB


           ************************************************************
           *        Program running with 24 parallel MPI-processes    *
           *              working on a common directory               *
           ************************************************************

-------------------------------------------------------------------------------------------
                                      ORCA LEAN-SCF
                              memory conserving SCF solver
-------------------------------------------------------------------------------------------

----------------------------------------D-I-I-S--------------------------------------------
Iteration    Energy (Eh)           Delta-E    RMSDP     MaxDP     DIISErr   Damp  Time(sec)
-------------------------------------------------------------------------------------------
               ***  Starting incremental Fock matrix formation  ***
    1    -487.8849716107280301     0.00e+00  2.05e-02  3.33e-02  6.30e-02  0.700   0.2
    2    -487.8936884394772733    -8.72e-03  2.02e-02  2.80e-02  4.30e-02  0.700   0.1
                               ***Turning on AO-DIIS***
    3    -487.8991957459579680    -5.51e-03  1.20e-02  1.43e-02  2.54e-02  0.700   0.1
    4    -487.9023887647676929    -3.19e-03  2.38e-02  2.83e-02  1.64e-02  0.000   0.1
                              *** Initializing SOSCF ***
---------------------------------------S-O-S-C-F--------------------------------------
Iteration    Energy (Eh)           Delta-E    RMSDP     MaxDP     MaxGrad    Time(sec)
--------------------------------------------------------------------------------------
    5    -487.9086805651683107    -6.29e-03  2.51e-03  3.50e-03  1.34e-03     0.1
               *** Restarting incremental Fock matrix formation ***
    6    -487.9087025729021434    -2.20e-05  1.79e-03  2.56e-03  4.80e-04     0.1
    7    -487.9087042069273821    -1.63e-06  5.83e-04  8.26e-04  3.60e-04     0.1
    8    -487.9087055156377346    -1.31e-06  2.03e-04  4.02e-04  6.35e-05     0.1
    9    -487.9087055659616681    -5.03e-08  8.31e-05  1.29e-04  3.42e-05     0.1
                 **** Energy Check signals convergence ****

               *****************************************************
               *                     SUCCESS                       *
               *           SCF CONVERGED AFTER   9 CYCLES          *
               *****************************************************

             **** ENERGY FILE WAS UPDATED (run.en.tmp) ****

----------------
TOTAL SCF ENERGY
----------------

Total Energy       :       -487.90870558766005 Eh          -13276.67085 eV

Components:
Nuclear Repulsion  :         87.61312451447523 Eh            2384.07432 eV
Electronic Energy  :       -575.52183010213525 Eh          -15660.74517 eV
One Electron Energy:       -851.07175449797944 Eh          -23158.83981 eV
Two Electron Energy:        275.54992439584419 Eh            7498.09464 eV

Virial components:
Potential Energy   :       -974.59890109047319 Eh          -26520.18436 eV
Kinetic Energy     :        486.69019550281320 Eh           13243.51351 eV
Virial Ratio       :          2.00250366680099

DFT components:
N(Alpha)           :       16.000008776562 electrons
N(Beta)            :       16.000008776562 electrons
N(Total)           :       32.000017553125 electrons
E(X)               :      -38.115206974793 Eh       
E(C)               :       -1.099846396837 Eh       
E(XC)              :      -39.215053371630 Eh       

---------------
SCF CONVERGENCE
---------------

  Last Energy change         ...    5.0324e-08  Tolerance :   1.0000e-06
  Last MAX-Density change    ...    1.2884e-04  Tolerance :   1.0000e-05
  Last RMS-Density change    ...    8.3110e-05  Tolerance :   1.0000e-06
  Last DIIS Error            ...    1.3399e-03  Tolerance :   1.0000e-05
  Last Orbital Gradient      ...    3.4248e-05  Tolerance :   5.0000e-05
  Last Orbital Rotation      ...    4.8852e-05  Tolerance :   5.0000e-05


----------------
ORBITAL ENERGIES
----------------

  NO   OCC          E(Eh)            E(eV) 
   0   2.0000     -55.383856     -1507.0713 
   1   2.0000     -55.383632     -1507.0652 
   2   2.0000      -3.951426      -107.5238 
   3   2.0000      -3.950099      -107.4877 
   4   2.0000      -2.560675       -69.6795 
   5   2.0000      -2.558387       -69.6172 
   6   2.0000      -2.557538       -69.5941 
   7   2.0000      -2.553616       -69.4874 
   8   2.0000      -2.551965       -69.4425 
   9   2.0000      -2.551216       -69.4221 
  10   2.0000      -0.509872       -13.8743 
  11   2.0000      -0.382236       -10.4012 
  12   2.0000      -0.345073        -9.3899 
  13   2.0000      -0.295673        -8.0457 
  14   2.0000      -0.281813        -7.6685 
  15   2.0000      -0.255317        -6.9475 
  16   0.0000      -0.076773        -2.0891 
  17   0.0000      -0.056951        -1.5497 
  18   0.0000      -0.052223        -1.4211 
  19   0.0000       0.021262         0.5786 
  20   0.0000       0.025452         0.6926 
  21   0.0000       0.035350         0.9619 
  22   0.0000       0.077113         2.0983 
  23   0.0000       0.102746         2.7959 
  24   0.0000       0.111698         3.0395 
  25   0.0000       0.172198         4.6857 
  26   0.0000       0.205904         5.6029 
*Only the first 10 virtual orbitals were printed.
-------
TIMINGS
-------

Total SCF time: 0 days 0 hours 0 min 1 sec 

Total time                  ....       1.510 sec
Sum of individual times     ....       1.383 sec  ( 91.6%)

SCF preparation             ....       0.592 sec  ( 39.2%)
Fock matrix formation       ....       0.571 sec  ( 37.8%)
  Startup                   ....       0.007 sec  (  1.3% of F)
  Split-RI-J                ....       0.146 sec  ( 25.5% of F)
  XC integration            ....       0.379 sec  ( 66.4% of F)
    XC Preparation          ....       0.000 sec  (  0.0% of XC)
    Basis function eval.    ....       0.060 sec  ( 15.7% of XC)
    Density eval.           ....       0.023 sec  (  6.0% of XC)
    XC-Functional eval.     ....       0.018 sec  (  4.8% of XC)
    XC-Potential eval.      ....       0.024 sec  (  6.3% of XC)
Diagonalization             ....       0.000 sec  (  0.0%)
Density matrix formation    ....       0.043 sec  (  2.9%)
Total Energy calculation    ....       0.020 sec  (  1.3%)
Population analysis         ....       0.000 sec  (  0.0%)
Orbital Transformation      ....       0.015 sec  (  1.0%)
Orbital Orthonormalization  ....       0.000 sec  (  0.0%)
DIIS solution               ....       0.088 sec  (  5.8%)
SOSCF solution              ....       0.053 sec  (  3.5%)
Finished LeanSCF after   1.5 sec

Maximum memory used throughout the entire LEANSCF-calculation: 4.6 MB


           ************************************************************
           *        Program running with 24 parallel MPI-processes    *
           *              working on a common directory               *
           ************************************************************

------------------------------------------------------------------------------
                         ORCA PROPERTY INTEGRAL CALCULATIONS
------------------------------------------------------------------------------

GBWName                                   ... run.gbw
Number of atoms                           ...      8
Number of basis functions                 ...     48
Max core memory                           ...   4096 MB

Dipole integrals                          ... YES
Quadrupole integrals                      ...  NO
Linear momentum integrals                 ...  NO
Angular momentum integrals                ...  NO
Higher moments length integrals           ...  NO
Higher moments velocity integrals         ...  NO
Kinetic energy integrals                  ...  NO
GIAO right hand sides                     ...  NO
GIAO dipole derivative integrals          ...  NO
SOC integrals                             ...  NO
EPR diamagnetic integrals (GIAO)          ...  NO
EPR gauge integrals                       ...  NO
Field gradient integrals                  ...  NO (   0 nuclei)
Spin-dipole/Fermi contact integrals       ...  NO (   0 nuclei)
Contact density integrals                 ...  NO (   0 nuclei)
Nucleus-orbit integrals                   ...  NO (   0 nuclei)
Geometric perturbations                   ...  NO (   8 nuclei)

Choice of electric origin   ... Center of mass
Position of electric origin ... ( -0.0000, -0.0008,  1.9546) 
Choice of magnetic origin   ... GIAO
Position of magnetic origin ... (  0.0000,  0.0000,  0.0000) 

Calculating integrals                     ... Electric Dipole (Length)     done (  0.0 sec)

Property integrals calculated in   0.0 sec

Maximum memory used throughout the entire PROPINT-calculation: 6.1 MB


-------------------------------------------------------------------------------
                          DFT DISPERSION CORRECTION                            
                                                                               
                              DFTD3 V3.1  Rev 1                                
                          USING Becke-Johnson damping                          
-------------------------------------------------------------------------------
The PBE functional is recognized
Active option DFTDOPT                   ...         4   

molecular C6(AA) [au] = 1235.572544 


            DFT-D V3
 parameters
 s6 scaling factor         :     1.0000 
 a1 scaling factor         :     0.4289 
 s8 scaling factor         :     0.7875 
 a2 scaling factor         :     4.4407 
 ad hoc parameters k1-k3   :    16.0000     1.3333    -4.0000 

 Edisp/kcal,au: -2.923478710592  -0.004658859379 
 E6   /kcal   :  -1.864891925 
 E8   /kcal   :  -1.058586786 
 % E8         :  36.209833926 

-------------------------   ----------------
Dispersion correction           -0.004658859
-------------------------   ----------------


-------------------------   --------------------
FINAL SINGLE POINT ENERGY      -487.913364447039
-------------------------   --------------------



           ************************************************************
           *        Program running with 24 parallel MPI-processes    *
           *              working on a common directory               *
           ************************************************************
------------------------------------------------------------------------------
                         ORCA SCF GRADIENT CALCULATION
------------------------------------------------------------------------------

Nuc. rep. gradient        (SHARK) ... done (  0.0 sec)
HCore & Overlap gradient  (SHARK) ... done (  0.0 sec)
Split-RIJ-J gradient      (SHARK) ... done (  0.3 sec)
XC gradient                       ... done (  0.1 sec)
Dispersion correction             ... done (  0.1 sec)

-------------------
DISPERSION GRADIENT
-------------------

   1   Al  :    0.000000013    0.000000027    0.000151015
   2   Al  :   -0.000000000    0.000000198   -0.000150965
   3   H   :    0.000073605   -0.000002262   -0.000000059
   4   H   :   -0.000002816   -0.000062764   -0.000103527
   5   H   :   -0.000073498    0.000004301    0.000000013
   6   H   :    0.000002752    0.000061555    0.000104459
   7   H   :   -0.000002795   -0.000062663    0.000103460
   8   H   :    0.000002739    0.000061609   -0.000104394

Difference to translation invariance:
           :    0.0000000000    0.0000000000    0.0000000000

Difference to rotation invariance:
           :   -0.0000000000    0.0000000000    0.0000000000

Norm of the Dispersion gradient    ...    0.0003393411
RMS gradient                       ...    0.0000692677
MAX gradient                       ...    0.0001510151

------------------
CARTESIAN GRADIENT
------------------

   1   Al  :   -0.000072857    0.000376890   -0.151741864
   2   Al  :    0.000071946    0.000184413    0.151541012
   3   H   :    0.012741239   -0.000713638   -0.000069015
   4   H   :    0.000250992    0.005529171   -0.006280047
   5   H   :   -0.012724062    0.000423955    0.000074101
   6   H   :   -0.000255126   -0.005575458    0.006228996
   7   H   :    0.000238987    0.005354054    0.006429147
   8   H   :   -0.000251119   -0.005579388   -0.006182330

Difference to translation invariance:
           :   -0.0000000000   -0.0000000000    0.0000000000

Difference to rotation invariance:
           :    0.0000003110    0.0000002933    0.0000251284

Norm of the Cartesian gradient     ...    0.2158585041
RMS gradient                       ...    0.0440619326
MAX gradient                       ...    0.1517418635

-------
TIMINGS
-------

Total SCF gradient time     ....        0.565 sec

Densities                   ....       0.001 sec  (  0.1%)
One electron gradient       ....       0.028 sec  (  4.9%)
RI-J Coulomb gradient       ....       0.262 sec  ( 46.3%)
XC gradient                 ....       0.148 sec  ( 26.1%)

Maximum memory used throughout the entire SCFGRAD-calculation: 25.8 MB
------------------------------------------------------------------------------
                         ORCA GEOMETRY RELAXATION STEP
------------------------------------------------------------------------------

Reading the OPT-File                    .... done
Getting information on internals        .... done
Copying old internal coords+grads       .... done
Making the new internal coordinates     .... (2022 redundants) done
Validating the new internal coordinates .... (2022 redundants) done
Calculating the B-matrix                .... done
Calculating the G,G- and P matrices     .... done
Transforming gradient to internals      .... done
Projecting the internal gradient        .... done
Number of atoms                         ....   8
Number of internal coordinates          ....  51
Current Energy                          ....  -487.913364447 Eh
Current gradient norm                   ....     0.215858504 Eh/bohr
Maximum allowed component of the step   ....  0.300
Current trust radius                    ....  0.300
Evaluating the initial hessian          ....  (Almloef) done
Projecting the Hessian                  .... done
Forming the augmented Hessian           .... done
Diagonalizing the augmented Hessian     .... done
Last element of RFO vector              ....  0.993955836
Lowest eigenvalues of augmented Hessian:
 -0.009604518  0.043236019  0.064373149  0.105023886  0.138266117
Length of the computed step             ....  0.110448243
The final length of the internal step   ....  0.110448243
Converting the step to Cartesian space:
 Initial RMS(Int)=    0.0154658475
Transforming coordinates:
 Iter   0:  RMS(Cart)=    0.0180288079 RMS(Int)=    0.0154568181
done
Storing new coordinates                 .... done

                                .--------------------.
          ----------------------|Geometry convergence|-------------------------
          Item                value                   Tolerance       Converged
          ---------------------------------------------------------------------
          RMS gradient        0.0159000849            0.0010000000      NO
          MAX gradient        0.0858851345            0.0050000000      NO
          RMS step            0.0154658475            0.0200000000      YES
          MAX step            0.0513310697            0.0300000000      NO
          -------------------------------------------------------------------------
          ........................................................
          Max(Bonds)      0.0272      Max(Angles)    1.89
          Max(Dihed)        1.12      Max(Improp)    0.00
          ---------------------------------------------------------------------

The optimization has not yet converged - more geometry cycles are needed


    ---------------------------------------------------------------------------
                         Redundant Internal Coordinates
                            (Angstroem and degrees)

        Definition                    Value    dE/dq     Step     New-Value
    ----------------------------------------------------------------------------
     1. B(Al  1,Al  0)                2.0686 -0.085885  0.0272    2.0958   
     2. B(H   2,Al  0)                1.7084 -0.010983 -0.0051    1.7034   
     3. B(H   2,Al  1)                1.7079 -0.011065 -0.0049    1.7030   
     4. B(H   3,Al  1)                1.5995 -0.000991  0.0013    1.6008   
     5. B(H   4,Al  1)                1.7084 -0.011011 -0.0050    1.7033   
     6. B(H   4,Al  0)                1.7077 -0.011081 -0.0049    1.7028   
     7. B(H   5,Al  0)                1.6003 -0.000809  0.0011    1.6013   
     8. B(H   6,Al  0)                1.6004 -0.000761  0.0010    1.6014   
     9. B(H   7,Al  1)                1.6001 -0.000850  0.0011    1.6012   
    10. A(H   2,Al  0,H   5)          110.57 -0.004638   -0.17    110.40   
    11. A(Al  1,Al  0,H   5)          126.31  0.004741   -0.94    125.37   
    12. A(H   4,Al  0,H   6)          110.55 -0.004429   -0.13    110.42   
    13. A(H   4,Al  0,H   5)          110.57 -0.004614   -0.17    110.40   
    14. A(Al  1,Al  0,H   4)           52.75  0.014137   -0.70     52.04   
    15. A(H   2,Al  0,H   4)          105.46  0.028229   -1.40    104.06   
    16. A(Al  1,Al  0,H   2)           52.72  0.014094   -0.70     52.03   
    17. A(H   5,Al  0,H   6)          109.09 -0.009286    1.89    110.99   
    18. A(H   2,Al  0,H   6)          110.56 -0.004368   -0.14    110.42   
    19. A(Al  1,Al  0,H   6)          124.60  0.004545   -0.96    123.64   
    20. A(H   4,Al  1,H   7)          110.54 -0.004620   -0.17    110.37   
    21. A(H   2,Al  1,H   3)          110.56 -0.004408   -0.13    110.43   
    22. A(H   3,Al  1,H   4)          110.55 -0.004404   -0.14    110.42   
    23. A(Al  0,Al  1,H   2)           52.75  0.014141   -0.70     52.04   
    24. A(H   2,Al  1,H   4)          105.45  0.028230   -1.40    104.05   
    25. A(Al  0,Al  1,H   4)           52.72  0.014091   -0.69     52.02   
    26. A(Al  0,Al  1,H   3)          124.59  0.004529   -0.95    123.64   
    27. A(Al  0,Al  1,H   7)          126.24  0.004720   -0.93    125.31   
    28. A(H   2,Al  1,H   7)          110.54 -0.004622   -0.17    110.37   
    29. A(H   3,Al  1,H   7)          109.16 -0.009250    1.89    111.05   
    30. A(Al  0,H   2,Al  1)           74.53 -0.028235    1.40     75.93   
    31. A(Al  0,H   4,Al  1)           74.54 -0.028228    1.40     75.94   
    32. D(H   4,Al  1,Al  0,H   2)   -178.72 -0.000187    0.10   -178.62   
    33. D(H   3,Al  1,Al  0,H   4)    -90.62  0.000108   -0.05    -90.67   
    34. D(H   3,Al  1,Al  0,H   2)     90.66 -0.000078    0.05     90.70   
    35. D(H   2,Al  1,Al  0,H   6)    -90.63  0.000066   -0.05    -90.68   
    36. D(H   3,Al  1,Al  0,H   5)   -179.99 -0.000020    0.00   -179.99   
    37. D(H   3,Al  1,Al  0,H   6)      0.02 -0.000012   -0.00      0.02   
    38. D(H   2,Al  1,Al  0,H   5)     89.35  0.000058   -0.05     89.30   
    39. D(H   2,Al  1,Al  0,H   4)    178.72  0.000187   -0.10    178.62   
    40. D(Al  0,H   2,Al  1,H   7)    120.54  0.008797   -1.05    119.50   
    41. D(Al  0,H   2,Al  1,H   4)      1.06  0.000187    0.07      1.12   
    42. D(Al  0,H   2,Al  1,H   3)   -118.46 -0.008812    1.12   -117.34   
    43. D(Al  1,H   2,Al  0,H   6)    118.47  0.008802   -1.12    117.34   
    44. D(Al  1,H   2,Al  0,H   5)   -120.61 -0.008831    1.05   -119.56   
    45. D(Al  1,H   2,Al  0,H   4)     -1.06 -0.000188   -0.07     -1.12   
    46. D(Al  1,H   4,Al  0,H   2)      1.06  0.000187    0.07      1.12   
    47. D(Al  0,H   4,Al  1,H   7)   -120.55 -0.008795    1.05   -119.50   
    48. D(Al  0,H   4,Al  1,H   3)    118.47  0.008804   -1.12    117.35   
    49. D(Al  0,H   4,Al  1,H   2)     -1.06 -0.000188   -0.07     -1.12   
    50. D(Al  1,H   4,Al  0,H   6)   -118.47 -0.008841    1.12   -117.34   
    51. D(Al  1,H   4,Al  0,H   5)    120.61  0.008814   -1.05    119.56   
    ----------------------------------------------------------------------------

Geometry step timings:
Preparation and reading OPT file:      0.000 s ( 0.613 %)
Internal coordinates            :      0.000 s ( 0.613 %)
B/P matrices and projection     :      0.000 s ( 7.356 %)
Hessian update/contruction      :      0.000 s ( 4.830 %)
Making the step                 :      0.005 s (75.523 %)
Converting the step to Cartesian:      0.000 s ( 2.093 %)
Storing new data                :      0.000 s ( 0.792 %)
Checking convergence            :      0.000 s ( 0.733 %)
Final printing                  :      0.000 s ( 7.446 %)
Total time                      :      0.007 s

Time for energy+gradient        :      7.441 s
Time for complete geometry iter :      8.223 s

         *************************************************************
         *                GEOMETRY OPTIMIZATION CYCLE   2            *
         *************************************************************
---------------------------------
CARTESIAN COORDINATES (ANGSTROEM)
---------------------------------
  Al     0.000015   -0.000323    2.082206
  Al    -0.000047   -0.000292   -0.013508
  H      1.341982   -0.044021    1.033997
  H     -0.059852   -1.331631   -0.900363
  H     -1.340437    0.075695    1.034829
  H      0.058403    1.304050    3.009283
  H     -0.059259   -1.332276    2.969352
  H      0.057954    1.305110   -0.938985

----------------------------
CARTESIAN COORDINATES (A.U.)
----------------------------
  NO LB      ZA    FRAG     MASS         X           Y           Z
   0 Al   13.0000    0    26.982    0.000028   -0.000611    3.934799
   1 Al   13.0000    0    26.982   -0.000088   -0.000552   -0.025526
   2 H     1.0000    0     1.008    2.535978   -0.083188    1.953970
   3 H     1.0000    0     1.008   -0.113103   -2.516418   -1.701440
   4 H     1.0000    0     1.008   -2.533059    0.143042    1.955543
   5 H     1.0000    0     1.008    0.110367    2.464297    5.686721
   6 H     1.0000    0     1.008   -0.111983   -2.517638    5.611262
   7 H     1.0000    0     1.008    0.109517    2.466300   -1.774425

--------------------------------
INTERNAL COORDINATES (ANGSTROEM)
--------------------------------
 Al     0   0   0     0.000000000000     0.00000000     0.00000000
 Al     1   0   0     2.095713831892     0.00000000     0.00000000
 H      2   1   0     1.703002705883    52.03964238     0.00000000
 H      2   1   3     1.600797825457   123.64165499    90.70524953
 H      1   2   3     1.702818184211    52.04020859   178.62044161
 H      1   2   3     1.601333906228   125.37527614    89.30382170
 H      1   2   3     1.601449378680   123.64019634   269.31645111
 H      2   1   3     1.601232808453   125.30924787   270.67959468

---------------------------
INTERNAL COORDINATES (A.U.)
---------------------------
 Al     0   0   0     0.000000000000     0.00000000     0.00000000
 Al     1   0   0     3.960325197347     0.00000000     0.00000000
 H      2   1   0     3.218208719446    52.03964238     0.00000000
 H      2   1   3     3.025069485891   123.64165499    90.70524953
 H      1   2   3     3.217860024020    52.04020859   178.62044161
 H      1   2   3     3.026082531733   125.37527614    89.30382170
 H      1   2   3     3.026300743044   123.64019634   269.31645111
 H      2   1   3     3.025891484626   125.30924787   270.67959468



           ************************************************************
           *        Program running with 24 parallel MPI-processes    *
           *              working on a common directory               *
           ************************************************************
------------------------------------------------------------------------------
                   ___                                                        
                  /   \      - P O W E R E D   B Y -                         
                 /     \                                                     
                 |  |  |   _    _      __       _____    __    __             
                 |  |  |  | |  | |    /  \     |  _  \  |  |  /  |          
                  \  \/   | |  | |   /    \    | | | |  |  | /  /          
                 / \  \   | |__| |  /  /\  \   | |_| |  |  |/  /          
                |  |  |   |  __  | /  /__\  \  |    /   |      \           
                |  |  |   | |  | | |   __   |  |    \   |  |\   \          
                \     /   | |  | | |  |  |  |  | |\  \  |  | \   \       
                 \___/    |_|  |_| |__|  |__|  |_| \__\ |__|  \__/        
                                                                              
                      - O R C A' S   B I G   F R I E N D -                    
                                      &                                       
                       - I N T E G R A L  F E E D E R -                       
                                                                              
 v1 FN, 2020, v2 2021, v3 2022-2024                                           
------------------------------------------------------------------------------


----------------------
SHARK INTEGRAL PACKAGE
----------------------

Number of atoms                             ...      8
Number of basis functions                   ...     48
Number of shells                            ...     28
Maximum angular momentum                    ...      2
Integral batch strategy                     ... SHARK/LIBINT Hybrid
RI-J (if used) integral strategy            ... SPLIT-RIJ (Revised 2003 algorithm where possible)
Printlevel                                  ...      1
Contraction scheme used                     ... SEGMENTED contraction
Prescreening option                         ... SCHWARTZ
   Thresh                                   ... 1.000e-10
   Tcut                                     ... 1.000e-11
   Tpresel                                  ... 1.000e-11 
Coulomb Range Separation                    ... NOT USED
Exchange Range Separation                   ... NOT USED
Multipole approximations                    ... NOT USED
Finite Nucleus Model                        ... NOT USED
CABS basis                                  ... NOT available
Auxiliary Coulomb fitting basis             ... AVAILABLE
   # of basis functions in Aux-J            ...    168
   # of shells in Aux-J                     ...     64
   Maximum angular momentum in Aux-J        ...      4
Auxiliary J/K fitting basis                 ... NOT available
Auxiliary Correlation fitting basis         ... NOT available
Auxiliary 'external' fitting basis          ... NOT available

Checking pre-screening integrals            ... done (  0.0 sec) Dimension = 28
   => SHARK Basis and OBASIS are compatible. Storing Pre-screening
Shell pair information
Shell pair cut-off parameter TPreSel        ...   1.0e-11
Total number of shell pairs                 ...       406
Shell pairs after pre-screening             ...       405
Total number of primitive shell pairs       ...      1894
Primitive shell pairs kept                  ...      1531
          la=0 lb=0:    209 shell pairs
          la=1 lb=0:    120 shell pairs
          la=1 lb=1:     21 shell pairs
          la=2 lb=0:     40 shell pairs
          la=2 lb=1:     12 shell pairs
          la=2 lb=2:      3 shell pairs

Checking whether 4 symmetric matrices of dimension 48 fit in memory
:Max Core in MB      =   4096.00
 MB in use           =      3.79
 MB left             =   4092.21
 MB needed           =      0.04
 Data fit in memory  = YES
Calculating RI/J V-Matrix + Cholesky decomp.... done (  0.0 sec)
Calculating Nuclear repulsion               ... done (  0.0 sec) ENN=     87.059008820819 Eh

Diagonalization of the overlap matrix:
Smallest eigenvalue                        ... 6.719e-03
Time for diagonalization                   ...    0.001 sec
Threshold for overlap eigenvalues          ... 1.000e-07
Number of eigenvalues below threshold      ... 0
Time for construction of square roots      ...    0.000 sec
Total time needed                          ...    0.003 sec

-------------------
DFT GRID GENERATION
-------------------

General Integration Accuracy     IntAcc      ... 4.388
Radial Grid Type                 RadialGrid  ... OptM3 with GC (2021)
Angular Grid (max. ang.)         AngularGrid ... 4 (Lebedev-302)
Angular grid pruning method      GridPruning ... 4 (adaptive)
Weight generation scheme         WeightScheme... mBecke (2022)
Basis function cutoff            BFCut       ... 1.0000e-10
Integration weight cutoff        WCut        ... 1.0000e-14
Partially contracted basis set               ... off
Rotationally invariant grid construction     ... off
Angular grids for H and He will be reduced by one unit

Total number of grid points                  ...    34266
Total number of batches                      ...      539
Average number of points per batch           ...       63
Average number of grid points per atom       ...     4283
Grids setup in   0.4 sec
Initializing property integral containers    ... done (  0.0 sec)

SHARK setup successfully completed in   0.5 seconds

Maximum memory used throughout the entire STARTUP-calculation: 10.1 MB


           ************************************************************
           *        Program running with 24 parallel MPI-processes    *
           *              working on a common directory               *
           ************************************************************
Occupation numbers will be reassigned to an Aufbau configuration
             **** ENERGY FILE WAS UPDATED (run.en.tmp) ****
Finished Guess after   0.6 sec
Maximum memory used throughout the entire GUESS-calculation: 6.0 MB


           ************************************************************
           *        Program running with 24 parallel MPI-processes    *
           *              working on a common directory               *
           ************************************************************
----------------------------------------D-I-I-S--------------------------------------------
Iteration    Energy (Eh)           Delta-E    RMSDP     MaxDP     DIISErr   Damp  Time(sec)
-------------------------------------------------------------------------------------------
               ***  Starting incremental Fock matrix formation  ***
    1    -487.9178003698684165     0.00e+00  7.86e-04  1.37e-03  5.37e-03  0.700   0.1
    2    -487.9178183976001151    -1.80e-05  7.27e-04  1.41e-03  3.77e-03  0.700   0.1
                               ***Turning on AO-DIIS***
                              *** Initializing SOSCF ***
---------------------------------------S-O-S-C-F--------------------------------------
Iteration    Energy (Eh)           Delta-E    RMSDP     MaxDP     MaxGrad    Time(sec)
--------------------------------------------------------------------------------------
    3    -487.9178317693111353    -1.34e-05  1.83e-03  3.77e-03  2.64e-03     0.1
               *** Restarting incremental Fock matrix formation ***
    4    -487.9178622374863039    -3.05e-05  2.42e-04  2.68e-04  1.25e-04     0.1
    5    -487.9178623909946850    -1.54e-07  1.15e-04  1.84e-04  4.49e-05     0.1
                 **** Energy Check signals convergence ****

               *****************************************************
               *                     SUCCESS                       *
               *           SCF CONVERGED AFTER   5 CYCLES          *
               *****************************************************

             **** ENERGY FILE WAS UPDATED (run.en.tmp) ****

----------------
TOTAL SCF ENERGY
----------------

Total Energy       :       -487.91786240815810 Eh          -13276.92002 eV

Components:
Nuclear Repulsion  :         87.05900882081852 Eh            2368.99607 eV
Electronic Energy  :       -574.97687122897673 Eh          -15645.91609 eV
One Electron Energy:       -850.00919240709982 Eh          -23129.92603 eV
Two Electron Energy:        275.03232117812314 Eh            7484.00994 eV

Virial components:
Potential Energy   :       -974.58365130731454 Eh          -26519.76939 eV
Kinetic Energy     :        486.66578889915650 Eh           13242.84937 eV
Virial Ratio       :          2.00257275842593

DFT components:
N(Alpha)           :       16.000008255516 electrons
N(Beta)            :       16.000008255516 electrons
N(Total)           :       32.000016511031 electrons
E(X)               :      -38.113972309875 Eh       
E(C)               :       -1.099303242282 Eh       
E(XC)              :      -39.213275552157 Eh       

---------------
SCF CONVERGENCE
---------------

  Last Energy change         ...    1.5351e-07  Tolerance :   1.0000e-06
  Last MAX-Density change    ...    1.8393e-04  Tolerance :   1.0000e-05
  Last RMS-Density change    ...    1.1489e-04  Tolerance :   1.0000e-06
  Last DIIS Error            ...    2.6403e-03  Tolerance :   1.0000e-05
  Last Orbital Gradient      ...    4.4870e-05  Tolerance :   5.0000e-05
  Last Orbital Rotation      ...    8.7874e-05  Tolerance :   5.0000e-05


Total SCF time: 0 days 0 hours 0 min 1 sec 
Finished LeanSCF after   1.1 sec

Maximum memory used throughout the entire LEANSCF-calculation: 4.7 MB


           ************************************************************
           *        Program running with 24 parallel MPI-processes    *
           *              working on a common directory               *
           ************************************************************

------------------------------------------------------------------------------
                         ORCA PROPERTY INTEGRAL CALCULATIONS
------------------------------------------------------------------------------

GBWName                                   ... run.gbw
Number of atoms                           ...      8
Number of basis functions                 ...     48
Max core memory                           ...   4096 MB

Dipole integrals                          ... YES
Quadrupole integrals                      ...  NO
Linear momentum integrals                 ...  NO
Angular momentum integrals                ...  NO
Higher moments length integrals           ...  NO
Higher moments velocity integrals         ...  NO
Kinetic energy integrals                  ...  NO
GIAO right hand sides                     ...  NO
GIAO dipole derivative integrals          ...  NO
SOC integrals                             ...  NO
EPR diamagnetic integrals (GIAO)          ...  NO
EPR gauge integrals                       ...  NO
Field gradient integrals                  ...  NO (   0 nuclei)
Spin-dipole/Fermi contact integrals       ...  NO (   0 nuclei)
Contact density integrals                 ...  NO (   0 nuclei)
Nucleus-orbit integrals                   ...  NO (   0 nuclei)
Geometric perturbations                   ...  NO (   8 nuclei)

Choice of electric origin   ... Center of mass
Position of electric origin ... ( -0.0001, -0.0013,  1.9547) 
Choice of magnetic origin   ... GIAO
Position of magnetic origin ... (  0.0000,  0.0000,  0.0000) 

Calculating integrals                     ... Electric Dipole (Length)     done (  0.0 sec)

Property integrals calculated in   0.0 sec

Maximum memory used throughout the entire PROPINT-calculation: 6.1 MB


-------------------------------------------------------------------------------
                          DFT DISPERSION CORRECTION                            
                                                                               
                              DFTD3 V3.1  Rev 1                                
                          USING Becke-Johnson damping                          
-------------------------------------------------------------------------------
-------------------------   ----------------
Dispersion correction           -0.004653928
-------------------------   ----------------


-------------------------   --------------------
FINAL SINGLE POINT ENERGY      -487.922516336512
-------------------------   --------------------



           ************************************************************
           *        Program running with 24 parallel MPI-processes    *
           *              working on a common directory               *
           ************************************************************
------------------------------------------------------------------------------
                         ORCA SCF GRADIENT CALCULATION
------------------------------------------------------------------------------

Nuc. rep. gradient        (SHARK) ... done (  0.0 sec)
HCore & Overlap gradient  (SHARK) ... done (  0.0 sec)
Split-RIJ-J gradient      (SHARK) ... done (  0.2 sec)
XC gradient                       ... done (  0.1 sec)
Dispersion correction             ... done (  0.1 sec)

-------------------
DISPERSION GRADIENT
-------------------

   1   Al  :    0.000000017    0.000000035    0.000151877
   2   Al  :   -0.000000005    0.000000168   -0.000151849
   3   H   :    0.000072308   -0.000002170   -0.000000047
   4   H   :   -0.000002863   -0.000063761   -0.000103879
   5   H   :   -0.000072200    0.000004279    0.000000010
   6   H   :    0.000002798    0.000062545    0.000104797
   7   H   :   -0.000002836   -0.000063692    0.000103823
   8   H   :    0.000002783    0.000062596   -0.000104732

Difference to translation invariance:
           :    0.0000000000   -0.0000000000    0.0000000000

Difference to rotation invariance:
           :    0.0000000000   -0.0000000000   -0.0000000000

Norm of the Dispersion gradient    ...    0.0003407265
RMS gradient                       ...    0.0000695505
MAX gradient                       ...    0.0001518770

------------------
CARTESIAN GRADIENT
------------------

   1   Al  :   -0.000056562    0.000340035   -0.139817873
   2   Al  :    0.000061677    0.000192925    0.139670642
   3   H   :    0.010754513   -0.000611138   -0.000050191
   4   H   :    0.000203361    0.004475677   -0.005912880
   5   H   :   -0.010743409    0.000352466    0.000056724
   6   H   :   -0.000209864   -0.004557245    0.005840920
   7   H   :    0.000197516    0.004359458    0.006015564
   8   H   :   -0.000207233   -0.004552179   -0.005802906

Difference to translation invariance:
           :    0.0000000000    0.0000000000    0.0000000000

Difference to rotation invariance:
           :    0.0000001648    0.0000001999    0.0000301251

Norm of the Cartesian gradient     ...    0.1987669575
RMS gradient                       ...    0.0405731353
MAX gradient                       ...    0.1398178727

-------
TIMINGS
-------

Total SCF gradient time     ....        0.445 sec

Densities                   ....       0.001 sec  (  0.2%)
One electron gradient       ....       0.020 sec  (  4.5%)
RI-J Coulomb gradient       ....       0.193 sec  ( 43.2%)
XC gradient                 ....       0.111 sec  ( 24.9%)

Maximum memory used throughout the entire SCFGRAD-calculation: 25.8 MB
------------------------------------------------------------------------------
                         ORCA GEOMETRY RELAXATION STEP
------------------------------------------------------------------------------

Reading the OPT-File                    .... done
Getting information on internals        .... done
Copying old internal coords+grads       .... done
Making the new internal coordinates     .... (2022 redundants) done
Validating the new internal coordinates .... (2022 redundants) done
Calculating the B-matrix                .... done
Calculating the G,G- and P matrices     .... done
Transforming gradient to internals      .... done
Projecting the internal gradient        .... done
Number of atoms                         ....   8
Number of internal coordinates          ....  51
Current Energy                          ....  -487.922516337 Eh
Current gradient norm                   ....     0.198766958 Eh/bohr
Maximum allowed component of the step   ....  0.300
Current trust radius                    ....  0.300
Updating the Hessian (BFGS)             .... done
Forming the augmented Hessian           .... done
Diagonalizing the augmented Hessian     .... done
Last element of RFO vector              ....  0.852623129
Lowest eigenvalues of augmented Hessian:
 -0.051944708  0.043226539  0.064372980  0.105023684  0.112866140
Length of the computed step             ....  0.612845636
Warning: the length of the step is outside the trust region - taking restricted step instead
The input lambda is                     ....     0.042160
   iter:   5  x=   -0.005580  g=   83.549690 f(x)=     2.016755
   iter:  10  x=   -0.184787  g=    0.788426 f(x)=     0.010582
The output lambda is                    ....    -0.186000 (14 iterations)
The final length of the internal step   ....  0.300000000
Converting the step to Cartesian space:
 Initial RMS(Int)=    0.0420084025
Transforming coordinates:
 Iter   0:  RMS(Cart)=    0.0428199300 RMS(Int)=    0.0419460676
done
Storing new coordinates                 .... done
The predicted energy change is          ....    -0.022117585
Previously predicted energy change      ....    -0.004860841
Actually observed energy change         ....    -0.009151889
Ratio of predicted to observed change   ....     1.882779038
New trust radius                        ....     0.200000000

                                .--------------------.
          ----------------------|Geometry convergence|-------------------------
          Item                value                   Tolerance       Converged
          ---------------------------------------------------------------------
          Energy change      -0.0091518895            0.0000800000      NO
          RMS gradient        0.0145531808            0.0010000000      NO
          MAX gradient        0.0786819975            0.0050000000      NO
          RMS step            0.0420084025            0.0200000000      NO
          MAX step            0.1763509598            0.0300000000      NO
          -------------------------------------------------------------------------
          ........................................................
          Max(Bonds)      0.0933      Max(Angles)    4.35
          Max(Dihed)        2.64      Max(Improp)    0.00
          ---------------------------------------------------------------------

The optimization has not yet converged - more geometry cycles are needed


    ---------------------------------------------------------------------------
                         Redundant Internal Coordinates
                            (Angstroem and degrees)

        Definition                    Value    dE/dq     Step     New-Value
    ----------------------------------------------------------------------------
     1. B(Al  1,Al  0)                2.0957 -0.078682  0.0933    2.1890   
     2. B(H   2,Al  0)                1.7034 -0.010879 -0.0016    1.7017   
     3. B(H   2,Al  1)                1.7030 -0.010941 -0.0014    1.7016   
     4. B(H   3,Al  1)                1.6008 -0.000454  0.0017    1.6025   
     5. B(H   4,Al  1)                1.7034 -0.010899 -0.0016    1.7018   
     6. B(H   4,Al  0)                1.7028 -0.010954 -0.0013    1.7015   
     7. B(H   5,Al  0)                1.6013 -0.000338  0.0013    1.6026   
     8. B(H   6,Al  0)                1.6014 -0.000301  0.0012    1.6026   
     9. B(H   7,Al  1)                1.6012 -0.000365  0.0014    1.6026   
    10. A(H   2,Al  0,H   5)          110.39 -0.004006   -0.18    110.21   
    11. A(Al  1,Al  0,H   5)          125.38  0.004235   -2.18    123.19   
    12. A(H   4,Al  0,H   6)          110.41 -0.003800   -0.18    110.23   
    13. A(H   4,Al  0,H   5)          110.39 -0.003982   -0.19    110.20   
[...]
     12       0.000000   0.000000   0.000000   0.000000   0.000000   0.000000
     13       0.000000   0.000000   0.000000   0.000000   0.000000   0.000000
     14       0.000000   0.000000   0.000000   0.000000   0.000000   0.000000
     15       0.000000   0.000000   0.000000   0.000000   0.000000   0.000000
     16       0.000000   0.000000   0.000000   0.000000   0.000000   0.000000
     17       0.000000   0.000000   0.000000   0.000000   0.000000   0.000000
     18       0.000000   0.000000   0.000000   0.000000   0.000000   0.000000
     19       0.000000   0.000000   0.000000   0.000000   0.000000   0.000000
     20       0.000000   0.000000   0.000000   0.000000   0.000000   0.000000
     21       0.000000   0.000000   0.000000   0.000000   0.000000   0.000000
     22       0.000000   0.000000   0.000000   0.000000   0.000000   0.000000
     23       0.000000   0.000000   0.000000   0.000000   0.000000   0.000000
                  6          7          8          9         10         11    
      0      -0.000148  -0.000106   0.001021  -0.002921  -0.059956   0.032471
      1      -0.003218  -0.000409  -0.000020  -0.058047   0.002996  -0.001437
      2       0.002183  -0.371335  -0.000047  -0.000129   0.000034  -0.000007
      3      -0.000151   0.000064  -0.001023   0.002916   0.059941   0.032495
      4      -0.003202  -0.000532   0.000019   0.058048  -0.002999  -0.001435
      5      -0.002189   0.371335   0.000028  -0.000108  -0.000024  -0.000001
      6      -0.012940   0.152884   0.000012  -0.000012  -0.000072   0.114096
      7      -0.304316  -0.016529   0.000000   0.000035  -0.000029  -0.020381
      8      -0.000059  -0.000123   0.001160  -0.001167  -0.116185  -0.000022
      9       0.008527   0.000075  -0.495296  -0.010411  -0.496568  -0.482651
     10       0.190191  -0.006455   0.022161  -0.169371   0.023154   0.021577
     11      -0.411528   0.387812  -0.000010   0.468181  -0.002572   0.000049
     12      -0.014138  -0.153612  -0.000013  -0.000002   0.000031   0.115399
     13      -0.303965  -0.002228   0.000031   0.000094   0.000000   0.009488
     14      -0.000045   0.000125  -0.001139   0.000109   0.116223   0.000030
     15       0.008902   0.001612  -0.503659   0.010432   0.485048  -0.501622
     16       0.200068   0.028411   0.022294   0.181468  -0.022617   0.022327
     17      -0.401945  -0.432696   0.000391  -0.464350   0.002486   0.000126
     18       0.008667  -0.000468   0.495338   0.010675   0.496763  -0.482446
     19       0.190038  -0.006322  -0.022056   0.169042  -0.023089   0.021508
     20       0.411797  -0.387825  -0.000182   0.468110  -0.002731   0.000164
     21       0.008983   0.000613   0.503655  -0.010523  -0.484811  -0.501784
     22       0.199830   0.028324  -0.022398  -0.181290   0.022662   0.022365
     23       0.401937   0.432719   0.000307  -0.464544   0.002497  -0.000126
                 12         13         14         15         16         17    
      0       0.000004   0.000003  -0.001235   0.001289   0.030302   0.011321
      1       0.000323  -0.000537   0.000096   0.029299  -0.001345  -0.000505
      2      -0.033517   0.036983   0.000480  -0.000140   0.000011   0.000030
      3      -0.000012  -0.000006  -0.001242   0.001289   0.030301  -0.011325
      4      -0.000301  -0.000522   0.000090   0.029301  -0.001346   0.000507
      5      -0.033480  -0.037017  -0.000448   0.000157   0.000020   0.000023
      6       0.000012  -0.021300  -0.021786  -0.023217  -0.701915   0.000771
      7      -0.000331   0.011355  -0.614174  -0.637251   0.021222  -0.000204
      8       0.003434   0.000006  -0.000167  -0.000142  -0.000419   0.691873
      9      -0.009499  -0.013438   0.261268  -0.003349  -0.053882  -0.100055
     10      -0.218088  -0.224717  -0.014401  -0.071777   0.002373   0.004447
     11       0.449871   0.444656   0.005414   0.203997   0.000029   0.000045
     12       0.000017   0.021401   0.033296  -0.033560  -0.700912  -0.000668
     13       0.000247  -0.006201   0.611954  -0.638724   0.041079   0.000147
     14       0.003452  -0.000003   0.000098  -0.000083  -0.000521  -0.693327
     15      -0.010031   0.013328  -0.233841  -0.002734  -0.055814   0.100597
     16      -0.228622   0.236088   0.013168  -0.074605   0.002441  -0.004519
     17       0.443318  -0.440169  -0.004958   0.197212   0.000033  -0.000005
     18       0.009795  -0.013452   0.261194  -0.003421  -0.053859   0.100085
     19       0.218040  -0.224278  -0.014561  -0.071698   0.002400  -0.004476
     20       0.450355  -0.444344  -0.005931  -0.204094   0.000031  -0.000004
     21       0.009926   0.013529  -0.233834  -0.002719  -0.055830  -0.100612
     22       0.228150   0.236108   0.013032  -0.074552   0.002501   0.004533
     23       0.442931   0.440758   0.004692  -0.197335   0.000014   0.000017
                 18         19         20         21         22         23    
      0      -0.000042   0.000017  -0.000017   0.000010  -0.001453   0.001491
      1      -0.000213   0.000203  -0.000462   0.000312  -0.032602   0.033519
      2       0.025230  -0.010870   0.014213  -0.016625  -0.000534   0.000508
      3       0.000002  -0.000004   0.000025   0.000020   0.001483   0.001473
      4       0.000205   0.000200   0.000541   0.000436   0.033140   0.032983
      5       0.025228   0.010876   0.014579   0.016300  -0.000599  -0.000517
      6       0.000557  -0.706277  -0.000095  -0.008571   0.000015   0.000287
      7       0.000136   0.026399  -0.000000   0.000485   0.000038   0.005151
      8      -0.706111   0.000629   0.038127  -0.000421  -0.000140  -0.000067
      9      -0.001046   0.000482  -0.020770  -0.020168  -0.020005  -0.019829
     10      -0.025809   0.011447  -0.464119  -0.450796  -0.446815  -0.443560
     11       0.014709   0.001234  -0.211181  -0.210449  -0.216876  -0.211899
     12       0.000377   0.705947   0.000099   0.008582  -0.000016   0.000222
     13       0.000071  -0.036512  -0.000000  -0.000280   0.000046   0.005143
     14      -0.704642  -0.000805   0.038103  -0.000423  -0.000183  -0.000042
     15      -0.001227  -0.000493  -0.019639   0.020123   0.019818  -0.020104
     16      -0.026193  -0.011798  -0.439919   0.450790   0.443619  -0.450442
     17       0.015331  -0.000574  -0.212944   0.223886   0.228595  -0.228944
     18       0.001079   0.000623   0.020131  -0.020403   0.019636  -0.020068
     19       0.025808   0.011437   0.453029  -0.459233   0.441715  -0.452044
     20       0.014722  -0.001226  -0.205706   0.213939  -0.214135   0.215693
     21       0.001319  -0.000646   0.020065   0.019617  -0.020256  -0.019851
     22       0.026205  -0.011779   0.448876   0.439009  -0.453016  -0.444359
     23       0.015335   0.000573  -0.217109  -0.217857   0.233073   0.225507


-----------
IR SPECTRUM
-----------

 Mode   freq       eps      Int      T**2         TX        TY        TZ
       cm**-1   L/(mol*cm) km/mol    a.u.
----------------------------------------------------------------------------
  6:    191.91   0.002091   10.57  0.003401  (-0.002638 -0.058255 -0.000041)
  7:    364.56   0.000002    0.01  0.000002  (-0.000059 -0.001316 -0.000001)
  8:    405.21   0.000000    0.00  0.000000  (-0.000004 -0.000002 -0.000081)
  9:    452.21   0.000001    0.01  0.000001  (-0.000015  0.000006 -0.000938)
 10:    471.71   0.000000    0.00  0.000000  (-0.000036 -0.000011  0.000042)
 11:    603.42   0.042321  213.87  0.021887  ( 0.147788 -0.006728 -0.000021)
 12:    672.13   0.109533  553.53  0.050855  (-0.000031  0.000067 -0.225511)
 13:    711.50   0.000018    0.09  0.000008  (-0.000035 -0.002833 -0.000108)
 14:    719.46   0.000062    0.31  0.000027  (-0.005161  0.000407  0.000117)
 15:    800.24   0.039956  201.92  0.015581  ( 0.005476  0.124705  0.000049)
 16:   1291.14   0.060906  307.79  0.014721  ( 0.121209 -0.005397  0.000157)
 17:   1388.73   0.000000    0.00  0.000000  (-0.000009  0.000008  0.000219)
 18:   1451.23   0.193074  975.72  0.041517  (-0.000055 -0.000035  0.203758)
 19:   1506.45   0.000003    0.01  0.000001  ( 0.000025  0.000781  0.000025)
 20:   1914.12   0.024278  122.69  0.003958  ( 0.000015  0.000124  0.062914)
 21:   1919.33   0.000010    0.05  0.000002  ( 0.000049  0.001085 -0.000706)
 22:   1933.67   0.000031    0.16  0.000005  ( 0.000046  0.000864 -0.002058)
 23:   1941.02   0.070163  354.57  0.011280  ( 0.004730  0.106103 -0.000036)

* The epsilon (eps) is given for a Dirac delta lineshape.
** The dipole moment derivative (T) already includes vibrational overlap.

The first frequency considered to be a vibration is 6
The total number of vibrations considered is 18


--------------------------
THERMOCHEMISTRY AT 298.15K
--------------------------

Temperature         ...   298.15 K
Pressure            ...     1.00 atm
Total Mass          ...    60.01 AMU
Quasi RRHO          ...     True
Cut-Off Frequency   ...     1.00 cm^-1

Throughout the following assumptions are being made:
  (1) The electronic state is orbitally nondegenerate
  (2) There are no thermally accessible electronically excited states
  (3) Hindered rotations indicated by low frequency modes are not
      treated as such but are treated as vibrations and this may
      cause some error
  (4) All equations used are the standard statistical mechanics
      equations for an ideal gas
  (5) All vibrations are strictly harmonic

freq.     191.91  E(vib)   ...       0.36 
freq.     364.56  E(vib)   ...       0.22 
freq.     405.21  E(vib)   ...       0.19 
freq.     452.21  E(vib)   ...       0.16 
freq.     471.71  E(vib)   ...       0.15 
freq.     603.42  E(vib)   ...       0.10 
freq.     672.13  E(vib)   ...       0.08 
freq.     711.50  E(vib)   ...       0.07 
freq.     719.46  E(vib)   ...       0.07 
freq.     800.24  E(vib)   ...       0.05 
freq.    1291.14  E(vib)   ...       0.01 
freq.    1388.73  E(vib)   ...       0.00 
freq.    1451.23  E(vib)   ...       0.00 
freq.    1506.45  E(vib)   ...       0.00 
freq.    1914.12  E(vib)   ...       0.00 
freq.    1919.33  E(vib)   ...       0.00 
freq.    1933.67  E(vib)   ...       0.00 
freq.    1941.02  E(vib)   ...       0.00 

------------
INNER ENERGY
------------

The inner energy is: U= E(el) + E(ZPE) + E(vib) + E(rot) + E(trans)
    E(el)   - is the total energy from the electronic structure calculation
              = E(kin-el) + E(nuc-el) + E(el-el) + E(nuc-nuc)
    E(ZPE)  - the the zero temperature vibrational energy from the frequency calculation
    E(vib)  - the the finite temperature correction to E(ZPE) due to population
              of excited vibrational states
    E(rot)  - is the rotational thermal energy
    E(trans)- is the translational thermal energy

Summary of contributions to the inner energy U:
Electronic energy                ...   -487.98434343 Eh
Zero point energy                ...      0.04268837 Eh      26.79 kcal/mol
Thermal vibrational correction   ...      0.00233869 Eh       1.47 kcal/mol
Thermal rotational correction    ...      0.00141627 Eh       0.89 kcal/mol
Thermal translational correction ...      0.00141627 Eh       0.89 kcal/mol
-----------------------------------------------------------------------
Total thermal energy                   -487.93648383 Eh


Summary of corrections to the electronic energy:
(perhaps to be used in another calculation)
Total thermal correction                  0.00517123 Eh       3.24 kcal/mol
Non-thermal (ZPE) correction              0.04268837 Eh      26.79 kcal/mol
-----------------------------------------------------------------------
Total correction                          0.04785960 Eh      30.03 kcal/mol


--------
ENTHALPY
--------

The enthalpy is H = U + kB*T
                kB is Boltzmann's constant
Total thermal energy              ...   -487.93648383 Eh 
Thermal Enthalpy correction       ...      0.00094421 Eh       0.59 kcal/mol
-----------------------------------------------------------------------
Total Enthalpy                    ...   -487.93553962 Eh


Note: Only C1 symmetry has been detected, increase convergence thresholds 
      if your molecule has a higher symmetry. Symmetry factor of 1.0 is   
      used for the rotational entropy correction. 
 

Note: Rotational entropy computed according to Herzberg 
Infrared and Raman Spectra, Chapter V,1, Van Nostrand Reinhold, 1945 
Point Group:  C1, Symmetry Number:   1  
Rotational constants in cm-1:     1.529886     0.150031     0.142915 

Vibrational entropy computed according to the QRRHO of S. Grimme
Chem.Eur.J. 2012 18 9955 using a reference frequency of 100.0 cm-1


-------
ENTROPY
-------

The entropy contributions are T*S = T*(S(el)+S(vib)+S(rot)+S(trans))
     S(el)   - electronic entropy
     S(vib)  - vibrational entropy
     S(rot)  - rotational entropy
     S(trans)- translational entropy
The entropies will be listed as multiplied by the temperature to get
units of energy

Electronic entropy                ...      0.00000000 Eh      0.00 kcal/mol
Vibrational entropy               ...      0.00353264 Eh      2.22 kcal/mol
Rotational entropy                ...      0.01112405 Eh      6.98 kcal/mol
Translational entropy             ...      0.01814806 Eh     11.39 kcal/mol
-----------------------------------------------------------------------
Final entropy term                ...      0.03280475 Eh     20.59 kcal/mol

In case the symmetry of your molecule has not been determined correctly
or in case you have a reason to use a different symmetry number we print 
out the resulting rotational entropy values for sn=1,12:

 non-linear molecules -----------------------------------
|  sn= 1 | S(rot)=       0.01112405 Eh      6.98 kcal/mol|
|  sn= 2 | S(rot)=       0.01046959 Eh      6.57 kcal/mol|
|  sn= 3 | S(rot)=       0.01008676 Eh      6.33 kcal/mol|
|  sn= 4 | S(rot)=       0.00981514 Eh      6.16 kcal/mol|
|  sn= 5 | S(rot)=       0.00960445 Eh      6.03 kcal/mol|
|  sn= 6 | S(rot)=       0.00943230 Eh      5.92 kcal/mol|
|  sn= 7 | S(rot)=       0.00928676 Eh      5.83 kcal/mol|
|  sn= 8 | S(rot)=       0.00916068 Eh      5.75 kcal/mol|
|  sn= 9 | S(rot)=       0.00904947 Eh      5.68 kcal/mol|
|  sn=10 | S(rot)=       0.00894999 Eh      5.62 kcal/mol|
|  sn=11 | S(rot)=       0.00886000 Eh      5.56 kcal/mol|
|  sn=12 | S(rot)=       0.00877785 Eh      5.51 kcal/mol|
 linear molecules ---------------------------------------
|  Dinfh | S(rot)=       0.00716271 Eh      4.49 kcal/mol|
|  Cinfv | S(rot)=       0.00781717 Eh      4.91 kcal/mol|
 --------------------------------------------------------


-------------------
GIBBS FREE ENERGY
-------------------

The Gibbs free energy is G = H - T*S

Total enthalpy                    ...   -487.93553962 Eh 
Total entropy correction          ...     -0.03280475 Eh    -20.59 kcal/mol
-----------------------------------------------------------------------
Final Gibbs free energy         ...   -487.96834437 Eh

For completeness - the Gibbs free energy minus the electronic energy
G-E(el)                           ...      0.01599906 Eh     10.04 kcal/mol


Maximum memory used throughout the entire PROP-calculation: 25.9 MB

--------------------------------
SUGGESTED CITATIONS FOR THIS RUN
--------------------------------

Below you find a list of papers that are relevant to this ORCA run
We neither can nor want to force you to cite these papers, but we appreciate if you do
You receive ORCA, which is the product of decades of hard work by many enthusiastic individuals, for free
The only thing we kindly ask in return is that you cite our papers,
We deeply appreciate it, if you show your appreciation for ORCA by not just citing the generic ORCA reference.

Please note that relegating all ORCA citations to the supporting information does *not* help us.
SI sections are not indexed - citations you put there will not count into any citation statistics
But we need these citations in order to attract the funding resources that allow us to do what we are doing

Therefore, if you are a happy ORCA user, please consider citing a few of the papers listed below in the main body of your paper

In addition to the list printed below, the program has created the file run.bibtex that contains the list in bibtex format
You can import this file easily into all common literature databanks and citation aid programs


List of essential papers. We consider these as the minimum necessary citations

  1. Neese, F.
     Software update: the ORCA program system, version 6.0
     WIRES Comput. Molec. Sci. 2025 15(1), e70019
     doi.org/10.1002/wcms.7019

List of papers to cite with high priority. The work reported in these papers was absolutely
necessary for this run to complete.
Our perspective: the developers of density functionals and basis sets usually get cited in chemistry papers
Good! But without the algorithms to do something with them, the functionals or basis sets would not do anything.
Hence, in our opinion, the algorithm design and method developments papers are equally worthy of getting cited

  1. Neese, F.
     An improvement of the resolution of the identity approximation for the formation of the Coulomb matrix
     J. Comp. Chem. 2003 24(14), 1740-1747
     doi.org/10.1002/jcc.10318
  2. Grimme, S.; Antony, J.; Ehrlich, S.; Krieg, H.
     A consistent and accurate ab initio parametrization of density functional dispersion correction (DFT-D) for the 94 elements H-Pu
     J. Chem. Phys. 2010 132 , 154104
     doi.org/10.1063/1.3382344
  3. Grimme, S.; Ehrlich, S.; Goerigk, L.
     Effect of the damping function in dispersion corrected density functional theory
     J. Comput. Chem. 2011 32(7), 1456-1465
     doi.org/10.1002/jcc.21759
  4. Bykov, D.; Petrenko, T.; Izsak, R.; Kossmann, S.; Becker, U.; Valeev, E.; Neese, F.
     Efficient implementation of the analytic second derivatives of Hartree-Fock and hybrid DFT energies: a detailed analysis of different approximations
     Molec. Phys. 2015 113 , 1961-1977
     doi.org/10.1080/00268976.2015.1025114
  5. Neese, F.
     The SHARK Integral Generation and Digestion System
     J. Comp. Chem. 2022 44(3), 381
     doi.org/10.1002/jcc.26942

List of suggested additional citations. These are papers that are important in the 'surrounding' of 
of this run, or papers that preceded the highly important papers. If you like your results we are grateful for a citation.

  1. Neese, F.
     The ORCA program system
     WIRES Comput. Molec. Sci. 2012 2(1), 73-78
     doi.org/10.1002/wcms.81
  2. Neese, F.
     Software update: the ORCA program system, version 4.0
     WIRES Comput. Molec. Sci. 2018 8(1), 1-6
     doi.org/10.1002/wcms.1327
  3. Neese, F.; Wennmohs, F.; Becker, U.; Riplinger, C.
     The ORCA quantum chemistry program package
     J. Chem. Phys. 2020 152(22), 224108
     doi.org/10.1063/5.0004608
  4. Neese, F.
     Software update: The ORCA program system—Version 5.0
     WIRES Comput. Molec. Sci. 2022 12(1), e1606
     doi.org/10.1002/wcms.1606

List of optional additional citations

  1. Neese, F.
     Approximate second-order SCF convergence for spin unrestricted wavefunctions
     Chem. Phys. Lett. 2000 325(1-3), 93-98
     doi.org/10.1016/s0009-2614(00)00662-x

Timings for individual modules:

Sum of individual times          ...       55.744 sec (=   0.929 min)
Startup calculation              ...       12.615 sec (=   0.210 min)  22.6 %
SCF iterations                   ...       20.778 sec (=   0.346 min)  37.3 %
Property integrals               ...        8.219 sec (=   0.137 min)  14.7 %
SCF Response                     ...        1.251 sec (=   0.021 min)   2.2 %
Property calculations            ...        2.259 sec (=   0.038 min)   4.1 %
SCF Gradient evaluation          ...       10.494 sec (=   0.175 min)  18.8 %
Geometry relaxation              ...        0.128 sec (=   0.002 min)   0.2 %
                             ****ORCA TERMINATED NORMALLY****
TOTAL RUN TIME: 0 days 0 hours 1 minutes 4 seconds 3 msec
