
                                 *****************
                                 * O   R   C   A *
                                 *****************

                                            #,                                       
                                            ###                                      
                                            ####                                     
                                            #####                                    
                                            ######                                   
                                           ########,                                 
                                     ,,################,,,,,                         
                               ,,#################################,,                 
                          ,,##########################################,,             
                       ,#########################################, ''#####,          
                    ,#############################################,,   '####,        
                  ,##################################################,,,,####,       
                ,###########''''           ''''###############################       
              ,#####''   ,,,,##########,,,,          '''####'''          '####       
            ,##' ,,,,###########################,,,                        '##       
           ' ,,###''''                  '''############,,,                           
         ,,##''                                '''############,,,,        ,,,,,,###''
      ,#''                                            '''#######################'''  
     '                                                          ''''####''''         
             ,#######,   #######,   ,#######,      ##                                
            ,#'     '#,  ##    ##  ,#'     '#,    #''#        ,####,    ,#,          
            ##       ##  ##   ,#'  ##            #'  '#       #'       ,# #          
            ##       ##  #######   ##           ,######,      #####,      #          
            '#,     ,#'  ##    ##  '#,     ,#' ,#      #,     #,   #      #          
             '#######'   ##     ##  '#######'  #'      '#     '####' #    #          



                #########################################################
                #                        -***-                          #
                #          Department of theory and spectroscopy        #
                #                                                       #
                #                      Frank Neese                      #
                #                                                       #
                #     Directorship, Architecture, Infrastructure        #
                #                    SHARK, DRIVERS                     #
                #        Core code/Algorithms in most modules           #
                #                                                       #
                #        Max Planck Institute fuer Kohlenforschung      #
                #                Kaiser Wilhelm Platz 1                 #
                #                 D-45470 Muelheim/Ruhr                 #
                #                      Germany                          #
                #                                                       #
                #                  All rights reserved                  #
                #                        -***-                          #
                #########################################################


                         Program Version 6.1.0  -  RELEASE   -
                                (GIT: $679e74b$)
                          ($2025-06-10 18:02:51 +0200$)


 With contributions from (in alphabetic order):
[Max-Planck-Institut fuer Kohlenforschung]                               
  Daniel Aravena         : Magnetic Suceptibility                        
  Michael Atanasov       : Ab Initio Ligand Field Theory (pilot matlab implementation)
  Alexander A. Auer      : GIAO ZORA, VPT2 properties, NMR spectrum      
  Ute Becker             : All parallelization in ORCA, NUMFREQ, NUMCALC 
  Giovanni Bistoni       : ED, misc. LED, open-shell LED, HFLD           
  Dmytro Bykov           : pre 5.0 version of the SCF Hessian            
  Marcos Casanova-Páez   : Triplet and SCS-CIS(D). UHF-(DLPNO)-IP/EA/STEOM-CCSD. UHF-CVS-IP/STEOM-CCSD   
  Vijay G. Chilkuri      : MRCI spin determinant printing, contributions to CSF-ICE 
  Pauline Colinet        : FMM embedding                                 
  Dipayan Datta          : RHF DLPNO-CCSD density                        
  Achintya Kumar Dutta   : EOM-CC, STEOM-CC                              
  Nicolas Foglia         : Exact transition moments, OPA infrastructure, MCD improvements    
  Dmitry Ganyushin       : Spin-Orbit,Spin-Spin,Magnetic field MRCI      
  Miquel Garcia-Rates    : C-PCM and meta-GGA Hessian, CCSD/C-PCM, Gaussian charge scheme 
  Tiago L. C. Gouveia    : GS-ROHF, GS-ROCIS                             
  Yang Guo               : DLPNO-NEVPT2, F12-NEVPT2, CIM, IAO-localization        
  Andreas Hansen         : Spin unrestricted coupled pair/coupled cluster methods 
  Ingolf Harden          : AUTO-CI MPn and infrastructure                
  Benjamin Helmich-Paris : MC-RPA, TRAH-(SCF,CASSCF), AVAS, COSX integrals, SCF dyn. polar., MC-PDFT, srDFT 
  Lee Huntington         : MR-EOM, pCC                                   
  Robert Izsak           : Overlap fitted RIJCOSX, COSX-SCS-MP3, EOM     
  Riya Kayal             : Wick's Theorem for AUTO-CI, AUTO-CI UHF-CCSDT 
  Emily Kempfer          : AUTO-CI RHF CISDT and CCSDT, approximate NEVPT4
  Christian Kollmar      : KDIIS, OOCD, Brueckner-CCSD(T), CCSD density, CASPT2, CASPT2-K, improved NEVPT2 
  Axel Koslowski         : Symmetry handling                             
  Simone Kossmann        : meta-GGA functionals, TD-DFT gradient, OOMP2, (MP2 Hessian; deprecated post 5.0) 
  Lucas Lang             : DCDCAS, Hyperfine gauge corrections, ICE-SOC+SSC
  Marvin Lechner         : AUTO-CI (C++ implementation), FIC-MRCC        
  Spencer Leger          : CASSCF response                               
  Dagmar Lenk            : GEPOL surface, SMD, ORCA-2-JSON               
  Dimitrios Liakos       : Extrapolation schemes; Compound Job, Property file
  Dimitrios Manganas     : Further ROCIS development; embedding schemes. LFT, Crystal Embedding 
  Dimitrios Pantazis     : SARC Basis sets                               
  Anastasios Papadopoulos: AUTO-CI, single reference methods and gradients 
  Taras Petrenko         : pre 6.0 DFT Hessian and TD-DFT gradient,  ECA, NRVS 
  Petra Pikulova         : Analytic Raman intensities                    
  Peter Pinski           : DLPNO-MP2, DLPNO-MP2 Gradient                 
  Shashank Vittal Rao    : ES-AILFT, MagRelax                            
  Christoph Reimann      : Effective Core Potentials                     
  Marius Retegan         : Local ZFS, SOC                                
  Christoph Riplinger    : Optimizer, TS searches, QM/MM, DLPNO-CCSD(T), (RO)-DLPNO pert. Triples 
  Michael Roemelt        : Original ROCIS implementation, recursive CI coupling coefficients
  Masaaki Saitow         : Open-shell DLPNO-CCSD energy and density      
  Barbara Sandhoefer     : DKH picture change effects                    
  Yorick L. A. Schmerwitz: GMF and freeze-and-release deltaSCF, NEB S-IDPP initial path                    
  Kantharuban Sivalingam : CASSCF convergence/infrastructure, NEVPT2, NEVPT3, NEVPT4(SD), FIC-MRCI and CEPA variants
  Bernardo de Souza      : ESD, SOC TD-DFT                               
  Georgi L. Stoychev     : AutoAux, RI-MP2 NMR, DLPNO-MP2 response, X2C  
  Van Anh Tran           : RI-MP2 g-tensors                              
  Willem Van den Heuvel  : Paramagnetic NMR                              
  Zikuan Wang            : NOTCH, Electric field optimization            
  Frank Wennmohs         : Technical directorship and infrastructure     
  Hang Xu                : AUTO-CI-Response properties                   
                                                                         
[FACCTs GmbH]                                                            
  Markus Bursch, Nicolas Foglia, Miquel Garcia-Rates, Ingolf Harden, Hagen Neugebauer, Anastasios Papadopoulos, 
  Christoph Riplinger, Bernardo de Souza, Georgi L. Stoychev                                                    
                                                                 
  APM, various basis sets, CI-OPT, improved COSX, DLPNO-Multilevel,           
  DOCKER, DRACO, updates on ESD, Fragmentator, GOAT, IRC, LR-CPCM, L-BFGS, MBIS, meta-GGA TD-DFT gradient, ML-optimized integration grids, 
  MM, NACMEs, nearIR, NEB, NEB-TS, NL-DFT gradient (VV10), 2- and 3-layer-ONIOM, interface openCOSMO-RS, QMMM,   
  Crystal-QMMM, RESP, rigid body optimization, SF, symmetry and pop. for TD-DFT, various functionals, SOLVATOR                                   
                                                                         
[Other institutions]                                                     
  V. Asgeirsson          : NEB                                           
  Christoph Bannwarth    : sTDA-DFT, sTD-DFT, PBEh-3c, B97-3c, D3        
  Giovanni Bistoni       : ETS/NOCV, ADLD/ADEX, COVALED                  
  Martin Brehm           : Molecular dynamics                            
  Ronald Cardenas        : ETS/NOCV                                      
  Martina Colucci        : COVALED                                       
  Sebastian Ehlert       : rSCAN, r2SCAN, r2SCAN-3c, D4, dhf basis sets  
  Marvin Friede          : D4 for Fr, Ra, Ac-Lr                          
  Lars Goerigk           : TD-DFT with DH, B97 family of functionals     
  Stefan Grimme          : VdW corrections, initial TS optimization, DFT functionals, gCP, sTDA/sTD-DF 
  Waldemar Hujo          : DFT-NL                                        
  H. Jonsson             : NEB                                           
  Holger Kruse           : gCP                                           
  Marcel Mueller         : wB97X-3c, vDZP basis set                      
  Hagen Neugebauer       : wr2SCAN, Native XTB                           
  Gianluca Regni         : ADLD/ADEX                                     
  Tobias Risthaus        : pre 6.0 range-separated hybrid DFT and stability analysis
  Lukas Wittmann         : regularized MP2, r2SCAN double-hybrids, wr2SCAN        
                                                                         
We gratefully acknowledge several colleagues who have allowed us to      
interface, adapt or use parts of their codes:                            
  Ed Valeev, F. Pavosevic, A. Kumar             : LibInt (2-el integral package), F12 methods 
  Garnet Chan, S. Sharma, J. Yang, R. Olivares  : DMRG                   
  Ulf Ekstrom                                   : XCFun DFT Library      
  Mihaly Kallay                                 : mrcc  (arbitrary order and MRCC methods)
  Frank Weinhold                                : gennbo (NPA and NBO analysis)           
  Simon Mueller                                 : openCOSMO-RS                            
  Christopher J. Cramer and Donald G. Truhlar   : smd solvation model                     
  S Lehtola, MJT Oliveira, MAL Marques          : LibXC Library                           
  Liviu Ungur et al                             : ANISO software                          


 Your calculation uses the libint2 library for the computation of 2-el integrals
 For citations please refer to: http://libint.valeyev.net

 Your ORCA version has been built with support for libXC version: 7.0.0
 For citations please refer to: https://libxc.gitlab.io

 This ORCA versions uses:
   CBLAS   interface :  Fast vector & matrix operations
   LAPACKE interface :  Fast linear algebra routines
   SCALAPACK package :  Parallel linear algebra routines
   Shared memory     :  Shared parallel matrices
   BLAS/LAPACK       :  OpenBLAS 0.3.29  USE64BITINT DYNAMIC_ARCH NO_AFFINITY Bulldozer SINGLE_THREADED
        Core in use  :  Bulldozer
   Copyright (c) 2011-2014, The OpenBLAS Project


  ***********************************
  * Starting time: Wed Aug 13 04:50:27 2025
  * Host name:     chromium10
  * Process ID:    195485
  * Working dir.:  /local/scratch/mehlhorn/61861
  ***********************************



***************************************
The coordinates will be read from file: start.xyz
***************************************


Your calculation utilizes the geometrical counterpoise correction gCP
Please cite in your paper:
H.Kruse, S. Grimme J.Chem.Phys., 136, (2012), 154101 
   

Your calculation utilizes the atom-pairwise dispersion correction
with the Becke-Johnson damping scheme (D3BJ)


Warning: RI is on but no J-basis has been assigned. Assigning Def2/J (nothing to worry about!)
================================================================================

cite the ECPs for Zr [Def2-ECP] as follows:
Ce-Yb(ecp-28): M. Dolg, H. Stoll, H.Preuss, J. Chem. Phys., 1989, 90, 1730-1734.
Y-Cd(ecp-28), Hf-Hg(ecp-46): D. Andrae,U. Haeussermann, M. Dolg, H. Stoll, H. Preuss, Theor. Chim. Acta, 1990, 77, 123-141.
In-Sb(ecp-28), Tl-Bi(ecp-46): B. Metz, H. Stoll, M. Dolg, J. Chem. Phys., 2000, 113, 2563-2569.
Te-Xe(ecp-28), Po-Rn(ecp-46): K. A. Peterson, D. Figgen, E. Goll, H. Stoll, M. Dolg, J. Chem. Phys., 2003, 119, 11113-11123.
Rb(ecp-28), Cs(ecp-46): T. Leininger, A. Nicklass, W. Kuechle, H. Stoll, M. Dolg, A. Bergner, Chem. Phys. Lett., 1996, 255, 274-280.
Sr(ecp-28), Ba(ecp-46): M. Kaupp, P. V. Schleyer, H. Stoll and H. Preuss, J. Chem. Phys., 1991, 94, 1360-1366.
La(ecp-46): M. Dolg, H. Stoll, A. Savin, H. Preuss, Theor. Chim. Acta, 1989, 75, 173-194.
Lu(ecp-28): X. Cao, M. Dolg, J. Chem. Phys., 2001, 115, 7348-7355.

ECP parameters for Zr [Def2-ECP] have been obtained from:
TURBOMOLE (7.0.2)

----- Orbital basis set information -----
Your calculation utilizes the basis: def2-SV(P)
   F. Weigend and R. Ahlrichs, Phys. Chem. Chem. Phys. 7, 3297 (2005).

----- AuxJ basis set information -----
Your calculation utilizes the auxiliary basis: def2/J
   H-Rn: F. Weigend, Phys. Chem. Chem. Phys. 8, 1057 (2006).
   Fr-Lr: K. Eichkorn, F. Weigend, O. Treutler, R. Ahlrichs; Theor. Chem. Acc. 97, 119 (1997).

================================================================================
                                        WARNINGS
                       Please study these warnings very carefully!
================================================================================


WARNING: Gradients are needed
  ===> : At least TightSCF should be used for SCF convergence

WARNING: Geometry Optimization
  ===> : Switching off AutoStart
         For restart on a previous wavefunction, please use MOREAD

================================================================================
                                       INPUT FILE
================================================================================
NAME = run.inp
|  1> # Geometry optimization for (AlH3)n cluster
|  2> 
|  3> %pal nprocs 24  end
|  4> 
|  5> %geom MaxIter 500 end
|  6> 
|  7> 
|  8> ! PBE def2-SV(P)
|  9> ! RKS	# closed shell for AlH3
| 10> ! D3    #  dispersion correction
| 11> ! gCP(DFT/SV(P))
| 12> ! Freq 	# Frequency analysis to check the stabiltity of the structures
| 13> 
| 14> ! NoPop # population analysis not necessary	
| 15> 
| 16> ! DEFGRID2
| 17> ! NormalSCF
| 18> ! SloppyOpt
| 19> 
| 20> ! SmallPrint
| 21> 
| 22> 
| 23> * xyzFile 0 1 start.xyz # only maingroup elements H and Al so there should be no net spin
| 24> 
| 25>                          ****END OF INPUT****
================================================================================

                       *****************************
                       * Geometry Optimization Run *
                       *****************************

Geometry optimization settings:
Update method            Update   .... BFGS
Choice of coordinates    CoordSys .... (2022) Redundant Internals
Initial Hessian          InHess   .... Almloef's Model
Max. no of cycles        MaxIter  .... 500

Convergence Tolerances:
Energy Change            TolE     ....  8.0000e-05 Eh
Max. Gradient            TolMAXG  ....  5.0000e-03 Eh/bohr
RMS Gradient             TolRMSG  ....  1.0000e-03 Eh/bohr
Max. Displacement        TolMAXD  ....  3.0000e-02 bohr
RMS Displacement         TolRMSD  ....  2.0000e-02 bohr
Strict Convergence                .... False

------------------------------------------------------------------------------
                        ORCA OPTIMIZATION COORDINATE SETUP
------------------------------------------------------------------------------

The optimization will be done in redundant internal coordinates (2022)
Making redundant internal coordinates   ...  (2022 redundants) done
Evaluating the initial hessian          ...  (Almloef) done
Evaluating the coordinates              ...  done
Calculating the B-matrix                .... done
Calculating the G-matrix                .... done
The number of degrees of freedom        .... 1055

    -----------------------------------------------------------------
                    Redundant Internal Coordinates


    -----------------------------------------------------------------
         Definition                    Initial Value    Approx d2E/dq
    -----------------------------------------------------------------
      1. B(Zr  2,Zr  1)                  3.4103         0.038265   
      2. B(Zr  3,Zr  0)                  3.4019         0.039456   
      3. B(Zr  4,Zr  1)                  3.3457         0.048507   
      4. B(Zr  4,Zr  3)                  3.4355         0.034871   
      5. B(Zr  5,Zr  0)                  3.4206         0.036837   
      6. B(Zr  5,Zr  2)                  3.4230         0.036513   
      7. B(O   6,Zr  3)                  2.1032         0.412161   
      8. B(O   6,Zr  0)                  2.1103         0.401643   
      9. B(O   6,Zr  5)                  2.1462         0.351988   
     10. B(O   7,Zr  1)                  2.1270         0.377649   
     11. B(O   7,Zr  2)                  2.0980         0.420187   
     12. B(O   7,Zr  4)                  2.0782         0.451939   
     13. B(O   8,Zr  2)                  2.1075         0.405839   
     14. B(O   8,Zr  1)                  2.1426         0.356629   
     15. B(O   8,Zr  5)                  2.1210         0.386162   
     16. B(O   9,Zr  0)                  2.1809         0.309868   
     17. B(O   9,Zr  3)                  2.1262         0.378789   
     18. B(O   9,Zr  4)                  2.1777         0.313544   
     19. B(O  10,Zr  4)                  2.0962         0.422944   
     20. B(O  10,Zr  3)                  2.1251         0.380402   
     21. B(O  10,Zr  1)                  2.1698         0.322794   
     22. B(O  11,Zr  5)                  2.0939         0.426509   
     23. B(O  11,Zr  2)                  2.1101         0.401946   
     24. B(O  11,Zr  0)                  2.1388         0.361636   
     25. B(O  12,Zr  0)                  1.9839         0.638868   
     26. B(O  13,Zr  0)                  1.9764         0.656719   
     27. B(O  14,Zr  0)                  2.0715         0.463209   
     28. B(O  15,Zr  0)                  2.0287         0.541985   
     29. B(O  16,Zr  1)                  2.0601         0.482929   
     30. B(O  17,Zr  1)                  2.0645         0.475245   
     31. B(O  18,Zr  1)                  1.9824         0.642392   
     32. B(O  19,Zr  1)                  1.9754         0.659230   
     33. B(O  20,Zr  2)                  1.9890         0.627042   
     34. B(O  21,Zr  2)                  2.0351         0.529449   
     35. B(O  22,Zr  2)                  1.9870         0.631619   
     36. B(O  23,Zr  2)                  2.0526         0.496488   
     37. B(O  24,Zr  3)                  2.0852         0.440447   
     38. B(O  25,Zr  3)                  1.9715         0.668647   
     39. B(O  26,Zr  3)                  2.0269         0.545499   
     40. B(O  27,Zr  3)                  1.9810         0.645841   
     41. B(O  28,Zr  4)                  1.9778         0.653360   
     42. B(O  29,Zr  4)                  1.9876         0.630313   
     43. B(O  30,Zr  4)                  1.9801         0.647931   
     44. B(O  31,Zr  4)                  2.0713         0.463459   
     45. B(O  32,Zr  5)                  2.0285         0.542458   
     46. B(O  33,Zr  5)                  1.9900         0.624865   
     47. B(O  34,Zr  5)                  2.0546         0.492745   
     48. B(O  35,Zr  5)                  1.9905         0.623603   
     49. B(C  36,O  33)                  1.3007         0.776827   
     50. B(C  36,O  12)                  1.3013         0.775293   
     51. B(C  37,O  25)                  1.2998         0.779513   
     52. B(C  37,O  13)                  1.2996         0.780017   
     53. B(C  38,O  21)                  1.3016         0.774251   
     54. B(C  38,O  14)                  1.2994         0.780488   
     55. B(C  39,O  29)                  1.2947         0.794290   
     56. B(C  39,O  15)                  1.2951         0.793130   
     57. B(C  40,O  34)                  1.3014         0.774947   
     58. B(C  40,O  16)                  1.2989         0.782013   
     59. B(C  41,O  26)                  1.2956         0.791560   
     60. B(C  41,O  17)                  1.2978         0.785230   
     61. B(C  42,O  22)                  1.3003         0.777985   
     62. B(C  42,O  18)                  1.3014         0.774773   
     63. B(C  43,O  19)                  1.2994         0.780565   
     64. B(C  43,O  30)                  1.2985         0.783099   
     65. B(C  44,O  35)                  1.3017         0.774024   
     66. B(C  44,O  20)                  1.3019         0.773474   
     67. B(C  45,O  23)                  1.2974         0.786485   
     68. B(C  45,O  31)                  1.2970         0.787567   
     69. B(C  46,O  32)                  1.2957         0.791224   
     70. B(C  46,O  24)                  1.2970         0.787415   
     71. B(C  47,O  27)                  1.2996         0.780084   
     72. B(C  47,O  28)                  1.2993         0.780979   
     73. B(H  48,C  41)                  1.0863         0.365056   
     74. B(H  49,C  42)                  1.0916         0.358046   
     75. B(H  50,C  38)                  1.0879         0.362846   
     76. B(H  51,C  37)                  1.0909         0.358970   
     77. B(H  52,C  43)                  1.0899         0.360233   
     78. B(H  53,C  47)                  1.0905         0.359439   
     79. B(H  54,C  39)                  1.0859         0.365507   
     80. B(H  55,C  45)                  1.0851         0.366658   
     81. B(H  56,C  40)                  1.0876         0.363222   
     82. B(H  57,C  46)                  1.0851         0.366627   
     83. B(H  58,C  36)                  1.0917         0.357803   
     84. B(H  59,C  44)                  1.0917         0.357910   
     85. B(Al 61,Al 60)                  2.6940         0.254902   
     86. B(Al 61,H  52)                  3.0698         0.010000   
     87. B(H  62,Al 61)                  1.6776         0.291412   
     88. B(H  63,H  52)                  2.5147         0.010000   
     89. B(H  63,Al 61)                  1.6142         0.367846   
     90. B(H  64,Al 61)                  1.6782         0.290734   
     91. B(H  64,Al 60)                  1.6671         0.302895   
     92. B(H  64,H  52)                  2.8388         0.010000   
     93. B(H  65,O  19)                  2.7677         0.010000   
     94. B(H  65,O  31)                  2.6765         0.010000   
     95. B(H  65,O  18)                  2.4885         0.010000   
     96. B(H  65,Al 60)                  1.6028         0.383566   
     97. B(H  65,H  55)                  3.0556         0.010000   
     98. B(H  65,C  43)                  2.8495         0.010000   
     99. B(H  65,C  45)                  2.8316         0.010000   
    100. B(H  66,O  18)                  2.6622         0.010000   
    101. B(H  66,Al 60)                  1.6780         0.291034   
    102. B(H  66,O  19)                  2.8110         0.010000   
    103. B(H  67,Al 61)                  1.6095         0.374312   
    104. B(Al 68,H  62)                  1.6683         0.301586   
    105. B(Al 68,Al 61)                  2.6956         0.253499   
    106. B(H  69,Al 68)                  1.6748         0.294464   
    107. B(H  70,Al 68)                  1.6035         0.382633   
    108. B(H  71,Al 60)                  1.6036         0.382430   
    109. B(Al 72,H  69)                  1.6814         0.287378   
    110. B(Al 72,Al 68)                  3.3548         0.022496   
    111. B(Al 72,H  66)                  1.6868         0.281784   
    112. B(Al 72,Al 60)                  3.3514         0.022784   
    113. B(H  73,O  19)                  2.7452         0.010000   
    114. B(H  73,Al 72)                  1.7015         0.266946   
    115. B(H  74,Al 72)                  1.6127         0.369859   
    116. B(H  74,H  49)                  2.8994         0.010000   
    117. B(H  75,Al 68)                  1.6033         0.382825   
    118. B(Al 76,H  73)                  1.6867         0.281844   
    119. B(Al 76,Al 72)                  3.2544         0.032534   
    120. B(H  77,Al 76)                  1.6028         0.383590   
    121. B(H  78,H  48)                  2.7673         0.010000   
    122. B(H  78,H  52)                  2.6540         0.010000   
    123. B(H  78,O  19)                  2.6519         0.010000   
    124. B(H  78,Al 76)                  1.6036         0.382531   
    125. B(H  78,O  17)                  2.9264         0.010000   
    126. B(H  78,C  41)                  2.8825         0.010000   
    127. B(H  78,C  43)                  2.8281         0.010000   
    128. B(Al 79,Al 76)                  2.7001         0.249339   
    129. B(Al 79,Al 72)                  2.6947         0.254314   
    130. B(H  80,Al 79)                  1.6090         0.374955   
    131. B(H  80,H  56)                  2.7974         0.010000   
    132. B(H  81,O  16)                  2.4108         0.010000   
    133. B(H  81,Al 79)                  1.6794         0.289469   
    134. B(H  81,Al 72)                  1.6837         0.284915   
    135. B(H  81,O  18)                  3.0634         0.010000   
    136. B(H  81,Zr  1)                  2.9645         0.010000   
    137. B(H  81,O  17)                  2.8623         0.010000   
    138. B(H  81,O  19)                  2.8240         0.010000   
    139. B(H  82,Al 79)                  1.6857         0.282884   
    140. B(H  82,Al 72)                  1.6911         0.277368   
    141. B(H  83,Al 79)                  1.6703         0.299299   
    142. B(H  83,Al 76)                  1.6714         0.298091   
    143. B(H  83,H  48)                  2.9263         0.010000   
    144. A(Zr  3,Zr  0,O  13)           74.1014         0.365604   
    145. A(O   6,Zr  0,O  15)          137.7766         0.488979   
    146. A(O   6,Zr  0,O  11)           65.9641         0.453977   
    147. A(Zr  3,Zr  0,O   9)           37.2689         0.322360   
    148. A(O   9,Zr  0,O  11)           97.1240         0.433164   
    149. A(O  14,Zr  0,O  15)           73.6697         0.502100   
    150. A(O  11,Zr  0,O  14)           68.9783         0.465951   
    151. A(O  11,Zr  0,O  13)          164.5397         0.496941   
    152. A(Zr  5,Zr  0,O  15)          143.5923         0.349755   
    153. A(O  12,Zr  0,O  14)           82.9219         0.517767   
    154. A(Zr  3,Zr  0,O   6)           36.0895         0.336472   
    155. A(Zr  3,Zr  0,O  12)          104.8469         0.363884   
    156. A(Zr  5,Zr  0,O  12)           70.9905         0.359644   
    157. A(Zr  5,Zr  0,O  14)           95.3775         0.340648   
    158. A(O  13,Zr  0,O  15)           83.0123         0.536063   
    159. A(Zr  5,Zr  0,O   6)           36.8822         0.332655   
    160. A(O   6,Zr  0,O  12)           82.9263         0.504148   
    161. A(O   6,Zr  0,O  13)           99.0536         0.506746   
    162. A(O   9,Zr  0,O  13)           79.3555         0.482924   
    163. A(O   9,Zr  0,O  12)          141.3998         0.480474   
    164. A(O  11,Zr  0,O  15)          110.4323         0.479592   
    165. A(O  11,Zr  0,O  12)           91.5875         0.494405   
    166. A(O   6,Zr  0,O  14)          132.1101         0.475010   
    167. A(Zr  3,Zr  0,O  15)          108.0359         0.353840   
    168. A(O  12,Zr  0,O  15)          138.5223         0.533283   
    169. A(O   9,Zr  0,O  15)           72.1699         0.466170   
    170. A(Zr  5,Zr  0,O   9)           95.2172         0.318761   
    171. A(Zr  5,Zr  0,O  13)          129.2006         0.361337   
    172. A(Zr  3,Zr  0,O  14)          161.6486         0.344591   
    173. A(O  12,Zr  0,O  13)           82.3793         0.553018   
    174. A(Zr  5,Zr  0,O  11)           35.6461         0.326937   
    175. A(O   9,Zr  0,O  14)          135.1981         0.452998   
    176. A(O   6,Zr  0,O   9)           66.9291         0.441436   
    177. A(Zr  3,Zr  0,Zr  5)           72.2427         0.250333   
    178. A(O  13,Zr  0,O  14)          123.8913         0.520450   
    179. A(Zr  3,Zr  0,O  11)           93.9009         0.330664   
    180. A(O   8,Zr  1,O  10)          100.7192         0.435268   
    181. A(Zr  2,Zr  1,H  81)          136.4800         0.166720   
    182. A(Zr  4,Zr  1,O  10)           37.5716         0.335799   
    183. A(Zr  2,Zr  1,O  10)           95.5531         0.322900   
    184. A(O   7,Zr  1,O   8)           65.3751         0.447790   
    185. A(O   8,Zr  1,O  19)          166.2398         0.496008   
    186. A(Zr  4,Zr  1,O   7)           36.7831         0.344724   
    187. A(O  17,Zr  1,H  81)           66.6200         0.211784   
    188. A(O   7,Zr  1,H  81)          157.1036         0.205559   
    189. A(O  10,Zr  1,H  81)          127.9402         0.201491   
    190. A(Zr  2,Zr  1,O  18)           69.9846         0.362323   
    191. A(Zr  4,Zr  1,O  16)          164.9296         0.359360   
    192. A(O   7,Zr  1,O  10)           65.5095         0.439786   
    193. A(Zr  2,Zr  1,O   7)           35.8941         0.331358   
    194. A(Zr  2,Zr  1,O  16)           98.1973         0.345229   
    195. A(O  16,Zr  1,O  19)          119.9616         0.524917   
    196. A(Zr  2,Zr  1,O   8)           36.2890         0.328237   
    197. A(O  10,Zr  1,O  16)          135.5073         0.459863   
    198. A(O  10,Zr  1,O  18)          141.6238         0.484604   
    199. A(Zr  4,Zr  1,O  18)          104.5945         0.377396   
    200. A(Zr  4,Zr  1,O   8)           97.3484         0.341430   
    201. A(Zr  2,Zr  1,O  17)          143.7145         0.344301   
    202. A(Zr  4,Zr  1,O  17)          106.6101         0.358380   
    203. A(O  19,Zr  1,H  81)           66.2582         0.221224   
    204. A(O   7,Zr  1,O  18)           85.4442         0.498910   
    205. A(O  17,Zr  1,O  18)          140.1313         0.520801   
    206. A(O  10,Zr  1,O  19)           79.7024         0.486928   
    207. A(O  17,Zr  1,O  19)           81.7296         0.523337   
    208. A(O  16,Zr  1,O  18)           82.6315         0.522371   
    209. A(Zr  4,Zr  1,O  19)           74.4740         0.379090   
    210. A(O  16,Zr  1,O  17)           73.4376         0.493796   
    211. A(O  18,Zr  1,H  81)           73.5230         0.220452   
    212. A(O   8,Zr  1,O  16)           69.3363         0.468326   
    213. A(O   8,Zr  1,O  18)           88.1762         0.493631   
    214. A(O  10,Zr  1,O  17)           70.6092         0.458519   
    215. A(O  16,Zr  1,H  81)           53.7628         0.212231   
    216. A(O   8,Zr  1,O  17)          111.5155         0.466951   
    217. A(O   7,Zr  1,O  19)          103.0164         0.501318   
    218. A(Zr  2,Zr  1,O  19)          130.0029         0.363928   
    219. A(Zr  2,Zr  1,Zr  4)           72.6373         0.259513   
    220. A(O  18,Zr  1,O  19)           83.3572         0.553998   
    221. A(O   7,Zr  1,O  16)          133.3820         0.473274   
    222. A(Zr  4,Zr  1,H  81)          140.6795         0.171006   
    223. A(O   7,Zr  1,O  17)          133.9599         0.471882   
    224. A(O   8,Zr  1,H  81)          121.5293         0.204058   
    225. A(O   7,Zr  2,O   8)           66.5027         0.467476   
    226. A(Zr  5,Zr  2,O  23)          154.8296         0.344120   
    227. A(Zr  5,Zr  2,O  20)           71.8482         0.357963   
    228. A(Zr  1,Zr  2,O  21)          143.7715         0.350619   
    229. A(O  21,Zr  2,O  23)           80.1831         0.506422   
    230. A(O   7,Zr  2,O  21)          108.8057         0.490951   
    231. A(Zr  5,Zr  2,O  21)          106.0607         0.347859   
    232. A(O  20,Zr  2,O  21)           83.3414         0.529071   
    233. A(O   7,Zr  2,O  22)          100.5747         0.507329   
    234. A(Zr  1,Zr  2,O  11)           89.1216         0.334802   
    235. A(Zr  1,Zr  2,O  22)           74.5573         0.361279   
    236. A(O  11,Zr  2,O  21)           72.7369         0.486934   
    237. A(Zr  5,Zr  2,O   7)           83.5395         0.334665   
    238. A(O  11,Zr  2,O  23)          134.5323         0.481186   
    239. A(Zr  1,Zr  2,O  23)           92.0125         0.346840   
    240. A(O  11,Zr  2,O  20)           79.2905         0.502467   
    241. A(O  11,Zr  2,O  22)          142.5234         0.503148   
    242. A(O  20,Zr  2,O  23)          133.3110         0.522715   
    243. A(O   8,Zr  2,O  23)          128.6525         0.482043   
    244. A(O   7,Zr  2,O  11)           83.4779         0.466651   
    245. A(O   7,Zr  2,O  23)           71.4537         0.485146   
    246. A(O  21,Zr  2,O  22)          137.2162         0.529796   
    247. A(O  20,Zr  2,O  22)           82.7664         0.547002   
    248. A(O  22,Zr  2,O  23)           80.5394         0.523430   
    249. A(O   8,Zr  2,O  22)           79.5714         0.504052   
    250. A(Zr  1,Zr  2,O   8)           36.9947         0.335339   
    251. A(O   8,Zr  2,O  11)           67.8768         0.463693   
    252. A(O   8,Zr  2,O  21)          140.6076         0.487803   
    253. A(Zr  5,Zr  2,O   8)           36.0838         0.332740   
    254. A(Zr  1,Zr  2,O  20)          124.6359         0.360831   
    255. A(Zr  1,Zr  2,Zr  5)           68.3251         0.248896   
    256. A(Zr  5,Zr  2,O  11)           35.3324         0.332209   
    257. A(Zr  5,Zr  2,O  22)          107.5698         0.358406   
    258. A(O   8,Zr  2,O  20)           90.0128         0.503370   
    259. A(O   7,Zr  2,O  20)          154.9041         0.506641   
    260. A(Zr  1,Zr  2,O   7)           36.4704         0.337284   
    261. A(O  24,Zr  3,O  25)           81.0929         0.517299   
    262. A(Zr  0,Zr  3,O  26)          154.2589         0.354228   
    263. A(O   6,Zr  3,O  25)           90.6505         0.510912   
    264. A(O  10,Zr  3,O  24)          121.3070         0.465968   
    265. A(Zr  0,Zr  3,O  10)           92.2332         0.333448   
    266. A(O   6,Zr  3,O  24)           70.0447         0.472872   
    267. A(Zr  4,Zr  3,O  24)          150.1818         0.334724   
    268. A(Zr  4,Zr  3,O  25)          119.9684         0.359074   
    269. A(O   9,Zr  3,O  27)           83.8403         0.499687   
    270. A(O  24,Zr  3,O  27)          135.5664         0.513948   
    271. A(O  10,Zr  3,O  27)           86.1210         0.500082   
    272. A(Zr  4,Zr  3,O  27)           71.6420         0.356961   
    273. A(Zr  4,Zr  3,O  10)           35.2463         0.326707   
    274. A(Zr  0,Zr  3,O  27)          116.2350         0.364560   
    275. A(O  25,Zr  3,O  26)          128.7431         0.538545   
    276. A(O  24,Zr  3,O  26)           74.6195         0.498014   
    277. A(O  10,Zr  3,O  26)           71.8806         0.484668   
    278. A(O   9,Zr  3,O  26)          139.5733         0.484288   
    279. A(O   6,Zr  3,O   9)           68.0592         0.459990   
    280. A(O  10,Zr  3,O  25)          155.2065         0.503324   
    281. A(O   9,Zr  3,O  25)           87.4888         0.502926   
    282. A(Zr  0,Zr  3,O  25)           72.6416         0.366733   
    283. A(O   6,Zr  3,O  10)           87.9506         0.460347   
    284. A(O   9,Zr  3,O  10)           69.0541         0.453318   
    285. A(O   9,Zr  3,O  24)          136.3073         0.465606   
    286. A(Zr  0,Zr  3,O   9)           38.3984         0.333213   
    287. A(Zr  0,Zr  3,O   6)           36.2294         0.337925   
    288. A(Zr  0,Zr  3,O  24)           98.2495         0.341692   
    289. A(O  26,Zr  3,O  27)           83.5756         0.535028   
    290. A(Zr  4,Zr  3,O   6)           87.7193         0.331060   
    291. A(O  25,Zr  3,O  27)           83.3822         0.556058   
    292. A(O   6,Zr  3,O  26)          120.7436         0.491915   
    293. A(O   6,Zr  3,O  27)          151.5284         0.507611   
    294. A(Zr  0,Zr  3,Zr  4)           71.6086         0.248342   
    295. A(Zr  4,Zr  3,O  26)          102.0972         0.346914   
    296. A(Zr  4,Zr  3,O   9)           37.5580         0.326478   
    297. A(Zr  3,Zr  4,O  30)          104.1057         0.357157   
    298. A(O  29,Zr  4,O  31)           76.8707         0.516513   
    299. A(O  30,Zr  4,O  31)           81.0234         0.519189   
    300. A(O  28,Zr  4,O  31)          130.0500         0.520002   
    301. A(O  10,Zr  4,O  31)          126.0833         0.479599   
    302. A(O   9,Zr  4,O  31)          138.1936         0.454015   
    303. A(O   7,Zr  4,O  31)           70.6658         0.485505   
    304. A(O  10,Zr  4,O  30)           79.1737         0.510374   
    305. A(O   9,Zr  4,O  30)          139.3693         0.482774   
    306. A(Zr  1,Zr  4,O  10)           39.1349         0.351365   
    307. A(Zr  1,Zr  4,O  30)           75.6985         0.377957   
    308. A(O   9,Zr  4,O  29)           75.4074         0.480324   
    309. A(O   7,Zr  4,O  29)          100.5748         0.514084   
    310. A(Zr  1,Zr  4,O  29)          138.2522         0.376160   
    311. A(O   9,Zr  4,O  28)           77.3707         0.483518   
    312. A(O   7,Zr  4,O  28)          159.1795         0.517554   
    313. A(O   7,Zr  4,O   9)           84.4026         0.451941   
    314. A(Zr  3,Zr  4,O   7)           84.9425         0.336161   
    315. A(O   7,Zr  4,O  10)           67.6929         0.477380   
    316. A(O   9,Zr  4,O  10)           68.6072         0.446535   
    317. A(Zr  1,Zr  4,O   9)           92.9178         0.334180   
    318. A(Zr  1,Zr  4,O   7)           37.7975         0.355332   
    319. A(Zr  3,Zr  4,O  10)           35.8057         0.332479   
    320. A(Zr  3,Zr  4,O  29)          111.2151         0.355490   
    321. A(O   7,Zr  4,O  30)          106.0359         0.516745   
    322. A(O  10,Zr  4,O  29)          142.8721         0.507753   
    323. A(O  28,Zr  4,O  30)           82.2189         0.553960   
    324. A(Zr  1,Zr  4,Zr  3)           71.1235         0.255966   
    325. A(Zr  1,Zr  4,O  28)          132.5166         0.378503   
    326. A(O  28,Zr  4,O  29)           84.6160         0.551068   
    327. A(Zr  1,Zr  4,O  31)           87.4127         0.356854   
    328. A(Zr  3,Zr  4,O  31)          155.4754         0.337573   
    329. A(O  10,Zr  4,O  28)           95.9662         0.511170   
    330. A(O  29,Zr  4,O  30)          137.1633         0.550196   
    331. A(Zr  3,Zr  4,O  28)           74.4331         0.357664   
    332. A(Zr  3,Zr  4,O   9)           36.5241         0.316531   
    333. A(O   6,Zr  5,O  32)           71.5985         0.477285   
    334. A(O  32,Zr  5,O  35)          129.1953         0.530945   
    335. A(O  11,Zr  5,O  32)          131.5833         0.494534   
    336. A(Zr  0,Zr  5,O  35)          124.8795         0.358167   
    337. A(O  33,Zr  5,O  34)          137.9311         0.521632   
    338. A(O  11,Zr  5,O  34)          139.2817         0.485807   
    339. A(Zr  0,Zr  5,O   8)           92.6348         0.330497   
    340. A(O  32,Zr  5,O  33)           81.6549         0.531147   
    341. A(Zr  0,Zr  5,O  34)          144.5043         0.344194   
    342. A(O  11,Zr  5,O  33)           80.7363         0.507725   
    343. A(O   8,Zr  5,O  33)          141.5273         0.498412   
    344. A(O   6,Zr  5,O  33)           96.4394         0.489915   
    345. A(Zr  0,Zr  5,O  33)           72.8515         0.358290   
    346. A(Zr  2,Zr  5,O   6)           87.3435         0.325012   
    347. A(O   8,Zr  5,O  32)          136.0234         0.485514   
    348. A(Zr  2,Zr  5,O  32)          158.2644         0.349285   
    349. A(Zr  0,Zr  5,O  32)           95.1014         0.349806   
    350. A(Zr  0,Zr  5,O   6)           36.1659         0.325485   
    351. A(O   8,Zr  5,O  35)           77.5557         0.498225   
    352. A(O  11,Zr  5,O  35)           92.2485         0.507534   
    353. A(O   6,Zr  5,O   8)           90.8903         0.448537   
    354. A(O  34,Zr  5,O  35)           83.6188         0.521435   
    355. A(O  33,Zr  5,O  35)           82.1268         0.545321   
    356. A(O   6,Zr  5,O  35)          158.1700         0.489732   
    357. A(Zr  2,Zr  5,O  35)           72.4031         0.357628   
    358. A(O   6,Zr  5,O  34)          110.5214         0.468929   
    359. A(Zr  2,Zr  5,O  34)          106.2466         0.343683   
    360. A(O  32,Zr  5,O  34)           77.3037         0.508003   
    361. A(Zr  2,Zr  5,O  33)          106.6933         0.357751   
    362. A(O   8,Zr  5,O  11)           67.9212         0.464509   
    363. A(O   6,Zr  5,O  11)           66.1125         0.456716   
    364. A(Zr  2,Zr  5,O  11)           35.6462         0.335496   
    365. A(Zr  0,Zr  5,O  11)           36.5324         0.335990   
    366. A(Zr  0,Zr  5,Zr  2)           69.3094         0.247526   
    367. A(O   8,Zr  5,O  34)           71.6503         0.476981   
    368. A(Zr  2,Zr  5,O   8)           35.8179         0.330014   
    369. A(Zr  0,O   6,Zr  3)          107.6811         0.464942   
    370. A(Zr  0,O   6,Zr  5)          106.9519         0.451750   
    371. A(Zr  3,O   6,Zr  5)          142.3268         0.453879   
    372. A(Zr  2,O   7,Zr  4)          146.7631         0.476806   
    373. A(Zr  1,O   7,Zr  4)          105.4194         0.467549   
    374. A(Zr  1,O   7,Zr  2)          107.6355         0.461359   
    375. A(Zr  1,O   8,Zr  2)          106.7163         0.453684   
    376. A(Zr  2,O   8,Zr  5)          108.0983         0.460311   
    377. A(Zr  1,O   8,Zr  5)          128.3113         0.449605   
    378. A(Zr  3,O   9,Zr  4)          105.9179         0.437723   
    379. A(Zr  0,O   9,Zr  4)          133.2014         0.422226   
    380. A(Zr  0,O   9,Zr  3)          104.3327         0.436793   
    381. A(Zr  1,O  10,Zr  3)          133.3925         0.440363   
    382. A(Zr  3,O  10,Zr  4)          108.9480         0.462524   
    383. A(Zr  1,O  10,Zr  4)          103.2935         0.448896   
    384. A(Zr  2,O  11,Zr  5)          109.0214         0.467930   
    385. A(Zr  0,O  11,Zr  5)          107.8215         0.458973   
    386. A(Zr  0,O  11,Zr  2)          132.6597         0.454040   
    387. A(Zr  0,O  12,C  36)          128.8366         0.505147   
    388. A(Zr  0,O  13,C  37)          129.1072         0.508327   
    389. A(Zr  0,O  14,C  38)          127.4456         0.476525   
    390. A(Zr  0,O  15,C  39)          140.0382         0.492011   
    391. A(Zr  1,O  16,C  40)          126.3614         0.480371   
    392. A(C  40,O  16,H  81)          135.1178         0.177677   
    393. A(Zr  1,O  16,H  81)           82.6668         0.181052   
    394. A(Zr  1,O  17,C  41)          141.4648         0.479316   
    395. A(C  41,O  17,H  81)          138.5744         0.149976   
    396. A(Zr  1,O  17,H  81)           71.9248         0.152009   
    397. A(Zr  1,O  17,H  78)          104.2040         0.148743   
    398. A(H  78,O  17,H  81)           71.6702         0.098333   
    399. A(C  41,O  17,H  78)           75.2080         0.146815   
    400. A(H  65,O  18,H  66)           57.5526         0.104864   
    401. A(Zr  1,O  18,H  66)          108.0524         0.168669   
    402. A(C  42,O  18,H  65)          110.3395         0.171956   
    403. A(Zr  1,O  18,H  65)          104.9230         0.181052   
    404. A(C  42,O  18,H  81)          128.9073         0.140432   
    405. A(Zr  1,O  18,H  81)           68.1201         0.146071   
    406. A(Zr  1,O  18,C  42)          130.4658         0.505603   
    407. A(H  66,O  18,H  81)           57.4490         0.098836   
    408. A(H  65,O  18,H  81)          106.7652         0.100364   
    409. A(C  42,O  18,H  66)          119.9191         0.160797   
    410. A(H  78,O  19,H  81)           76.4108         0.101106   
    411. A(C  43,O  19,H  81)          153.3757         0.151867   
    412. A(H  65,O  19,H  66)           52.8785         0.100115   
    413. A(H  66,O  19,H  73)           49.5235         0.100324   
    414. A(H  66,O  19,H  78)          106.5171         0.101238   
    415. A(C  43,O  19,H  66)          111.3390         0.152552   
    416. A(Zr  1,O  19,H  66)          102.9294         0.159816   
    417. A(H  65,O  19,H  78)          145.2083         0.101686   
    418. A(C  43,O  19,H  65)           80.1617         0.154881   
    419. A(Zr  1,O  19,H  65)           95.7802         0.162410   
    420. A(H  73,O  19,H  78)           57.9355         0.101926   
    421. A(C  43,O  19,H  73)          111.8767         0.156125   
    422. A(Zr  1,O  19,H  73)          115.8951         0.163797   
    423. A(C  43,O  19,H  78)           83.9828         0.161540   
    424. A(Zr  1,O  19,H  78)          117.6119         0.169831   
    425. A(H  65,O  19,H  73)          100.1319         0.100739   
    426. A(H  66,O  19,H  81)           58.9844         0.099606   
    427. A(H  65,O  19,H  81)          106.1194         0.099995   
    428. A(H  73,O  19,H  81)           41.9774         0.100202   
    429. A(Zr  1,O  19,H  81)           73.9272         0.159052   
    430. A(Zr  1,O  19,C  43)          131.9883         0.508756   
    431. A(Zr  2,O  20,C  44)          128.1332         0.503171   
    432. A(Zr  2,O  21,C  38)          135.5300         0.487702   
    433. A(Zr  2,O  22,C  42)          125.8124         0.504400   
    434. A(Zr  2,O  23,C  45)          139.8379         0.483341   
    435. A(Zr  3,O  24,C  46)          141.2733         0.472897   
    436. A(Zr  3,O  25,C  37)          131.5581         0.509978   
    437. A(Zr  3,O  26,C  41)          131.0255         0.492420   
    438. A(Zr  3,O  27,C  47)          132.9112         0.506753   
    439. A(Zr  4,O  28,C  47)          128.6670         0.507958   
    440. A(Zr  4,O  29,C  39)          139.0938         0.506159   
    441. A(Zr  4,O  30,C  43)          130.1166         0.507424   
    442. A(C  45,O  31,H  65)           83.1513         0.160213   
    443. A(Zr  4,O  31,H  65)          113.1201         0.162121   
    444. A(Zr  4,O  31,C  45)          135.1002         0.477365   
    445. A(Zr  5,O  32,C  46)          135.1165         0.491871   
    446. A(Zr  5,O  33,C  36)          126.8410         0.503250   
    447. A(Zr  5,O  34,C  40)          137.4643         0.481351   
    448. A(Zr  5,O  35,C  44)          127.4844         0.502722   
    449. A(O  12,C  36,O  33)          127.0036         0.464719   
    450. A(O  33,C  36,H  58)          116.4769         0.364044   
    451. A(O  12,C  36,H  58)          116.5187         0.363921   
    452. A(O  13,C  37,O  25)          127.2029         0.465530   
    453. A(O  25,C  37,H  51)          116.4065         0.364462   
    454. A(O  13,C  37,H  51)          116.3906         0.364502   
    455. A(O  14,C  38,O  21)          129.6555         0.465004   
    456. A(O  21,C  38,H  50)          115.2283         0.364709   
    457. A(O  14,C  38,H  50)          115.1091         0.365211   
    458. A(O  15,C  39,O  29)          128.9564         0.468563   
    459. A(O  29,C  39,H  54)          115.5449         0.366768   
    460. A(O  15,C  39,H  54)          115.4929         0.366676   
    461. A(O  16,C  40,O  34)          129.4794         0.465247   
    462. A(O  34,C  40,H  56)          115.3388         0.364830   
    463. A(O  16,C  40,H  56)          115.1781         0.365398   
    464. A(O  17,C  41,O  26)          129.1182         0.467409   
    465. A(O  26,C  41,H  48)          115.3847         0.366474   
    466. A(O  17,C  41,H  48)          115.4954         0.365970   
    467. A(H  48,C  41,H  78)           73.0007         0.134612   
    468. A(O  26,C  41,H  78)          116.6439         0.151317   
    469. A(O  17,C  41,H  78)           78.9868         0.151204   
    470. A(O  18,C  42,O  22)          126.9025         0.464788   
    471. A(O  22,C  42,H  49)          116.4607         0.364179   
    472. A(O  18,C  42,H  49)          116.6328         0.363922   
    473. A(H  65,C  43,H  78)          131.2613         0.100015   
    474. A(O  30,C  43,H  65)           95.1397         0.152895   
    475. A(O  19,C  43,H  65)           73.1388         0.152848   
    476. A(H  52,C  43,H  78)           69.6620         0.136576   
    477. A(O  30,C  43,H  78)          132.2122         0.154038   
    478. A(O  19,C  43,H  78)           68.8284         0.153990   
    479. A(O  19,C  43,H  52)          116.4344         0.364765   
    480. A(H  52,C  43,H  65)          102.9951         0.135740   
    481. A(O  30,C  43,H  52)          116.0805         0.364968   
    482. A(O  19,C  43,O  30)          127.4849         0.465981   
    483. A(O  35,C  44,H  59)          116.2435         0.363838   
    484. A(O  20,C  44,H  59)          116.2571         0.363794   
    485. A(O  20,C  44,O  35)          127.4993         0.464212   
    486. A(O  31,C  45,H  65)           69.7986         0.153935   
    487. A(O  23,C  45,H  65)          107.7953         0.153915   
    488. A(H  55,C  45,H  65)           91.3178         0.136630   
    489. A(O  23,C  45,H  55)          114.9130         0.366345   
    490. A(O  31,C  45,H  55)          114.9077         0.366431   
    491. A(O  23,C  45,O  31)          130.1615         0.467113   
    492. A(O  24,C  46,H  57)          115.1444         0.366414   
    493. A(O  32,C  46,H  57)          115.1400         0.366717   
    494. A(O  24,C  46,O  32)          129.7147         0.467611   
    495. A(O  28,C  47,H  53)          116.2653         0.364661   
    496. A(O  27,C  47,H  53)          116.2405         0.364589   
    497. A(O  27,C  47,O  28)          127.4940         0.465697   
    498. A(C  41,H  48,H  78)           84.9505         0.116609   
    499. A(H  78,H  48,H  83)           52.1716         0.092288   
    500. A(C  41,H  48,H  83)          114.0962         0.113189   
    501. A(C  42,H  49,H  74)          108.3247         0.113628   
    502. A(H  64,H  52,H  78)          129.9100         0.092886   
    503. A(H  63,H  52,H  64)           62.1997         0.093363   
    504. A(C  43,H  52,H  64)          104.0933         0.114938   
    505. A(H  63,H  52,H  78)           85.4574         0.094088   
    506. A(C  43,H  52,H  78)           87.6903         0.119245   
    507. A(C  43,H  52,H  63)          153.0688         0.122957   
    508. A(Al 61,H  52,H  64)           32.7055         0.098176   
    509. A(Al 61,H  52,H  78)          102.7932         0.099700   
    510. A(Al 61,H  52,H  63)           31.6593         0.101013   
    511. A(C  43,H  52,Al 61)          126.7962         0.160417   
    512. A(C  45,H  55,H  65)           67.8875         0.110745   
    513. A(C  40,H  56,H  80)          112.8688         0.115896   
    514. A(H  71,Al 60,Al 72)           93.9475         0.275396   
    515. A(H  66,Al 60,Al 72)            5.1168         0.264223   
    516. A(H  65,Al 60,Al 72)          103.5033         0.275521   
    517. A(H  64,Al 60,Al 72)          107.8342         0.265815   
    518. A(Al 61,Al 60,Al 72)           75.6558         0.296421   
    519. A(H  66,Al 60,H  71)           98.6304         0.360984   
    520. A(H  65,Al 60,H  71)          146.3136         0.378521   
    521. A(H  64,Al 60,H  71)          106.2858         0.363454   
    522. A(Al 61,Al 60,H  71)           91.9839         0.410962   
    523. A(H  65,Al 60,H  66)           98.4085         0.361166   
    524. A(H  64,Al 60,H  66)          108.2205         0.347003   
    525. A(Al 61,Al 60,H  66)           77.6715         0.391663   
    526. A(H  64,Al 60,H  65)           95.5956         0.363638   
    527. A(Al 61,Al 60,H  65)          119.9986         0.411179   
    528. A(Al 61,Al 60,H  64)           36.5002         0.394412   
    529. A(H  67,Al 61,Al 68)          121.1316         0.409002   
    530. A(H  64,Al 61,Al 68)          129.8292         0.391215   
    531. A(H  63,Al 61,Al 68)          110.8024         0.407743   
    532. A(H  62,Al 61,Al 68)           36.2111         0.391374   
    533. A(Al 60,Al 61,Al 68)           96.6489         0.446832   
    534. A(H  64,Al 61,H  67)           84.9184         0.359603   
    535. A(H  63,Al 61,H  67)           81.8853         0.374402   
    536. A(H  62,Al 61,H  67)           85.7599         0.359746   
    537. A(Al 60,Al 61,H  67)          117.4883         0.409403   
    538. A(H  63,Al 61,H  64)          115.1356         0.358538   
    539. A(H  62,Al 61,H  64)          125.3639         0.344696   
    540. A(Al 60,Al 61,H  64)           36.2189         0.391592   
    541. A(H  62,Al 61,H  63)          116.5237         0.358680   
    542. A(Al 60,Al 61,H  63)          131.3791         0.408141   
    543. A(Al 60,Al 61,H  62)          109.4100         0.391752   
    544. A(H  52,Al 61,Al 68)          134.6676         0.184023   
    545. A(H  52,Al 61,H  64)           66.0574         0.169354   
    546. A(H  52,Al 61,H  63)           54.8535         0.173749   
    547. A(H  52,Al 61,H  62)          167.7859         0.169397   
    548. A(H  52,Al 61,Al 60)           77.1563         0.184142   
    549. A(H  52,Al 61,H  67)          100.4978         0.174084   
    550. A(Al 61,H  62,Al 68)          107.3425         0.346826   
    551. A(H  52,H  63,Al 61)           93.4872         0.129297   
    552. A(H  52,H  64,Al 61)           81.2371         0.118184   
    553. A(H  52,H  64,Al 60)          103.2345         0.118456   
    554. A(Al 60,H  64,Al 61)          107.2809         0.346942   
    555. A(C  43,H  65,C  45)           99.7605         0.099984   
    556. A(O  19,H  65,C  43)           26.6995         0.100166   
    557. A(O  31,H  65,C  43)           74.4427         0.101046   
    558. A(O  18,H  65,C  43)           85.0497         0.103084   
    559. A(C  43,H  65,Al 60)          104.8054         0.144993   
    560. A(O  19,H  65,C  45)          104.5803         0.100333   
    561. A(O  31,H  65,C  45)           27.0501         0.101226   
    562. A(O  18,H  65,C  45)           86.0255         0.103295   
    563. A(C  45,H  65,Al 60)          154.8280         0.145831   
    564. A(C  43,H  65,H  55)          114.4418         0.094015   
    565. A(O  19,H  65,O  31)           85.8410         0.101429   
    566. A(O  18,H  65,O  19)           59.8125         0.103532   
    567. A(O  19,H  65,Al 60)           99.8582         0.146776   
    568. A(O  18,H  65,O  31)           93.1930         0.104677   
    569. A(O  31,H  65,Al 60)          165.3575         0.151326   
    570. A(O  18,H  65,Al 60)          101.3404         0.161872   
    571. A(C  45,H  65,H  55)           20.7947         0.094090   
    572. A(O  19,H  65,H  55)          124.4150         0.094174   
    573. A(O  31,H  65,H  55)           40.4046         0.094582   
    574. A(O  18,H  65,H  55)          101.6517         0.095526   
    575. A(H  55,H  65,Al 60)          135.7197         0.114946   
    576. A(O  18,H  66,O  19)           57.4046         0.101133   
    577. A(O  19,H  66,Al 72)           92.9229         0.140976   
    578. A(O  19,H  66,Al 60)           96.2746         0.141358   
    579. A(O  18,H  66,Al 72)           95.9450         0.147818   
    580. A(O  18,H  66,Al 60)           92.7404         0.148250   
    581. A(Al 60,H  66,Al 72)          169.7931         0.342818   
    582. A(Al 72,Al 68,H  75)           93.4198         0.274904   
    583. A(H  70,Al 68,H  75)          156.5791         0.378429   
    584. A(H  69,Al 68,H  75)           92.4771         0.361770   
    585. A(H  62,Al 68,H  75)           96.6336         0.363249   
    586. A(Al 61,Al 68,H  75)          108.7933         0.410635   
    587. A(H  70,Al 68,Al 72)           94.4562         0.274882   
    588. A(H  62,Al 68,Al 72)          110.6379         0.265133   
    589. A(Al 61,Al 68,Al 72)           75.5767         0.295567   
    590. A(H  69,Al 68,H  70)           94.8324         0.361739   
    591. A(H  62,Al 68,H  70)          101.1346         0.363218   
    592. A(Al 61,Al 68,H  70)           94.5310         0.410599   
    593. A(H  62,Al 68,H  69)          112.0763         0.347434   
    594. A(Al 61,Al 68,H  69)           77.1250         0.392088   
    595. A(Al 61,Al 68,H  62)           36.4464         0.393732   
    596. L(Al 68,H  69,Al 72,Al 60, 2) 177.2563         0.344627   
    597. L(Al 68,H  69,Al 72,Al 60, 1) 178.1857         0.344627   
    598. A(H  81,Al 72,H  82)           73.6235         0.340699   
    599. A(Al 79,Al 72,H  82)           36.9910         0.388230   
    600. A(Al 76,Al 72,H  82)           63.3273         0.276878   
    601. A(H  74,Al 72,H  82)          112.5150         0.356011   
    602. A(H  73,Al 72,H  82)           76.8712         0.337015   
    603. A(H  69,Al 72,H  82)           88.0323         0.341189   
    604. A(Al 68,Al 72,H  82)           88.6364         0.261828   
    605. A(H  66,Al 72,H  82)          161.0076         0.340070   
    606. A(Al 60,Al 72,H  82)          159.1008         0.262326   
    607. A(Al 79,Al 72,H  81)           36.6975         0.390053   
    608. A(Al 76,Al 72,H  81)           61.4693         0.278023   
    609. A(H  74,Al 72,H  81)          107.1225         0.357639   
    610. A(H  73,Al 72,H  81)           72.2639         0.338526   
    611. A(H  69,Al 72,H  81)          148.4922         0.342726   
    612. A(Al 68,Al 72,H  81)          147.6247         0.262881   
    613. A(H  66,Al 72,H  81)          110.7847         0.341600   
    614. A(Al 60,Al 72,H  81)          115.8534         0.263382   
    615. A(Al 76,Al 72,Al 79)           52.9719         0.313719   
    616. A(H  74,Al 72,Al 79)          116.6772         0.408369   
    617. A(H  73,Al 72,Al 79)           68.9273         0.385647   
    618. A(H  69,Al 72,Al 79)          119.9963         0.390641   
    619. A(Al 68,Al 72,Al 79)          120.0530         0.295717   
    620. A(H  66,Al 72,Al 79)          143.2675         0.389302   
    621. A(Al 60,Al 72,Al 79)          147.7112         0.296313   
    622. A(H  74,Al 72,Al 76)          168.3061         0.289523   
    623. A(H  73,Al 72,Al 76)           16.0807         0.275257   
    624. A(H  69,Al 72,Al 76)           87.5366         0.278392   
    625. A(Al 68,Al 72,Al 76)           86.4708         0.218792   
    626. A(H  66,Al 72,Al 76)          101.7490         0.277551   
    627. A(Al 60,Al 72,Al 76)          103.5400         0.219166   
    628. A(H  73,Al 72,H  74)          170.2495         0.353707   
    629. A(H  69,Al 72,H  74)          103.4932         0.358163   
    630. A(Al 68,Al 72,H  74)          104.6372         0.273459   
    631. A(H  66,Al 72,H  74)           84.3741         0.356968   
    632. A(Al 60,Al 72,H  74)           83.4221         0.273991   
    633. A(H  69,Al 72,H  73)           78.8228         0.339013   
    634. A(Al 68,Al 72,H  73)           77.5031         0.260336   
    635. A(H  66,Al 72,H  73)           86.7945         0.337903   
    636. A(Al 60,Al 72,H  73)           88.1373         0.260830   
    637. A(H  66,Al 72,H  69)           79.2406         0.342093   
    638. A(Al 60,Al 72,H  69)           74.6734         0.263722   
    639. A(H  66,Al 72,Al 68)           78.2923         0.262447   
    640. A(Al 60,Al 72,Al 68)           73.7798         0.208739   
    641. A(Al 60,Al 72,H  66)            5.0901         0.262947   
    642. A(O  19,H  73,Al 76)           95.0939         0.143901   
    643. A(O  19,H  73,Al 72)           94.9073         0.143230   
    644. A(Al 72,H  73,Al 76)          147.6937         0.337915   
    645. A(H  49,H  74,Al 72)          119.7536         0.118302   
    646. A(Al 79,Al 76,H  83)           36.0884         0.391793   
    647. A(H  78,Al 76,H  83)           99.9171         0.362479   
    648. A(H  77,Al 76,H  83)          101.0629         0.362650   
    649. A(H  73,Al 76,H  83)          104.7458         0.344211   
    650. A(Al 72,Al 76,H  83)           88.8087         0.279968   
    651. A(H  78,Al 76,Al 79)          113.0688         0.409378   
    652. A(H  77,Al 76,Al 79)          103.1182         0.409578   
    653. A(H  73,Al 76,Al 79)           68.9202         0.387976   
    654. A(Al 72,Al 76,Al 79)           52.8208         0.312716   
    655. A(H  77,Al 76,H  78)          141.0890         0.378542   
    656. A(H  73,Al 76,H  78)          105.2483         0.359032   
    657. A(Al 72,Al 76,H  78)          111.7404         0.291058   
    658. A(H  73,Al 76,H  77)          100.5719         0.359201   
    659. A(Al 72,Al 76,H  77)          101.1124         0.291184   
    660. A(Al 72,Al 76,H  73)           16.2256         0.277560   
    661. A(C  43,H  78,H  48)          110.8295         0.095487   
    662. A(C  43,H  78,H  52)           22.6476         0.096128   
    663. A(O  19,H  78,C  43)           27.1888         0.101515   
    664. A(C  43,H  78,Al 76)          115.8066         0.145960   
    665. A(H  48,H  78,H  52)          132.7042         0.093124   
    666. A(O  19,H  78,H  48)           96.9136         0.096241   
    667. A(H  48,H  78,Al 76)          108.2073         0.121956   
    668. A(O  19,H  78,H  52)           45.0833         0.096956   
    669. A(H  52,H  78,Al 76)          106.3512         0.125210   
    670. A(O  19,H  78,Al 76)          100.8395         0.152577   
    671. A(O  17,H  78,C  41)           25.8053         0.098521   
    672. A(O  17,H  78,C  43)           76.1882         0.098961   
    673. A(O  17,H  78,H  48)           41.4287         0.094763   
    674. A(O  17,H  78,H  52)           98.5265         0.095332   
    675. A(O  17,H  78,O  19)           56.3291         0.100118   
    676. A(O  17,H  78,Al 76)          105.3554         0.139603   
    677. A(C  41,H  78,C  43)           88.7835         0.099717   
    678. A(C  41,H  78,H  48)           22.0488         0.095201   
    679. A(C  41,H  78,H  52)          110.8179         0.095813   
    680. A(O  19,H  78,C  41)           76.6437         0.100962   
    681. A(C  41,H  78,Al 76)          120.2885         0.143444   
    682. A(H  82,Al 79,H  83)          110.1016         0.344657   
    683. A(H  81,Al 79,H  83)          104.5979         0.345992   
    684. A(H  80,Al 79,H  83)          120.8270         0.361493   
    685. A(Al 76,Al 79,H  83)           36.1159         0.392070   
    686. A(Al 72,Al 79,H  83)          110.1938         0.393428   
    687. A(H  81,Al 79,H  82)           73.8705         0.342732   
    688. A(H  80,Al 79,H  82)          124.2268         0.358036   
    689. A(Al 76,Al 79,H  82)           79.7372         0.388226   
    690. A(Al 72,Al 79,H  82)           37.1284         0.389567   
    691. A(H  80,Al 79,H  81)          110.9205         0.359441   
    692. A(Al 76,Al 79,H  81)           77.7842         0.389788   
    693. A(Al 72,Al 79,H  81)           36.8074         0.391136   
    694. A(Al 76,Al 79,H  80)          155.6415         0.407930   
    695. A(Al 72,Al 79,H  80)          126.7192         0.409360   
    696. A(Al 72,Al 79,Al 76)           74.2073         0.445308   
    697. A(H  56,H  80,Al 79)          116.7999         0.120996   
    698. A(O  16,H  81,O  19)           83.3541         0.103793   
    699. A(O  19,H  81,Al 79)          133.7242         0.140730   
    700. A(O  19,H  81,Al 72)           92.5326         0.140545   
    701. A(O  16,H  81,Al 79)          110.8434         0.161937   
    702. A(O  16,H  81,Al 72)          131.5815         0.161675   
    703. A(Al 72,H  81,Al 79)          106.4951         0.343143   
    704. A(Zr  1,H  81,O  18)           38.3569         0.105228   
    705. A(O  17,H  81,O  18)           79.8086         0.097328   
    706. A(O  18,H  81,O  19)           52.9149         0.097598   
    707. A(O  16,H  81,O  18)           56.8830         0.101123   
    708. A(O  18,H  81,Al 79)          167.2243         0.131392   
    709. A(O  18,H  81,Al 72)           82.4428         0.131240   
    710. A(Zr  1,H  81,O  17)           41.4552         0.108182   
    711. A(Zr  1,H  81,O  19)           39.8146         0.108803   
    712. A(Zr  1,H  81,O  16)           43.5704         0.116922   
    713. A(Zr  1,H  81,Al 79)          136.3211         0.186641   
    714. A(Zr  1,H  81,Al 72)          116.2235         0.186291   
    715. A(O  17,H  81,O  19)           55.4134         0.099162   
    716. A(O  16,H  81,O  17)           54.9613         0.103329   
    717. A(O  17,H  81,Al 79)           95.9864         0.139106   
    718. A(O  17,H  81,Al 72)          147.8132         0.138927   
    719. A(Al 72,H  82,Al 79)          105.8806         0.340291   
    720. A(Al 76,H  83,Al 79)          107.7958         0.347705   
    721. A(H  48,H  83,Al 79)          112.1460         0.116313   
    722. A(H  48,H  83,Al 76)           99.6801         0.116288   
    723. D(Zr  5,Zr  2,Zr  1,Zr  4)    107.3012         0.010000   
    724. D(O   7,Zr  2,Zr  1,Zr  4)     -2.2102         0.010000   
    725. D(Zr  5,Zr  2,Zr  1,O   7)    109.5114         0.010000   
    726. D(Zr  4,Zr  3,Zr  0,O   6)   -112.5098         0.010000   
    727. D(Zr  4,Zr  3,Zr  0,Zr  5)   -103.0857         0.010000   
    728. D(O   6,Zr  3,Zr  0,Zr  5)      9.4241         0.010000   
    729. D(O   7,Zr  4,Zr  3,Zr  0)     64.7123         0.010000   
    730. D(O   7,Zr  4,Zr  1,Zr  2)      2.1640         0.010000   
    731. D(Zr  3,Zr  4,Zr  1,Zr  2)   -104.6235         0.010000   
    732. D(Zr  1,Zr  4,Zr  3,Zr  0)    100.8018         0.010000   
    733. D(Zr  1,Zr  4,Zr  3,O   6)     67.6797         0.010000   
    734. D(Zr  3,Zr  4,Zr  1,O   7)   -106.7875         0.010000   
    735. D(Zr  0,Zr  5,Zr  2,Zr  1)   -103.4460         0.010000   
    736. D(Zr  2,Zr  5,Zr  0,Zr  3)    106.3928         0.010000   
    737. D(Zr  2,Zr  5,Zr  0,O   6)    115.6407         0.010000   
    738. D(O   6,Zr  5,Zr  2,Zr  1)    -71.2657         0.010000   
    739. D(Zr  0,Zr  5,Zr  2,O   7)    -69.1232         0.010000   
    740. D(O   6,Zr  5,Zr  0,Zr  3)     -9.2479         0.010000   
    741. D(Zr  0,O   6,Zr  5,Zr  2)    -57.5955         0.010000   
    742. D(Zr  3,O   6,Zr  5,Zr  0)    156.1055         0.010000   
    743. D(Zr  5,O   6,Zr  3,Zr  0)   -156.0046         0.010000   
    744. D(Zr  3,O   6,Zr  0,Zr  5)   -164.9403         0.010000   
    745. D(Zr  0,O   6,Zr  3,O   9)     28.3845         0.010000   
    746. D(Zr  5,O   6,Zr  0,Zr  3)    164.9403         0.010000   
    747. D(Zr  3,O   6,Zr  0,O   9)    -27.8574         0.010000   
    748. D(Zr  0,O   6,Zr  3,Zr  4)     61.3212         0.010000   
    749. D(Zr  0,O   6,Zr  5,O   8)    -93.2475         0.010000   
    750. D(Zr  1,O   7,Zr  2,Zr  5)    -61.8272         0.010000   
    751. D(Zr  4,O   7,Zr  1,Zr  2)   -176.4758         0.010000   
    752. D(Zr  2,O   7,Zr  1,O   8)     28.4753         0.010000   
    753. D(Zr  1,O   7,Zr  2,O   8)    -28.7180         0.010000   
    754. D(Zr  2,O   7,Zr  1,Zr  4)    176.4758         0.010000   
    755. D(Zr  1,O   7,Zr  4,O   9)    102.1115         0.010000   
    756. D(Zr  2,O   7,Zr  4,Zr  1)   -173.8645         0.010000   
    757. D(Zr  1,O   7,Zr  4,Zr  3)     65.4272         0.010000   
    758. D(Zr  4,O   7,Zr  2,Zr  1)    173.7934         0.010000   
    759. D(Zr  1,O   8,Zr  5,Zr  2)   -130.0805         0.010000   
    760. D(Zr  2,O   8,Zr  5,Zr  0)     48.0751         0.010000   
    761. D(Zr  1,O   8,Zr  5,Zr  0)    -82.0053         0.010000   
    762. D(Zr  5,O   8,Zr  2,Zr  1)   -141.1811         0.010000   
    763. D(Zr  1,O   8,Zr  2,Zr  5)    141.1811         0.010000   
    764. D(Zr  2,O   8,Zr  1,Zr  4)    -46.8420         0.010000   
    765. D(Zr  1,O   8,Zr  2,O   7)     28.3361         0.010000   
    766. D(Zr  2,O   8,Zr  1,O   7)    -28.1832         0.010000   
    767. D(Zr  5,O   8,Zr  1,Zr  2)    130.5908         0.010000   
    768. D(Zr  3,O   9,Zr  4,Zr  1)    -52.1841         0.010000   
    769. D(Zr  0,O   9,Zr  4,Zr  3)    128.3870         0.010000   
    770. D(Zr  0,O   9,Zr  4,Zr  1)     76.2030         0.010000   
    771. D(Zr  4,O   9,Zr  3,Zr  0)    143.8619         0.010000   
    772. D(Zr  0,O   9,Zr  3,O   6)    -26.8941         0.010000   
    773. D(Zr  0,O   9,Zr  3,Zr  4)   -143.8619         0.010000   
    774. D(Zr  3,O   9,Zr  0,O   6)     27.0350         0.010000   
    775. D(Zr  3,O   9,Zr  0,Zr  5)     51.2638         0.010000   
    776. D(Zr  4,O   9,Zr  0,Zr  3)   -128.9227         0.010000   
    777. D(Zr  3,O  10,Zr  4,Zr  1)    145.8390         0.010000   
    778. D(Zr  1,O  10,Zr  4,Zr  3)   -145.8390         0.010000   
    779. D(Zr  4,O  10,Zr  3,Zr  0)    -52.9640         0.010000   
    780. D(Zr  1,O  10,Zr  3,Zr  4)    131.2334         0.010000   
    781. D(Zr  1,O  10,Zr  4,O   7)    -31.8934         0.010000   
    782. D(Zr  4,O  10,Zr  1,Zr  2)     51.8228         0.010000   
    783. D(Zr  3,O  10,Zr  1,Zr  4)   -133.0411         0.010000   
    784. D(Zr  1,O  10,Zr  3,Zr  0)     78.2694         0.010000   
    785. D(Zr  3,O  10,Zr  1,Zr  2)    -81.2183         0.010000   
    786. D(Zr  2,O  11,Zr  0,Zr  3)     87.9093         0.010000   
    787. D(Zr  0,O  11,Zr  5,Zr  2)    149.7390         0.010000   
    788. D(Zr  0,O  11,Zr  5,O   6)     27.6947         0.010000   
    789. D(Zr  0,O  11,Zr  2,Zr  5)   -139.2783         0.010000   
    790. D(Zr  5,O  11,Zr  2,Zr  1)     51.8961         0.010000   
    791. D(Zr  2,O  11,Zr  0,Zr  5)    139.6202         0.010000   
    792. D(Zr  5,O  11,Zr  0,Zr  3)    -51.7109         0.010000   
    793. D(Zr  2,O  11,Zr  5,Zr  0)   -149.7390         0.010000   
    794. D(Zr  0,O  11,Zr  2,Zr  1)    -87.3821         0.010000   
    795. D(C  36,O  12,Zr  0,Zr  5)     31.7895         0.010000   
    796. D(C  36,O  12,Zr  0,Zr  3)     96.6360         0.010000   
    797. D(C  37,O  13,Zr  0,Zr  5)    -30.6066         0.010000   
    798. D(C  37,O  13,Zr  0,Zr  3)     19.4880         0.010000   
    799. D(C  38,O  14,Zr  0,Zr  5)     74.9257         0.010000   
    800. D(C  38,O  14,Zr  0,Zr  3)     28.4925         0.010000   
    801. D(C  39,O  15,Zr  0,Zr  5)     45.4986         0.010000   
    802. D(C  39,O  15,Zr  0,Zr  3)    -38.8267         0.010000   
    803. D(H  81,O  16,Zr  1,Zr  2)   -143.3917         0.010000   
    804. D(C  40,O  16,Zr  1,Zr  2)     74.1990         0.010000   
    805. D(C  40,O  16,Zr  1,Zr  4)     22.8520         0.010000   
    806. D(H  81,O  17,Zr  1,Zr  2)   -138.2481         0.010000   
    807. D(C  41,O  17,Zr  1,Zr  4)    -10.2607         0.010000   
    808. D(C  41,O  17,Zr  1,Zr  2)     72.8531         0.010000   
    809. D(H  65,O  18,Zr  1,Zr  2)   -101.7453         0.010000   
    810. D(C  42,O  18,Zr  1,Zr  4)     97.6679         0.010000   
    811. D(C  42,O  18,Zr  1,Zr  2)     32.6946         0.010000   
    812. D(H  78,O  19,Zr  1,Zr  2)   -163.5689         0.010000   
    813. D(C  43,O  19,Zr  1,Zr  4)     -5.0161         0.010000   
    814. D(C  43,O  19,Zr  1,Zr  2)    -55.4130         0.010000   
    815. D(C  44,O  20,Zr  2,Zr  5)     29.4787         0.010000   
    816. D(C  44,O  20,Zr  2,Zr  1)    -16.1846         0.010000   
    817. D(C  38,O  21,Zr  2,Zr  5)      3.6468         0.010000   
    818. D(C  38,O  21,Zr  2,Zr  1)     78.7328         0.010000   
    819. D(C  42,O  22,Zr  2,Zr  5)     84.7707         0.010000   
    820. D(C  42,O  22,Zr  2,Zr  1)     24.0714         0.010000   
    821. D(C  45,O  23,Zr  2,Zr  5)      0.7581         0.010000   
    822. D(C  45,O  23,Zr  2,Zr  1)     38.1822         0.010000   
    823. D(C  46,O  24,Zr  3,Zr  4)     38.6257         0.010000   
    824. D(C  46,O  24,Zr  3,Zr  0)    -28.5338         0.010000   
    825. D(C  37,O  25,Zr  3,Zr  4)    -36.5253         0.010000   
    826. D(C  37,O  25,Zr  3,Zr  0)     19.2931         0.010000   
    827. D(C  41,O  26,Zr  3,Zr  4)     62.2255         0.010000   
    828. D(C  41,O  26,Zr  3,Zr  0)    -10.4112         0.010000   
    829. D(C  47,O  27,Zr  3,Zr  4)    -17.8329         0.010000   
    830. D(C  47,O  27,Zr  3,Zr  0)     39.8815         0.010000   
    831. D(C  47,O  28,Zr  4,Zr  3)    -18.9392         0.010000   
    832. D(C  47,O  28,Zr  4,Zr  1)     25.7388         0.010000   
    833. D(C  39,O  29,Zr  4,Zr  3)     19.1871         0.010000   
    834. D(C  39,O  29,Zr  4,Zr  1)    -65.8645         0.010000   
    835. D(C  43,O  30,Zr  4,Zr  1)     -2.3963         0.010000   
    836. D(C  43,O  30,Zr  4,Zr  3)    -68.2973         0.010000   
    837. D(H  65,O  31,Zr  4,Zr  1)     35.5053         0.010000   
    838. D(C  45,O  31,Zr  4,Zr  3)    -40.2161         0.010000   
    839. D(C  45,O  31,Zr  4,Zr  1)    -68.6620         0.010000   
    840. D(C  46,O  32,Zr  5,Zr  2)     18.8060         0.010000   
    841. D(C  46,O  32,Zr  5,Zr  0)     61.5867         0.010000   
    842. D(C  36,O  33,Zr  5,Zr  2)     89.5212         0.010000   
    843. D(C  36,O  33,Zr  5,Zr  0)     28.1129         0.010000   
    844. D(C  40,O  34,Zr  5,Zr  2)     -1.3278         0.010000   
    845. D(C  40,O  34,Zr  5,Zr  0)     75.6572         0.010000   
    846. D(C  44,O  35,Zr  5,Zr  2)     28.5864         0.010000   
    847. D(C  44,O  35,Zr  5,Zr  0)    -19.1208         0.010000   
    848. D(O  33,C  36,O  12,Zr  0)    -25.4967         0.045989   
    849. D(H  58,C  36,O  12,Zr  0)    154.8626         0.045989   
    850. D(H  58,C  36,O  33,Zr  5)    161.1876         0.046192   
    851. D(O  12,C  36,O  33,Zr  5)    -18.4533         0.046192   
    852. D(H  51,C  37,O  25,Zr  3)    166.3437         0.046549   
    853. D(O  13,C  37,O  25,Zr  3)    -13.6624         0.046549   
    854. D(H  51,C  37,O  13,Zr  0)    165.1393         0.046616   
    855. D(O  25,C  37,O  13,Zr  0)    -14.8546         0.046616   
    856. D(H  50,C  38,O  21,Zr  2)    142.5637         0.045851   
    857. D(O  14,C  38,O  21,Zr  2)    -38.4631         0.045851   
    858. D(H  50,C  38,O  14,Zr  0)    164.8248         0.046679   
    859. D(O  21,C  38,O  14,Zr  0)    -14.1495         0.046679   
    860. D(H  54,C  39,O  29,Zr  4)   -167.6177         0.048542   
    861. D(O  15,C  39,O  29,Zr  4)     13.3039         0.048542   
    862. D(H  54,C  39,O  15,Zr  0)   -179.2130         0.048384   
    863. D(O  29,C  39,O  15,Zr  0)     -0.1342         0.048384   
    864. D(H  56,C  40,O  34,Zr  5)    148.9980         0.045943   
    865. D(O  16,C  40,O  34,Zr  5)    -31.7425         0.045943   
    866. D(H  56,C  40,O  16,Zr  1)    163.3137         0.051852   
    867. D(O  34,C  40,O  16,Zr  1)    -15.9468         0.051852   
    868. D(O  34,C  40,O  16,H  81)   -136.9205         0.051852   
    869. D(H  48,C  41,O  26,Zr  3)    165.0237         0.053281   
    870. D(O  17,C  41,O  26,Zr  3)    -14.4829         0.053281   
    871. D(H  48,C  41,O  17,Zr  1)    159.3370         0.061389   
    872. D(O  26,C  41,O  17,H  81)   -153.2397         0.061389   
    873. D(O  26,C  41,O  17,Zr  1)    -21.1570         0.061389   
    874. D(H  49,C  42,O  22,Zr  2)    166.7084         0.046346   
    875. D(O  18,C  42,O  22,Zr  2)    -12.5288         0.046346   
    876. D(H  49,C  42,O  18,Zr  1)    151.4665         0.059567   
    877. D(O  22,C  42,O  18,H  65)    103.3293         0.059567   
    878. D(O  22,C  42,O  18,Zr  1)    -29.2975         0.059567   
    879. D(H  52,C  43,O  30,Zr  4)   -179.9467         0.056653   
    880. D(O  19,C  43,O  30,Zr  4)     -0.1045         0.056653   
    881. D(O  30,C  43,O  19,H  78)    127.6599         0.075931   
    882. D(O  30,C  43,O  19,Zr  1)      5.5095         0.075931   
    883. D(H  52,C  43,O  19,Zr  1)   -174.6488         0.075931   
    884. D(H  59,C  44,O  35,Zr  5)    159.4767         0.045821   
    885. D(O  20,C  44,O  35,Zr  5)    -20.4479         0.045821   
    886. D(H  59,C  44,O  20,Zr  2)    157.9681         0.045749   
    887. D(O  35,C  44,O  20,Zr  2)    -22.1073         0.045749   
    888. D(H  55,C  45,O  31,Zr  4)   -162.1824         0.057381   
    889. D(O  23,C  45,O  31,H  65)    -96.6378         0.057381   
    890. D(O  23,C  45,O  31,Zr  4)     19.4501         0.057381   
    891. D(H  55,C  45,O  23,Zr  2)   -176.8512         0.052518   
    892. D(O  31,C  45,O  23,Zr  2)      1.5162         0.052518   
    893. D(H  57,C  46,O  32,Zr  5)    167.5599         0.048124   
    894. D(O  24,C  46,O  32,Zr  5)    -12.8023         0.048124   
    895. D(H  57,C  46,O  24,Zr  3)    169.0135         0.047608   
    896. D(O  32,C  46,O  24,Zr  3)    -10.6244         0.047608   
    897. D(H  53,C  47,O  28,Zr  4)   -164.7325         0.046744   
    898. D(O  27,C  47,O  28,Zr  4)     15.4080         0.046744   
    899. D(H  53,C  47,O  27,Zr  3)   -168.0529         0.046625   
    900. D(O  28,C  47,O  27,Zr  3)     11.8066         0.046625   
    901. D(H  83,H  48,C  41,O  17)    -24.0223         0.136980   
    902. D(H  78,H  48,C  41,O  26)    111.9614         0.136980   
    903. D(H  78,H  48,C  41,O  17)    -68.4628         0.136980   
    904. D(H  74,H  49,C  42,O  22)    155.4503         0.108115   
    905. D(H  74,H  49,C  42,O  18)    -25.2322         0.108115   
    906. D(H  78,H  52,C  43,O  19)     52.0897         0.162165   
    907. D(H  63,H  52,C  43,O  30)    156.6880         0.162165   
    908. D(H  63,H  52,C  43,O  19)    -23.1722         0.162165   
    909. D(H  65,H  55,C  45,O  31)    -68.2749         0.126932   
    910. D(H  65,H  55,C  45,O  23)    110.3496         0.126932   
    911. D(H  80,H  56,C  40,O  34)    138.7339         0.111955   
    912. D(H  80,H  56,C  40,O  16)    -40.6346         0.111955   
    913. D(H  63,Al 61,Al 60,H  64)    -75.8293         0.010000   
    914. D(H  62,Al 61,Al 60,H  65)    177.6574         0.010000   
    915. D(H  62,Al 61,Al 60,H  64)    123.8794         0.010000   
[...]
freq.      77.09  E(vib)   ...       0.49 
freq.      80.92  E(vib)   ...       0.48 
freq.      86.59  E(vib)   ...       0.48 
freq.      91.31  E(vib)   ...       0.47 
freq.      94.34  E(vib)   ...       0.47 
freq.      94.64  E(vib)   ...       0.47 
freq.     100.42  E(vib)   ...       0.46 
freq.     101.40  E(vib)   ...       0.46 
freq.     103.95  E(vib)   ...       0.46 
freq.     106.36  E(vib)   ...       0.45 
freq.     107.18  E(vib)   ...       0.45 
freq.     109.63  E(vib)   ...       0.45 
freq.     112.39  E(vib)   ...       0.45 
freq.     116.47  E(vib)   ...       0.44 
freq.     121.93  E(vib)   ...       0.44 
freq.     125.40  E(vib)   ...       0.43 
freq.     137.09  E(vib)   ...       0.42 
freq.     142.54  E(vib)   ...       0.41 
freq.     146.38  E(vib)   ...       0.41 
freq.     147.14  E(vib)   ...       0.41 
freq.     149.25  E(vib)   ...       0.40 
freq.     151.78  E(vib)   ...       0.40 
freq.     152.59  E(vib)   ...       0.40 
freq.     154.84  E(vib)   ...       0.40 
freq.     158.58  E(vib)   ...       0.39 
freq.     159.86  E(vib)   ...       0.39 
freq.     164.22  E(vib)   ...       0.39 
freq.     164.82  E(vib)   ...       0.39 
freq.     165.42  E(vib)   ...       0.39 
freq.     169.15  E(vib)   ...       0.38 
freq.     169.90  E(vib)   ...       0.38 
freq.     174.01  E(vib)   ...       0.38 
freq.     177.41  E(vib)   ...       0.37 
freq.     185.02  E(vib)   ...       0.37 
freq.     188.24  E(vib)   ...       0.36 
freq.     190.11  E(vib)   ...       0.36 
freq.     191.94  E(vib)   ...       0.36 
freq.     192.91  E(vib)   ...       0.36 
freq.     197.61  E(vib)   ...       0.35 
freq.     199.61  E(vib)   ...       0.35 
freq.     205.91  E(vib)   ...       0.35 
freq.     209.24  E(vib)   ...       0.34 
freq.     211.33  E(vib)   ...       0.34 
freq.     212.89  E(vib)   ...       0.34 
freq.     222.76  E(vib)   ...       0.33 
freq.     226.01  E(vib)   ...       0.33 
freq.     228.58  E(vib)   ...       0.32 
freq.     231.66  E(vib)   ...       0.32 
freq.     234.45  E(vib)   ...       0.32 
freq.     237.83  E(vib)   ...       0.32 
freq.     244.59  E(vib)   ...       0.31 
freq.     256.29  E(vib)   ...       0.30 
freq.     258.36  E(vib)   ...       0.30 
freq.     260.01  E(vib)   ...       0.30 
freq.     261.95  E(vib)   ...       0.29 
freq.     264.66  E(vib)   ...       0.29 
freq.     265.72  E(vib)   ...       0.29 
freq.     267.83  E(vib)   ...       0.29 
freq.     270.07  E(vib)   ...       0.29 
freq.     271.91  E(vib)   ...       0.29 
freq.     272.83  E(vib)   ...       0.29 
freq.     273.64  E(vib)   ...       0.29 
freq.     275.46  E(vib)   ...       0.28 
freq.     279.86  E(vib)   ...       0.28 
freq.     281.77  E(vib)   ...       0.28 
freq.     284.18  E(vib)   ...       0.28 
freq.     284.28  E(vib)   ...       0.28 
freq.     286.85  E(vib)   ...       0.27 
freq.     292.90  E(vib)   ...       0.27 
freq.     294.23  E(vib)   ...       0.27 
freq.     295.12  E(vib)   ...       0.27 
freq.     299.90  E(vib)   ...       0.26 
freq.     300.83  E(vib)   ...       0.26 
freq.     303.02  E(vib)   ...       0.26 
freq.     306.81  E(vib)   ...       0.26 
freq.     309.48  E(vib)   ...       0.26 
freq.     310.38  E(vib)   ...       0.26 
freq.     312.75  E(vib)   ...       0.25 
freq.     314.49  E(vib)   ...       0.25 
freq.     318.11  E(vib)   ...       0.25 
freq.     320.36  E(vib)   ...       0.25 
freq.     322.08  E(vib)   ...       0.25 
freq.     324.29  E(vib)   ...       0.25 
freq.     329.89  E(vib)   ...       0.24 
freq.     332.51  E(vib)   ...       0.24 
freq.     338.35  E(vib)   ...       0.23 
freq.     340.78  E(vib)   ...       0.23 
freq.     348.69  E(vib)   ...       0.23 
freq.     352.55  E(vib)   ...       0.22 
freq.     353.97  E(vib)   ...       0.22 
freq.     364.94  E(vib)   ...       0.22 
freq.     367.81  E(vib)   ...       0.21 
freq.     371.67  E(vib)   ...       0.21 
freq.     380.27  E(vib)   ...       0.21 
freq.     384.67  E(vib)   ...       0.20 
freq.     394.25  E(vib)   ...       0.20 
freq.     401.81  E(vib)   ...       0.19 
freq.     402.72  E(vib)   ...       0.19 
freq.     404.47  E(vib)   ...       0.19 
freq.     413.19  E(vib)   ...       0.19 
freq.     414.72  E(vib)   ...       0.19 
freq.     417.75  E(vib)   ...       0.18 
freq.     421.96  E(vib)   ...       0.18 
freq.     423.84  E(vib)   ...       0.18 
freq.     449.77  E(vib)   ...       0.17 
freq.     460.88  E(vib)   ...       0.16 
freq.     475.21  E(vib)   ...       0.15 
freq.     479.85  E(vib)   ...       0.15 
freq.     485.68  E(vib)   ...       0.15 
freq.     487.14  E(vib)   ...       0.15 
freq.     495.61  E(vib)   ...       0.14 
freq.     519.85  E(vib)   ...       0.13 
freq.     526.75  E(vib)   ...       0.13 
freq.     541.05  E(vib)   ...       0.12 
freq.     555.89  E(vib)   ...       0.12 
freq.     601.56  E(vib)   ...       0.10 
freq.     623.22  E(vib)   ...       0.09 
freq.     629.12  E(vib)   ...       0.09 
freq.     637.20  E(vib)   ...       0.09 
freq.     655.41  E(vib)   ...       0.08 
freq.     671.47  E(vib)   ...       0.08 
freq.     682.11  E(vib)   ...       0.08 
freq.     684.26  E(vib)   ...       0.07 
freq.     686.42  E(vib)   ...       0.07 
freq.     690.28  E(vib)   ...       0.07 
freq.     691.01  E(vib)   ...       0.07 
freq.     697.03  E(vib)   ...       0.07 
freq.     709.32  E(vib)   ...       0.07 
freq.     716.39  E(vib)   ...       0.07 
freq.     721.58  E(vib)   ...       0.07 
freq.     732.52  E(vib)   ...       0.06 
freq.     734.40  E(vib)   ...       0.06 
freq.     734.87  E(vib)   ...       0.06 
freq.     735.29  E(vib)   ...       0.06 
freq.     736.69  E(vib)   ...       0.06 
freq.     737.89  E(vib)   ...       0.06 
freq.     738.14  E(vib)   ...       0.06 
freq.     738.85  E(vib)   ...       0.06 
freq.     739.47  E(vib)   ...       0.06 
freq.     739.78  E(vib)   ...       0.06 
freq.     741.53  E(vib)   ...       0.06 
freq.     742.09  E(vib)   ...       0.06 
freq.     742.45  E(vib)   ...       0.06 
freq.     746.17  E(vib)   ...       0.06 
freq.     781.18  E(vib)   ...       0.05 
freq.     790.77  E(vib)   ...       0.05 
freq.     807.02  E(vib)   ...       0.05 
freq.     828.50  E(vib)   ...       0.04 
freq.     859.94  E(vib)   ...       0.04 
freq.     937.01  E(vib)   ...       0.03 
freq.     997.10  E(vib)   ...       0.02 
freq.     997.59  E(vib)   ...       0.02 
freq.     999.61  E(vib)   ...       0.02 
freq.    1000.21  E(vib)   ...       0.02 
freq.    1000.57  E(vib)   ...       0.02 
freq.    1000.77  E(vib)   ...       0.02 
freq.    1002.00  E(vib)   ...       0.02 
freq.    1002.19  E(vib)   ...       0.02 
freq.    1006.29  E(vib)   ...       0.02 
freq.    1006.42  E(vib)   ...       0.02 
freq.    1007.10  E(vib)   ...       0.02 
freq.    1007.78  E(vib)   ...       0.02 
freq.    1007.98  E(vib)   ...       0.02 
freq.    1065.48  E(vib)   ...       0.02 
freq.    1186.84  E(vib)   ...       0.01 
freq.    1339.55  E(vib)   ...       0.01 
freq.    1344.06  E(vib)   ...       0.01 
freq.    1346.14  E(vib)   ...       0.01 
freq.    1347.70  E(vib)   ...       0.01 
freq.    1349.68  E(vib)   ...       0.01 
freq.    1353.70  E(vib)   ...       0.01 
freq.    1354.52  E(vib)   ...       0.01 
freq.    1355.20  E(vib)   ...       0.01 
freq.    1356.08  E(vib)   ...       0.01 
freq.    1357.03  E(vib)   ...       0.01 
freq.    1357.90  E(vib)   ...       0.01 
freq.    1359.12  E(vib)   ...       0.01 
freq.    1361.51  E(vib)   ...       0.01 
freq.    1362.62  E(vib)   ...       0.01 
freq.    1362.79  E(vib)   ...       0.01 
freq.    1364.40  E(vib)   ...       0.01 
freq.    1364.51  E(vib)   ...       0.01 
freq.    1364.63  E(vib)   ...       0.01 
freq.    1365.22  E(vib)   ...       0.01 
freq.    1365.50  E(vib)   ...       0.01 
freq.    1365.70  E(vib)   ...       0.01 
freq.    1369.24  E(vib)   ...       0.01 
freq.    1369.29  E(vib)   ...       0.01 
freq.    1377.29  E(vib)   ...       0.01 
freq.    1537.81  E(vib)   ...       0.00 
freq.    1547.30  E(vib)   ...       0.00 
freq.    1548.07  E(vib)   ...       0.00 
freq.    1561.43  E(vib)   ...       0.00 
freq.    1562.40  E(vib)   ...       0.00 
freq.    1567.05  E(vib)   ...       0.00 
freq.    1574.02  E(vib)   ...       0.00 
freq.    1575.55  E(vib)   ...       0.00 
freq.    1624.43  E(vib)   ...       0.00 
freq.    1628.95  E(vib)   ...       0.00 
freq.    1632.52  E(vib)   ...       0.00 
freq.    1635.42  E(vib)   ...       0.00 
freq.    1636.44  E(vib)   ...       0.00 
freq.    1649.64  E(vib)   ...       0.00 
freq.    1698.46  E(vib)   ...       0.00 
freq.    1711.32  E(vib)   ...       0.00 
freq.    1765.73  E(vib)   ...       0.00 
freq.    1795.94  E(vib)   ...       0.00 
freq.    1843.99  E(vib)   ...       0.00 
freq.    1849.63  E(vib)   ...       0.00 
freq.    1861.94  E(vib)   ...       0.00 
freq.    1874.19  E(vib)   ...       0.00 
freq.    1893.43  E(vib)   ...       0.00 
freq.    1896.61  E(vib)   ...       0.00 
freq.    1901.69  E(vib)   ...       0.00 
freq.    1906.58  E(vib)   ...       0.00 
freq.    1911.09  E(vib)   ...       0.00 
freq.    1911.95  E(vib)   ...       0.00 
freq.    1920.48  E(vib)   ...       0.00 
freq.    1990.95  E(vib)   ...       0.00 
freq.    2888.70  E(vib)   ...       0.00 
freq.    2889.14  E(vib)   ...       0.00 
freq.    2891.96  E(vib)   ...       0.00 
freq.    2893.14  E(vib)   ...       0.00 
freq.    2898.82  E(vib)   ...       0.00 
freq.    2900.13  E(vib)   ...       0.00 
freq.    2900.47  E(vib)   ...       0.00 
freq.    2904.69  E(vib)   ...       0.00 
freq.    2907.31  E(vib)   ...       0.00 
freq.    2908.06  E(vib)   ...       0.00 
freq.    2909.17  E(vib)   ...       0.00 
freq.    2917.13  E(vib)   ...       0.00 

------------
INNER ENERGY
------------

The inner energy is: U= E(el) + E(ZPE) + E(vib) + E(rot) + E(trans)
    E(el)   - is the total energy from the electronic structure calculation
              = E(kin-el) + E(nuc-el) + E(el-el) + E(nuc-nuc)
    E(ZPE)  - the the zero temperature vibrational energy from the frequency calculation
    E(vib)  - the the finite temperature correction to E(ZPE) due to population
              of excited vibrational states
    E(rot)  - is the rotational thermal energy
    E(trans)- is the translational thermal energy

Summary of contributions to the inner energy U:
Electronic energy                ...  -4464.48097766 Eh
Zero point energy                ...      0.43613569 Eh     273.68 kcal/mol
Thermal vibrational correction   ...      0.06938714 Eh      43.54 kcal/mol
Thermal rotational correction    ...      0.00141627 Eh       0.89 kcal/mol
Thermal translational correction ...      0.00141627 Eh       0.89 kcal/mol
-----------------------------------------------------------------------
Total thermal energy                  -4463.97262229 Eh


Summary of corrections to the electronic energy:
(perhaps to be used in another calculation)
Total thermal correction                  0.07221968 Eh      45.32 kcal/mol
Non-thermal (ZPE) correction              0.43613569 Eh     273.68 kcal/mol
-----------------------------------------------------------------------
Total correction                          0.50835538 Eh     319.00 kcal/mol


--------
ENTHALPY
--------

The enthalpy is H = U + kB*T
                kB is Boltzmann's constant
Total thermal energy              ...  -4463.97262229 Eh 
Thermal Enthalpy correction       ...      0.00094421 Eh       0.59 kcal/mol
-----------------------------------------------------------------------
Total Enthalpy                    ...  -4463.97167808 Eh


Note: Only C1 symmetry has been detected, increase convergence thresholds 
      if your molecule has a higher symmetry. Symmetry factor of 1.0 is   
      used for the rotational entropy correction. 
 

Note: Rotational entropy computed according to Herzberg 
Infrared and Raman Spectra, Chapter V,1, Van Nostrand Reinhold, 1945 
Point Group:  C1, Symmetry Number:   1  
Rotational constants in cm-1:     0.001676     0.000910     0.000908 

Vibrational entropy computed according to the QRRHO of S. Grimme
Chem.Eur.J. 2012 18 9955 using a reference frequency of 100.0 cm-1


-------
ENTROPY
-------

The entropy contributions are T*S = T*(S(el)+S(vib)+S(rot)+S(trans))
     S(el)   - electronic entropy
     S(vib)  - vibrational entropy
     S(rot)  - rotational entropy
     S(trans)- translational entropy
The entropies will be listed as multiplied by the temperature to get
units of energy

Electronic entropy                ...      0.00000000 Eh      0.00 kcal/mol
Vibrational entropy               ...      0.12440117 Eh     78.06 kcal/mol
Rotational entropy                ...      0.01914021 Eh     12.01 kcal/mol
Translational entropy             ...      0.02257151 Eh     14.16 kcal/mol
-----------------------------------------------------------------------
Final entropy term                ...      0.16611289 Eh    104.24 kcal/mol

In case the symmetry of your molecule has not been determined correctly
or in case you have a reason to use a different symmetry number we print 
out the resulting rotational entropy values for sn=1,12:

 non-linear molecules -----------------------------------
|  sn= 1 | S(rot)=       0.01914021 Eh     12.01 kcal/mol|
|  sn= 2 | S(rot)=       0.01848576 Eh     11.60 kcal/mol|
|  sn= 3 | S(rot)=       0.01810293 Eh     11.36 kcal/mol|
|  sn= 4 | S(rot)=       0.01783130 Eh     11.19 kcal/mol|
|  sn= 5 | S(rot)=       0.01762061 Eh     11.06 kcal/mol|
|  sn= 6 | S(rot)=       0.01744847 Eh     10.95 kcal/mol|
|  sn= 7 | S(rot)=       0.01730292 Eh     10.86 kcal/mol|
|  sn= 8 | S(rot)=       0.01717684 Eh     10.78 kcal/mol|
|  sn= 9 | S(rot)=       0.01706564 Eh     10.71 kcal/mol|
|  sn=10 | S(rot)=       0.01696616 Eh     10.65 kcal/mol|
|  sn=11 | S(rot)=       0.01687617 Eh     10.59 kcal/mol|
|  sn=12 | S(rot)=       0.01679401 Eh     10.54 kcal/mol|
 linear molecules ---------------------------------------
|  Dinfh | S(rot)=       0.01193918 Eh      7.49 kcal/mol|
|  Cinfv | S(rot)=       0.01259364 Eh      7.90 kcal/mol|
 --------------------------------------------------------


-------------------
GIBBS FREE ENERGY
-------------------

The Gibbs free energy is G = H - T*S

Total enthalpy                    ...  -4463.97167808 Eh 
Total entropy correction          ...     -0.16611289 Eh   -104.24 kcal/mol
-----------------------------------------------------------------------
Final Gibbs free energy         ...  -4464.13779097 Eh

For completeness - the Gibbs free energy minus the electronic energy
G-E(el)                           ...      0.34318670 Eh    215.35 kcal/mol


Maximum memory used throughout the entire PROP-calculation: 165.4 MB

--------------------------------
SUGGESTED CITATIONS FOR THIS RUN
--------------------------------

Below you find a list of papers that are relevant to this ORCA run
We neither can nor want to force you to cite these papers, but we appreciate if you do
You receive ORCA, which is the product of decades of hard work by many enthusiastic individuals, for free
The only thing we kindly ask in return is that you cite our papers,
We deeply appreciate it, if you show your appreciation for ORCA by not just citing the generic ORCA reference.

Please note that relegating all ORCA citations to the supporting information does *not* help us.
SI sections are not indexed - citations you put there will not count into any citation statistics
But we need these citations in order to attract the funding resources that allow us to do what we are doing

Therefore, if you are a happy ORCA user, please consider citing a few of the papers listed below in the main body of your paper

In addition to the list printed below, the program has created the file run.bibtex that contains the list in bibtex format
You can import this file easily into all common literature databanks and citation aid programs


List of essential papers. We consider these as the minimum necessary citations

  1. Neese, F.
     Software update: the ORCA program system, version 6.0
     WIRES Comput. Molec. Sci. 2025 15(1), e70019
     doi.org/10.1002/wcms.7019

List of papers to cite with high priority. The work reported in these papers was absolutely
necessary for this run to complete.
Our perspective: the developers of density functionals and basis sets usually get cited in chemistry papers
Good! But without the algorithms to do something with them, the functionals or basis sets would not do anything.
Hence, in our opinion, the algorithm design and method developments papers are equally worthy of getting cited

  1. Neese, F.
     An improvement of the resolution of the identity approximation for the formation of the Coulomb matrix
     J. Comp. Chem. 2003 24(14), 1740-1747
     doi.org/10.1002/jcc.10318
  2. Grimme, S.; Antony, J.; Ehrlich, S.; Krieg, H.
     A consistent and accurate ab initio parametrization of density functional dispersion correction (DFT-D) for the 94 elements H-Pu
     J. Chem. Phys. 2010 132 , 154104
     doi.org/10.1063/1.3382344
  3. Grimme, S.; Ehrlich, S.; Goerigk, L.
     Effect of the damping function in dispersion corrected density functional theory
     J. Comput. Chem. 2011 32(7), 1456-1465
     doi.org/10.1002/jcc.21759
  4. Bykov, D.; Petrenko, T.; Izsak, R.; Kossmann, S.; Becker, U.; Valeev, E.; Neese, F.
     Efficient implementation of the analytic second derivatives of Hartree-Fock and hybrid DFT energies: a detailed analysis of different approximations
     Molec. Phys. 2015 113 , 1961-1977
     doi.org/10.1080/00268976.2015.1025114
  5. Helmich-Paris, B.
     A trust-region augmented Hessian implementation for restricted and unrestricted Hartree–Fock and Kohn–Sham methods
     J. Chem. Phys. 2021 154 , 164104
     doi.org/10.1063/5.0040798
  6. Neese, F.
     The SHARK Integral Generation and Digestion System
     J. Comp. Chem. 2022 44(3), 381
     doi.org/10.1002/jcc.26942

List of suggested additional citations. These are papers that are important in the 'surrounding' of 
of this run, or papers that preceded the highly important papers. If you like your results we are grateful for a citation.

  1. Neese, F.
     The ORCA program system
     WIRES Comput. Molec. Sci. 2012 2(1), 73-78
     doi.org/10.1002/wcms.81
  2. Neese, F.
     Software update: the ORCA program system, version 4.0
     WIRES Comput. Molec. Sci. 2018 8(1), 1-6
     doi.org/10.1002/wcms.1327
  3. Neese, F.; Wennmohs, F.; Becker, U.; Riplinger, C.
     The ORCA quantum chemistry program package
     J. Chem. Phys. 2020 152(22), 224108
     doi.org/10.1063/5.0004608
  4. Neese, F.
     Software update: The ORCA program system—Version 5.0
     WIRES Comput. Molec. Sci. 2022 12(1), e1606
     doi.org/10.1002/wcms.1606

List of optional additional citations

  1. Neese, F.
     Approximate second-order SCF convergence for spin unrestricted wavefunctions
     Chem. Phys. Lett. 2000 325(1-3), 93-98
     doi.org/10.1016/s0009-2614(00)00662-x

Timings for individual modules:

Sum of individual times          ...    11243.399 sec (= 187.390 min)
Startup calculation              ...      383.561 sec (=   6.393 min)   3.4 %
SCF iterations                   ...     2671.141 sec (=  44.519 min)  23.8 %
Property integrals               ...     2758.777 sec (=  45.980 min)  24.5 %
SCF Response                     ...     1999.537 sec (=  33.326 min)  17.8 %
Property calculations            ...     2411.337 sec (=  40.189 min)  21.4 %
SCF Gradient evaluation          ...      983.136 sec (=  16.386 min)   8.7 %
Geometry relaxation              ...       35.911 sec (=   0.599 min)   0.3 %
                             ****ORCA TERMINATED NORMALLY****
TOTAL RUN TIME: 0 days 3 hours 7 minutes 46 seconds 160 msec
