
                                 *****************
                                 * O   R   C   A *
                                 *****************

                                            #,                                       
                                            ###                                      
                                            ####                                     
                                            #####                                    
                                            ######                                   
                                           ########,                                 
                                     ,,################,,,,,                         
                               ,,#################################,,                 
                          ,,##########################################,,             
                       ,#########################################, ''#####,          
                    ,#############################################,,   '####,        
                  ,##################################################,,,,####,       
                ,###########''''           ''''###############################       
              ,#####''   ,,,,##########,,,,          '''####'''          '####       
            ,##' ,,,,###########################,,,                        '##       
           ' ,,###''''                  '''############,,,                           
         ,,##''                                '''############,,,,        ,,,,,,###''
      ,#''                                            '''#######################'''  
     '                                                          ''''####''''         
             ,#######,   #######,   ,#######,      ##                                
            ,#'     '#,  ##    ##  ,#'     '#,    #''#        ,####,    ,#,          
            ##       ##  ##   ,#'  ##            #'  '#       #'       ,# #          
            ##       ##  #######   ##           ,######,      #####,      #          
            '#,     ,#'  ##    ##  '#,     ,#' ,#      #,     #,   #      #          
             '#######'   ##     ##  '#######'  #'      '#     '####' #    #          



                #########################################################
                #                        -***-                          #
                #          Department of theory and spectroscopy        #
                #                                                       #
                #                      Frank Neese                      #
                #                                                       #
                #     Directorship, Architecture, Infrastructure        #
                #                    SHARK, DRIVERS                     #
                #        Core code/Algorithms in most modules           #
                #                                                       #
                #        Max Planck Institute fuer Kohlenforschung      #
                #                Kaiser Wilhelm Platz 1                 #
                #                 D-45470 Muelheim/Ruhr                 #
                #                      Germany                          #
                #                                                       #
                #                  All rights reserved                  #
                #                        -***-                          #
                #########################################################


                         Program Version 6.1.0  -  RELEASE   -
                                (GIT: $679e74b$)
                          ($2025-06-10 18:02:51 +0200$)


 With contributions from (in alphabetic order):
[Max-Planck-Institut fuer Kohlenforschung]                               
  Daniel Aravena         : Magnetic Suceptibility                        
  Michael Atanasov       : Ab Initio Ligand Field Theory (pilot matlab implementation)
  Alexander A. Auer      : GIAO ZORA, VPT2 properties, NMR spectrum      
  Ute Becker             : All parallelization in ORCA, NUMFREQ, NUMCALC 
  Giovanni Bistoni       : ED, misc. LED, open-shell LED, HFLD           
  Dmytro Bykov           : pre 5.0 version of the SCF Hessian            
  Marcos Casanova-Páez   : Triplet and SCS-CIS(D). UHF-(DLPNO)-IP/EA/STEOM-CCSD. UHF-CVS-IP/STEOM-CCSD   
  Vijay G. Chilkuri      : MRCI spin determinant printing, contributions to CSF-ICE 
  Pauline Colinet        : FMM embedding                                 
  Dipayan Datta          : RHF DLPNO-CCSD density                        
  Achintya Kumar Dutta   : EOM-CC, STEOM-CC                              
  Nicolas Foglia         : Exact transition moments, OPA infrastructure, MCD improvements    
  Dmitry Ganyushin       : Spin-Orbit,Spin-Spin,Magnetic field MRCI      
  Miquel Garcia-Rates    : C-PCM and meta-GGA Hessian, CCSD/C-PCM, Gaussian charge scheme 
  Tiago L. C. Gouveia    : GS-ROHF, GS-ROCIS                             
  Yang Guo               : DLPNO-NEVPT2, F12-NEVPT2, CIM, IAO-localization        
  Andreas Hansen         : Spin unrestricted coupled pair/coupled cluster methods 
  Ingolf Harden          : AUTO-CI MPn and infrastructure                
  Benjamin Helmich-Paris : MC-RPA, TRAH-(SCF,CASSCF), AVAS, COSX integrals, SCF dyn. polar., MC-PDFT, srDFT 
  Lee Huntington         : MR-EOM, pCC                                   
  Robert Izsak           : Overlap fitted RIJCOSX, COSX-SCS-MP3, EOM     
  Riya Kayal             : Wick's Theorem for AUTO-CI, AUTO-CI UHF-CCSDT 
  Emily Kempfer          : AUTO-CI RHF CISDT and CCSDT, approximate NEVPT4
  Christian Kollmar      : KDIIS, OOCD, Brueckner-CCSD(T), CCSD density, CASPT2, CASPT2-K, improved NEVPT2 
  Axel Koslowski         : Symmetry handling                             
  Simone Kossmann        : meta-GGA functionals, TD-DFT gradient, OOMP2, (MP2 Hessian; deprecated post 5.0) 
  Lucas Lang             : DCDCAS, Hyperfine gauge corrections, ICE-SOC+SSC
  Marvin Lechner         : AUTO-CI (C++ implementation), FIC-MRCC        
  Spencer Leger          : CASSCF response                               
  Dagmar Lenk            : GEPOL surface, SMD, ORCA-2-JSON               
  Dimitrios Liakos       : Extrapolation schemes; Compound Job, Property file
  Dimitrios Manganas     : Further ROCIS development; embedding schemes. LFT, Crystal Embedding 
  Dimitrios Pantazis     : SARC Basis sets                               
  Anastasios Papadopoulos: AUTO-CI, single reference methods and gradients 
  Taras Petrenko         : pre 6.0 DFT Hessian and TD-DFT gradient,  ECA, NRVS 
  Petra Pikulova         : Analytic Raman intensities                    
  Peter Pinski           : DLPNO-MP2, DLPNO-MP2 Gradient                 
  Shashank Vittal Rao    : ES-AILFT, MagRelax                            
  Christoph Reimann      : Effective Core Potentials                     
  Marius Retegan         : Local ZFS, SOC                                
  Christoph Riplinger    : Optimizer, TS searches, QM/MM, DLPNO-CCSD(T), (RO)-DLPNO pert. Triples 
  Michael Roemelt        : Original ROCIS implementation, recursive CI coupling coefficients
  Masaaki Saitow         : Open-shell DLPNO-CCSD energy and density      
  Barbara Sandhoefer     : DKH picture change effects                    
  Yorick L. A. Schmerwitz: GMF and freeze-and-release deltaSCF, NEB S-IDPP initial path                    
  Kantharuban Sivalingam : CASSCF convergence/infrastructure, NEVPT2, NEVPT3, NEVPT4(SD), FIC-MRCI and CEPA variants
  Bernardo de Souza      : ESD, SOC TD-DFT                               
  Georgi L. Stoychev     : AutoAux, RI-MP2 NMR, DLPNO-MP2 response, X2C  
  Van Anh Tran           : RI-MP2 g-tensors                              
  Willem Van den Heuvel  : Paramagnetic NMR                              
  Zikuan Wang            : NOTCH, Electric field optimization            
  Frank Wennmohs         : Technical directorship and infrastructure     
  Hang Xu                : AUTO-CI-Response properties                   
                                                                         
[FACCTs GmbH]                                                            
  Markus Bursch, Nicolas Foglia, Miquel Garcia-Rates, Ingolf Harden, Hagen Neugebauer, Anastasios Papadopoulos, 
  Christoph Riplinger, Bernardo de Souza, Georgi L. Stoychev                                                    
                                                                 
  APM, various basis sets, CI-OPT, improved COSX, DLPNO-Multilevel,           
  DOCKER, DRACO, updates on ESD, Fragmentator, GOAT, IRC, LR-CPCM, L-BFGS, MBIS, meta-GGA TD-DFT gradient, ML-optimized integration grids, 
  MM, NACMEs, nearIR, NEB, NEB-TS, NL-DFT gradient (VV10), 2- and 3-layer-ONIOM, interface openCOSMO-RS, QMMM,   
  Crystal-QMMM, RESP, rigid body optimization, SF, symmetry and pop. for TD-DFT, various functionals, SOLVATOR                                   
                                                                         
[Other institutions]                                                     
  V. Asgeirsson          : NEB                                           
  Christoph Bannwarth    : sTDA-DFT, sTD-DFT, PBEh-3c, B97-3c, D3        
  Giovanni Bistoni       : ETS/NOCV, ADLD/ADEX, COVALED                  
  Martin Brehm           : Molecular dynamics                            
  Ronald Cardenas        : ETS/NOCV                                      
  Martina Colucci        : COVALED                                       
  Sebastian Ehlert       : rSCAN, r2SCAN, r2SCAN-3c, D4, dhf basis sets  
  Marvin Friede          : D4 for Fr, Ra, Ac-Lr                          
  Lars Goerigk           : TD-DFT with DH, B97 family of functionals     
  Stefan Grimme          : VdW corrections, initial TS optimization, DFT functionals, gCP, sTDA/sTD-DF 
  Waldemar Hujo          : DFT-NL                                        
  H. Jonsson             : NEB                                           
  Holger Kruse           : gCP                                           
  Marcel Mueller         : wB97X-3c, vDZP basis set                      
  Hagen Neugebauer       : wr2SCAN, Native XTB                           
  Gianluca Regni         : ADLD/ADEX                                     
  Tobias Risthaus        : pre 6.0 range-separated hybrid DFT and stability analysis
  Lukas Wittmann         : regularized MP2, r2SCAN double-hybrids, wr2SCAN        
                                                                         
We gratefully acknowledge several colleagues who have allowed us to      
interface, adapt or use parts of their codes:                            
  Ed Valeev, F. Pavosevic, A. Kumar             : LibInt (2-el integral package), F12 methods 
  Garnet Chan, S. Sharma, J. Yang, R. Olivares  : DMRG                   
  Ulf Ekstrom                                   : XCFun DFT Library      
  Mihaly Kallay                                 : mrcc  (arbitrary order and MRCC methods)
  Frank Weinhold                                : gennbo (NPA and NBO analysis)           
  Simon Mueller                                 : openCOSMO-RS                            
  Christopher J. Cramer and Donald G. Truhlar   : smd solvation model                     
  S Lehtola, MJT Oliveira, MAL Marques          : LibXC Library                           
  Liviu Ungur et al                             : ANISO software                          


 Your calculation uses the libint2 library for the computation of 2-el integrals
 For citations please refer to: http://libint.valeyev.net

 Your ORCA version has been built with support for libXC version: 7.0.0
 For citations please refer to: https://libxc.gitlab.io

 This ORCA versions uses:
   CBLAS   interface :  Fast vector & matrix operations
   LAPACKE interface :  Fast linear algebra routines
   SCALAPACK package :  Parallel linear algebra routines
   Shared memory     :  Shared parallel matrices
   BLAS/LAPACK       :  OpenBLAS 0.3.29  USE64BITINT DYNAMIC_ARCH NO_AFFINITY Bulldozer SINGLE_THREADED
        Core in use  :  Bulldozer
   Copyright (c) 2011-2014, The OpenBLAS Project


  ***********************************
  * Starting time: Sun Aug 17 10:22:11 2025
  * Host name:     chromium04
  * Process ID:    504979
  * Working dir.:  /local/scratch/mehlhorn/62079
  ***********************************



***************************************
The coordinates will be read from file: start.xyz
***************************************


Warning: RI is on but no J-basis has been assigned. Assigning Def2/J (nothing to worry about!)
================================================================================

----- Orbital basis set information -----
Your calculation utilizes the basis: def2-QZVPP
   F. Weigend and R. Ahlrichs, Phys. Chem. Chem. Phys. 7, 3297 (2005).

----- AuxJ basis set information -----
Your calculation utilizes the auxiliary basis: def2/J
   H-Rn: F. Weigend, Phys. Chem. Chem. Phys. 8, 1057 (2006).
   Fr-Lr: K. Eichkorn, F. Weigend, O. Treutler, R. Ahlrichs; Theor. Chem. Acc. 97, 119 (1997).

----- AuxC basis set information -----
Your calculation utilizes the auxiliary basis: def2-QZVPP/C
  H-La, Hf-Rn : A. Hellweg, C. Hattig, S. Hofener and W. Klopper, Theor. Chem. Acc. 117, 587 (2007).
        Ce-Lu : J. Chmela and M. E. Harding, Mol. Phys. (2018).

================================================================================
                                        WARNINGS
                       Please study these warnings very carefully!
================================================================================

WARNING: Old DensityContainer found on disk!
         Will remove this file - 
         If you want to keep old densities, please start your calculation with a different basename. 


WARNING: The frozen-core approximation for MP2-gradient calculations is turned on by default.

WARNING: The environment variable RSH_COMMAND is not set!
  ===> : All Displacements for the Numerical Hessian or Gradient calculation
         will be started on localhost

WARNING: Geometry Optimization
  ===> : Switching off AutoStart
         For restart on a previous wavefunction, please use MOREAD

WARNING: The frozen-core approximation is turned on by default for 
         the MP2 part of double-hybrid DFT.

================================================================================
                                       INPUT FILE
================================================================================
NAME = run.inp
|  1> # Geometry optimization for (AlH3)n cluster
|  2> 
|  3> %pal nprocs 24  end
|  4> 
|  5> %geom MaxIter 500 end
|  6> 
|  7> %elprop Polar 1 end # invoke raman
|  8> 
|  9> ! PBE0-DH 
| 10> ! def2-QZVPP def2-QZVPP/C 
| 11> ! RKS	# closed shell for AlH3
| 12> ! NumFreq 	# Frequency analysis to check the stabiltity of the structures
| 13> 
| 14> 
| 15> ! NoPop # population analysis not necessary	
| 16> 
| 17> ! DEFGRID3
| 18> ! ExtremeSCF
| 19> ! VeryTightOpt
| 20> 
| 21> 
| 22> ! SmallPrint
| 23> 
| 24> 
| 25> * xyzFile 0 1 start.xyz # only maingroup elements H and Al so there should be no net spin
| 26> 
| 27>                          ****END OF INPUT****
================================================================================

                       *****************************
                       * Geometry Optimization Run *
                       *****************************

Geometry optimization settings:
Update method            Update   .... BFGS
Choice of coordinates    CoordSys .... (2022) Redundant Internals
Initial Hessian          InHess   .... Almloef's Model
Max. no of cycles        MaxIter  .... 500

Convergence Tolerances:
Energy Change            TolE     ....  2.0000e-07 Eh
Max. Gradient            TolMAXG  ....  3.0000e-05 Eh/bohr
RMS Gradient             TolRMSG  ....  8.0000e-06 Eh/bohr
Max. Displacement        TolMAXD  ....  2.0000e-04 bohr
RMS Displacement         TolRMSD  ....  1.0000e-04 bohr
Strict Convergence                .... False

------------------------------------------------------------------------------
                        ORCA OPTIMIZATION COORDINATE SETUP
------------------------------------------------------------------------------

The optimization will be done in redundant internal coordinates (2022)
Making redundant internal coordinates   ...  (2022 redundants) done
Evaluating the initial hessian          ...  (Almloef) done
Evaluating the coordinates              ...  done
Calculating the B-matrix                .... done
Calculating the G-matrix                .... done
The number of degrees of freedom        ....  117

    -----------------------------------------------------------------
                    Redundant Internal Coordinates


    -----------------------------------------------------------------
         Definition                    Initial Value    Approx d2E/dq
    -----------------------------------------------------------------
      1. B(Al  1,Al  0)                  3.0622         0.065912   
      2. B(H   2,Al  1)                  1.7226         0.246991   
      3. B(H   3,Al  1)                  1.5864         0.407364   
      4. B(H   4,Al  1)                  1.7227         0.246910   
      5. B(H   4,Al  0)                  1.7220         0.247542   
      6. B(H   5,Al  0)                  1.5868         0.406758   
      7. B(H   6,Al  0)                  1.7159         0.253200   
      8. B(H   7,Al  1)                  1.5864         0.407397   
      9. B(Al  8,H   6)                  1.7159         0.253137   
     10. B(Al  8,H   2)                  1.7220         0.247556   
     11. B(Al  8,Al  1)                  3.0659         0.065020   
     12. B(Al  8,Al  0)                  3.0732         0.063297   
     13. B(H   9,Al  8)                  1.5868         0.406762   
     14. B(H  10,Al  8)                  1.5874         0.405873   
     15. B(H  11,Al  0)                  1.5875         0.405806   
     16. A(H   4,Al  0,H   6)           98.0851         0.327835   
     17. A(Al  1,Al  0,H   4)           27.2634         0.303830   
     18. A(Al  1,Al  0,Al  8)           59.9608         0.281458   
     19. A(Al  8,Al  0,H  11)          103.5673         0.327070   
     20. A(H   4,Al  0,H   5)          104.4110         0.354886   
     21. A(H   6,Al  0,H  11)          106.7661         0.356107   
     22. A(Al  1,Al  0,H   5)          131.5048         0.329389   
     23. A(Al  1,Al  0,H  11)           88.7869         0.329261   
     24. A(H   5,Al  0,H  11)          128.8787         0.386360   
     25. A(H   5,Al  0,H   6)          105.8828         0.356249   
     26. A(H   4,Al  0,Al  8)           74.2358         0.301871   
     27. A(Al  1,Al  0,H   6)           86.3833         0.304932   
     28. A(H   5,Al  0,Al  8)          122.5105         0.327197   
     29. A(H   4,Al  0,H  11)          108.6349         0.354745   
     30. A(H   6,Al  0,Al  8)           26.4256         0.302963   
     31. A(H   2,Al  1,H   7)          104.7658         0.354846   
     32. A(H   3,Al  1,H   4)          104.7603         0.354821   
     33. A(Al  0,Al  1,H   3)          127.3478         0.329470   
     34. A(H   2,Al  1,H   4)           95.8450         0.326359   
     35. A(H   4,Al  1,Al  8)           74.4431         0.303045   
     36. A(H   3,Al  1,Al  8)           98.6375         0.328730   
     37. A(H   2,Al  1,H   3)          109.3937         0.354841   
     38. A(H   2,Al  1,Al  8)           27.1138         0.303061   
     39. A(Al  0,Al  1,Al  8)           60.1979         0.282632   
     40. A(H   7,Al  1,Al  8)          127.3487         0.328734   
     41. A(Al  0,Al  1,H   4)           27.2515         0.303706   
     42. A(H   4,Al  1,H   7)          109.3862         0.354826   
     43. A(Al  0,Al  1,H   7)           98.7251         0.329474   
     44. A(Al  0,Al  1,H   2)           74.2291         0.303722   
     45. A(H   3,Al  1,H   7)          128.0682         0.386724   
     46. A(Al  1,H   2,Al  8)          125.7617         0.326500   
     47. A(Al  0,H   4,Al  1)          125.4851         0.326479   
     48. A(Al  0,H   6,Al  8)          127.1500         0.329046   
     49. A(Al  1,Al  8,H   2)           27.1244         0.303172   
     50. A(Al  0,Al  8,H   2)           73.9129         0.301874   
     51. A(Al  0,Al  8,Al  1)           59.8412         0.280866   
     52. A(H   6,Al  8,H  10)          106.6748         0.356102   
     53. A(H   2,Al  8,H  10)          108.6589         0.354758   
     54. A(Al  1,Al  8,H  10)           89.0497         0.328531   
     55. A(Al  0,Al  8,H  10)          104.3239         0.327079   
     56. A(H   6,Al  8,H   9)          105.9660         0.356234   
     57. A(H   9,Al  8,H  10)          128.8696         0.386372   
     58. A(H   2,Al  8,H   9)          104.3829         0.354890   
     59. A(Al  1,Al  8,H   9)          131.3129         0.328649   
     60. A(Al  0,Al  8,H   9)          121.8776         0.327197   
     61. A(H   2,Al  8,H   6)           98.1226         0.327825   
     62. A(Al  1,Al  8,H   6)           86.2626         0.304255   
     63. A(Al  0,Al  8,H   6)           26.4245         0.302951   
     64. D(H   2,Al  1,Al  0,H   4)   -141.2078         0.010000   
     65. D(H   3,Al  1,Al  0,H   6)     76.9003         0.010000   
     66. D(H   3,Al  1,Al  0,H   5)    -31.1727         0.010000   
     67. D(H   3,Al  1,Al  0,Al  8)     77.3281         0.010000   
     68. D(H   2,Al  1,Al  0,Al  8)    -25.2939         0.010000   
     69. D(H   3,Al  1,Al  0,H   4)    -38.5858         0.010000   
     70. D(H   2,Al  1,Al  0,H   6)    -25.7217         0.010000   
     71. D(H   2,Al  1,Al  0,H   5)   -133.7947         0.010000   
     72. D(H   2,Al  1,Al  0,H  11)     81.1628         0.010000   
     73. D(H   3,Al  1,Al  0,H  11)   -176.2152         0.010000   
     74. D(Al  8,H   2,Al  1,H   7)    149.5196         0.010000   
     75. D(Al  8,H   2,Al  1,H   3)    -70.2339         0.010000   
     76. D(Al  8,H   2,Al  1,Al  0)     54.4382         0.010000   
     77. D(Al  8,H   2,Al  1,H   4)     37.6777         0.010000   
     78. D(Al  1,H   4,Al  0,H   5)   -174.2745         0.010000   
     79. D(Al  0,H   4,Al  1,H   7)    -70.6105         0.010000   
     80. D(Al  0,H   4,Al  1,Al  8)     54.1134         0.010000   
     81. D(Al  0,H   4,Al  1,H   3)    149.1542         0.010000   
     82. D(Al  0,H   4,Al  1,H   2)     37.3055         0.010000   
     83. D(Al  1,H   4,Al  0,H  11)     45.3204         0.010000   
     84. D(Al  1,H   4,Al  0,Al  8)    -54.0053         0.010000   
     85. D(Al  1,H   4,Al  0,H   6)    -65.4966         0.010000   
     86. D(Al  8,H   6,Al  0,H   4)     25.5189         0.010000   
     87. D(Al  8,H   6,Al  0,Al  1)      0.8321         0.010000   
     88. D(Al  8,H   6,Al  0,H   5)    133.0829         0.010000   
     89. D(Al  8,H   6,Al  0,H  11)    -86.8068         0.010000   
     90. D(Al  1,Al  8,Al  0,H  11)    -80.5199         0.010000   
     91. D(Al  1,Al  8,Al  0,H   6)    179.0407         0.010000   
     92. D(Al  1,Al  8,Al  0,H   5)    122.6300         0.010000   
     93. D(H   2,Al  8,Al  0,Al  1)     25.3464         0.010000   
     94. D(Al  1,Al  8,Al  0,H   4)     25.3487         0.010000   
     95. D(H   9,Al  8,H   6,Al  0)    131.1921         0.010000   
     96. D(H   2,Al  8,H   6,Al  0)     23.6252         0.010000   
     97. D(Al  1,Al  8,H   6,Al  0)     -0.8312         0.010000   
     98. D(H  10,Al  8,H   2,Al  1)     45.7658         0.010000   
     99. D(H   9,Al  8,H   2,Al  1)   -173.8452         0.010000   
    100. D(H   6,Al  8,H   2,Al  1)    -64.9738         0.010000   
    101. D(H   6,Al  8,Al  1,H   2)    115.9815         0.010000   
    102. D(H   6,Al  8,Al  1,Al  0)      0.4278         0.010000   
    103. D(H   2,Al  8,Al  1,H   7)    -38.0976         0.010000   
    104. D(H   2,Al  8,Al  1,H   4)   -140.8639         0.010000   
    105. D(H   2,Al  8,Al  1,H   3)    116.1210         0.010000   
    106. D(H   2,Al  8,Al  1,Al  0)   -115.5537         0.010000   
    107. D(Al  0,Al  8,Al  1,H   7)     77.4561         0.010000   
    108. D(Al  0,Al  8,Al  1,H   4)    -25.3102         0.010000   
    109. D(Al  0,Al  8,H   2,Al  1)    -54.2771         0.010000   
    110. D(Al  0,Al  8,Al  1,H   3)   -128.3254         0.010000   
    111. D(Al  0,Al  8,Al  1,H   2)    115.5537         0.010000   
    112. D(H   6,Al  8,Al  0,Al  1)   -179.0407         0.010000   
    113. D(H   2,Al  8,Al  0,H  11)    -55.1734         0.010000   
    114. D(H   2,Al  8,Al  0,H   6)   -155.6129         0.010000   
    115. D(H   2,Al  8,Al  0,H   5)    147.9764         0.010000   
    116. D(H  10,Al  8,H   6,Al  0)    -88.7155         0.010000   
    117. D(H   2,Al  8,Al  0,H   4)     50.6951         0.010000   
    -----------------------------------------------------------------

Number of atoms                         .... 12
Number of degrees of freedom            .... 117


         *************************************************************
         *                GEOMETRY OPTIMIZATION CYCLE   1            *
         *************************************************************
---------------------------------
CARTESIAN COORDINATES (ANGSTROEM)
---------------------------------
  Al    -0.229465    1.518719    2.565333
  Al     0.000121   -0.000507   -0.083536
  H      0.872783   -0.936113    1.069964
  H     -1.104267   -0.908414   -0.771134
  H     -0.863230    0.941627    1.071787
  H     -1.473542    2.184480    3.291334
  H      0.004056    0.000973    3.330927
  H      1.098729    0.903679   -0.785103
  Al     0.255690   -1.515992    2.569382
  H      1.513180   -2.162656    3.289507
  H     -1.180669   -2.143678    2.318759
  H      1.213553    2.126193    2.303140

----------------------------
CARTESIAN COORDINATES (A.U.)
----------------------------
  NO LB      ZA    FRAG     MASS         X           Y           Z
   0 Al   13.0000    0    26.982   -0.433626    2.869962    4.847776
   1 Al   13.0000    0    26.982    0.000229   -0.000959   -0.157861
   2 H     1.0000    0     1.008    1.649321   -1.768997    2.021939
   3 H     1.0000    0     1.008   -2.086762   -1.716654   -1.457233
   4 H     1.0000    0     1.008   -1.631268    1.779418    2.025385
   5 H     1.0000    0     1.008   -2.784590    4.128070    6.219720
   6 H     1.0000    0     1.008    0.007665    0.001839    6.294540
   7 H     1.0000    0     1.008    2.076297    1.707705   -1.483630
   8 Al   13.0000    0    26.982    0.483184   -2.864810    4.855428
   9 H     1.0000    0     1.008    2.859496   -4.086827    6.216267
  10 H     1.0000    0     1.008   -2.231141   -4.050964    4.381820
  11 H     1.0000    0     1.008    2.293282    4.017922    4.352305

--------------------------------
INTERNAL COORDINATES (ANGSTROEM)
--------------------------------
 Al     0   0   0     0.000000000000     0.00000000     0.00000000
 Al     1   0   0     3.062231852220     0.00000000     0.00000000
 H      2   1   0     1.722631792243    74.22913359     0.00000000
 H      2   1   3     1.586429302671   127.34776376   102.62200927
 H      1   2   3     1.722024901215    27.26343208   218.79222111
 H      1   2   3     1.586834590663   131.50484193   226.20526448
 H      1   2   3     1.715872586925    86.38332633   334.27831826
 H      2   1   3     1.586407342652    98.72509446   257.02087331
 Al     7   1   2     1.715941375183   127.14995378     0.83209086
 H      9   7   1     1.586832060228   105.96604999   131.19212961
 H      9   7   1     1.587427891101   106.67476505   271.28446731
 H      1   2   3     1.587472406968    88.78687095    81.16283218

---------------------------
INTERNAL COORDINATES (A.U.)
---------------------------
 Al     0   0   0     0.000000000000     0.00000000     0.00000000
 Al     1   0   0     5.786779559266     0.00000000     0.00000000
 H      2   1   0     3.255302316926    74.22913359     0.00000000
 H      2   1   3     2.997916912876   127.34776376   102.62200927
 H      1   2   3     3.254155459090    27.26343208   218.79222111
 H      1   2   3     2.998682796186   131.50484193   226.20526448
 H      1   2   3     3.242529269992    86.38332633   334.27831826
 H      2   1   3     2.997875414453    98.72509446   257.02087331
 Al     7   1   2     3.242659260960   127.14995378     0.83209086
 H      9   7   1     2.998678014358   105.96604999   131.19212961
 H      9   7   1     2.999803971529   106.67476505   271.28446731
 H      1   2   3     2.999888094326    88.78687095    81.16283218

---------------------
BASIS SET INFORMATION
---------------------
There are 2 groups of distinct atoms

 Group   1 Type Al  : 20s14p4d2f1g contracted to 9s6p4d2f1g pattern {1031111111/821111/1111/11/1}
 Group   2 Type H   : 7s3p2d1f contracted to 4s3p2d1f pattern {4111/111/11/1}

Atom   0Al   basis set group =>   1
Atom   1Al   basis set group =>   1
Atom   2H    basis set group =>   2
Atom   3H    basis set group =>   2
Atom   4H    basis set group =>   2
Atom   5H    basis set group =>   2
Atom   6H    basis set group =>   2
Atom   7H    basis set group =>   2
Atom   8Al   basis set group =>   1
Atom   9H    basis set group =>   2
Atom  10H    basis set group =>   2
Atom  11H    basis set group =>   2
---------------------------------
AUXILIARY/J BASIS SET INFORMATION
---------------------------------
There are 2 groups of distinct atoms

 Group   1 Type Al  : 14s5p5d2f1g contracted to 8s4p3d1f1g pattern {71111111/2111/311/2/1}
 Group   2 Type H   : 5s2p1d contracted to 3s1p1d pattern {311/2/1}

Atom   0Al   basis set group =>   1
Atom   1Al   basis set group =>   1
Atom   2H    basis set group =>   2
Atom   3H    basis set group =>   2
Atom   4H    basis set group =>   2
Atom   5H    basis set group =>   2
Atom   6H    basis set group =>   2
Atom   7H    basis set group =>   2
Atom   8Al   basis set group =>   1
Atom   9H    basis set group =>   2
Atom  10H    basis set group =>   2
Atom  11H    basis set group =>   2
---------------------------------
AUXILIARY/C BASIS SET INFORMATION
---------------------------------
There are 2 groups of distinct atoms

 Group   1 Type Al  : 12s10p9d6f3g1h contracted to 12s10p9d6f3g1h pattern {111111111111/1111111111/111111111/111111/111/1}
 Group   2 Type H   : 6s4p3d2f1g contracted to 6s4p3d2f1g pattern {111111/1111/111/11/1}

Atom   0Al   basis set group =>   1
Atom   1Al   basis set group =>   1
Atom   2H    basis set group =>   2
Atom   3H    basis set group =>   2
Atom   4H    basis set group =>   2
Atom   5H    basis set group =>   2
Atom   6H    basis set group =>   2
Atom   7H    basis set group =>   2
Atom   8Al   basis set group =>   1
Atom   9H    basis set group =>   2
Atom  10H    basis set group =>   2
Atom  11H    basis set group =>   2


           ************************************************************
           *        Program running with 24 parallel MPI-processes    *
           *              working on a common directory               *
           ************************************************************
------------------------------------------------------------------------------
                             ORCA STARTUP CALCULATIONS
                           -- RI-GTO INTEGRALS CHOSEN --
------------------------------------------------------------------------------
------------------------------------------------------------------------------
                   ___                                                        
                  /   \      - P O W E R E D   B Y -                         
                 /     \                                                     
                 |  |  |   _    _      __       _____    __    __             
                 |  |  |  | |  | |    /  \     |  _  \  |  |  /  |          
                  \  \/   | |  | |   /    \    | | | |  |  | /  /          
                 / \  \   | |__| |  /  /\  \   | |_| |  |  |/  /          
                |  |  |   |  __  | /  /__\  \  |    /   |      \           
                |  |  |   | |  | | |   __   |  |    \   |  |\   \          
                \     /   | |  | | |  |  |  |  | |\  \  |  | \   \       
                 \___/    |_|  |_| |__|  |__|  |_| \__\ |__|  \__/        
                                                                              
                      - O R C A' S   B I G   F R I E N D -                    
                                      &                                       
                       - I N T E G R A L  F E E D E R -                       
                                                                              
 v1 FN, 2020, v2 2021, v3 2022-2024                                           
------------------------------------------------------------------------------


----------------------
SHARK INTEGRAL PACKAGE
----------------------

Number of atoms                             ...     12
Number of basis functions                   ...    480
Number of shells                            ...    156
Maximum angular momentum                    ...      4
Integral batch strategy                     ... SHARK/LIBINT Hybrid
RI-J (if used) integral strategy            ... SPLIT-RIJ (Revised 2003 algorithm where possible)
Printlevel                                  ...      1
Contraction scheme used                     ... SEGMENTED contraction
Prescreening option                         ... SCHWARTZ
   Thresh                                   ... 3.000e-16
   Tcut                                     ... 3.000e-16
   Tpresel                                  ... 3.000e-16 
Coulomb Range Separation                    ... NOT USED
Exchange Range Separation                   ... NOT USED
Multipole approximations                    ... NOT USED
Finite Nucleus Model                        ... NOT USED
CABS basis                                  ... NOT available
Auxiliary Coulomb fitting basis             ... AVAILABLE
   # of basis functions in Aux-J            ...    252
   # of shells in Aux-J                     ...     96
   Maximum angular momentum in Aux-J        ...      4
Auxiliary J/K fitting basis                 ... NOT available
Auxiliary Correlation fitting basis         ... AVAILABLE
   # of basis functions in Aux-C            ...   1005
   # of shells in Aux-C                     ...    267
   Maximum angular momentum in Aux-C        ...      5
Auxiliary 'external' fitting basis          ... NOT available

Checking pre-screening integrals            ... done (  0.0 sec) Dimension = 156
   => SHARK Basis and OBASIS are compatible. Storing Pre-screening
Shell pair information
Shell pair cut-off parameter TPreSel        ...   3.0e-16
Total number of shell pairs                 ...     12246
Shell pairs after pre-screening             ...     11186
Total number of primitive shell pairs       ...     29205
Primitive shell pairs kept                  ...     21383
          la=0 lb=0:   1814 shell pairs
          la=1 lb=0:   2579 shell pairs
          la=1 lb=1:    967 shell pairs
          la=2 lb=0:   1699 shell pairs
          la=2 lb=1:   1245 shell pairs
          la=2 lb=2:    425 shell pairs
          la=3 lb=0:    849 shell pairs
          la=3 lb=1:    623 shell pairs
          la=3 lb=2:    414 shell pairs
          la=3 lb=3:    106 shell pairs
          la=4 lb=0:    189 shell pairs
          la=4 lb=1:    135 shell pairs
          la=4 lb=2:     90 shell pairs
          la=4 lb=3:     45 shell pairs
          la=4 lb=4:      6 shell pairs

Checking whether 4 symmetric matrices of dimension 480 fit in memory
:Max Core in MB      =   4096.00
 MB in use           =     19.93
 MB left             =   4076.07
 MB needed           =      3.52
 Data fit in memory  = YES
Calculating RI/J V-Matrix + Cholesky decomp.... done (  0.1 sec)
Calculating RI/C V-Matrix + Cholesky decomp.... done (  0.1 sec)
Calculating Nuclear repulsion               ... done (  0.0 sec) ENN=    170.928148442860 Eh

Diagonalization of the overlap matrix:
Smallest eigenvalue                        ... 1.614e-04
Time for diagonalization                   ...    0.148 sec
Threshold for overlap eigenvalues          ... 1.000e-07
Number of eigenvalues below threshold      ... 0
Time for construction of square roots      ...    0.061 sec
Total time needed                          ...    0.217 sec

-------------------
DFT GRID GENERATION
-------------------

General Integration Accuracy     IntAcc      ... 4.959
Radial Grid Type                 RadialGrid  ... OptM3 with GC (2021)
Angular Grid (max. ang.)         AngularGrid ... 6 (Lebedev-590)
Angular grid pruning method      GridPruning ... 4 (adaptive)
Weight generation scheme         WeightScheme... mBecke (2022)
Basis function cutoff            BFCut       ... 3.0000e-16
Integration weight cutoff        WCut        ... 1.0000e-14
Partially contracted basis set               ... off
Rotationally invariant grid construction     ... off
Angular grids for H and He will be reduced by one unit

Total number of grid points                  ...   128059
Total number of batches                      ...     2007
Average number of points per batch           ...       63
Average number of grid points per atom       ...    10672

--------------------
COSX GRID GENERATION
--------------------

GRIDX 1
-------
General Integration Accuracy     IntAcc      ... 4.020
Radial Grid Type                 RadialGrid  ... OptM3 with GC (2021)
Angular Grid (max. ang.)         AngularGrid ... 2 (Lebedev-110)
Angular grid pruning method      GridPruning ... 4 (adaptive)
Weight generation scheme         WeightScheme... mBecke (2022)
Basis function cutoff            BFCut       ... 3.0000e-16
Integration weight cutoff        WCut        ... 1.0000e-14
Partially contracted basis set               ... on
Rotationally invariant grid construction     ... off
Angular grids for H and He will be reduced by one unit

Total number of grid points                  ...    12853
Total number of batches                      ...      106
Average number of points per batch           ...      121
Average number of grid points per atom       ...     1071
UseSFitting                                  ... on

GRIDX 2
-------
General Integration Accuracy     IntAcc      ... 4.338
Radial Grid Type                 RadialGrid  ... OptM3 with GC (2021)
Angular Grid (max. ang.)         AngularGrid ... 3 (Lebedev-194)
Angular grid pruning method      GridPruning ... 4 (adaptive)
Weight generation scheme         WeightScheme... mBecke (2022)
Basis function cutoff            BFCut       ... 3.0000e-16
Integration weight cutoff        WCut        ... 1.0000e-14
Partially contracted basis set               ... on
Rotationally invariant grid construction     ... off
Angular grids for H and He will be reduced by one unit

Total number of grid points                  ...    29704
Total number of batches                      ...      238
Average number of points per batch           ...      124
Average number of grid points per atom       ...     2475
UseSFitting                                  ... on

GRIDX 3
-------
General Integration Accuracy     IntAcc      ... 4.871
Radial Grid Type                 RadialGrid  ... OptM3 with GC (2021)
Angular Grid (max. ang.)         AngularGrid ... 4 (Lebedev-302)
Angular grid pruning method      GridPruning ... 4 (adaptive)
Weight generation scheme         WeightScheme... mBecke (2022)
Basis function cutoff            BFCut       ... 3.0000e-16
Integration weight cutoff        WCut        ... 1.0000e-14
Partially contracted basis set               ... on
Rotationally invariant grid construction     ... off
Angular grids for H and He will be reduced by one unit

Total number of grid points                  ...    59622
Total number of batches                      ...      469
Average number of points per batch           ...      127
Average number of grid points per atom       ...     4968
UseSFitting                                  ... on
Grids setup in   5.2 sec
Initializing property integral containers    ... done (  0.0 sec)

SHARK setup successfully completed in   7.2 seconds

Maximum memory used throughout the entire STARTUP-calculation: 42.9 MB


           ************************************************************
           *        Program running with 24 parallel MPI-processes    *
           *              working on a common directory               *
           ************************************************************
-------------------------------------------------------------------------------
                                 ORCA GUESS
                   Start orbitals & Density for SCF / CASSCF
-------------------------------------------------------------------------------

------------
SCF SETTINGS
------------
Hamiltonian:
 Density Functional     Method          .... DFT(GTOs)
 Exchange Functional    Exchange        .... PBE
   PBE kappa parameter   XKappa         ....  0.804000
   PBE mue parameter    XMuePBE         ....  0.219520
 Correlation Functional Correlation     .... PBE
   PBE beta parameter  CBetaPBE         ....  0.066725
 LDA part of GGA corr.  LDAOpt          .... PW91-LDA
 Gradients option       PostSCFGGA      .... off
 Hybrid DFT is turned on
   Fraction HF Exchange ScalHFX         ....  0.500000
   Scaling of DF-GGA-X  ScalDFX         ....  0.500000
   Scaling of DF-GGA-C  ScalDFC         ....  0.875000
   Scaling of DF-LDA-C  ScalLDAC        ....  0.875000
   Perturbative correction              ....  0.125000
 RI-approximation to the Coulomb term is turned on
   Number of AuxJ basis functions       .... 252
   RIJ-COSX (HFX calculated with COS-X)).... on


General Settings:
 Integral files         IntName         .... run
 Hartree-Fock type      HFTyp           .... RHF
 Total Charge           Charge          ....    0
 Multiplicity           Mult            ....    1
 Number of Electrons    NEL             ....   48
 Basis Dimension        Dim             ....  480
 Nuclear Repulsion      ENuc            ....    170.9281484429 Eh

Convergence Acceleration:
 AO-DIIS                CNVDIIS         .... on
   Start iteration      DIISMaxIt       ....    12
   Startup error        DIISStart       ....  0.200000
   # of expansion vecs  DIISMaxEq       ....     5
   Bias factor          DIISBfac        ....   1.050
   Max. coefficient     DIISMaxC        ....  10.000
 MO-DIIS                CNVKDIIS        .... off
 Trust-Rad. Augm. Hess. CNVTRAH         .... auto
   Auto Start mean grad. ratio tolernc. ....  1.125000
   Auto Start start iteration           ....    50
   Auto Start num. interpolation iter.  ....    10
   Max. Number of Micro iterations      ....    24
   Max. Number of Macro iterations      .... Maxiter - #DIIS iter
   Number of Davidson start vectors     ....     2
   Converg. threshold    (grad. norm)   ....   1.000e-09
   Grad. Scal. Fac. for Micro threshold ....   0.100
   Minimum threshold for Micro iter.    ....   1.000e-02
   NR start threshold (gradient norm)   ....   1.000e-04
   Initial trust radius                 ....   0.400
   Minimum AH scaling param. (alpha)    ....   1.000
   Maximum AH scaling param. (alpha)    .... 1000.000
   Quad. conv. algorithm                .... NR
   White noise on init. David. guess    .... on
   Maximum white noise                  ....   0.010
   Pseudo random numbers                .... off
   Inactive MOs                         .... canonical
   Orbital update algorithm             .... Taylor
   Preconditioner                       .... Diag
   Full preconditioner red. dimension   ....   250
 SOSCF                 CNVSOSCF           .... on
   Start iteration     SOSCFMaxIt         ....   150
   Startup grad/error  SOSCFStart         ....  0.003300
   Hessian update      SOSCFHessUp        .... L-BFGS
   Autom. constraints  SOSCFAutoConstrain .... off
 Level Shifting         CNVShift        .... on
   Level shift para.    LevelShift      ....    0.2500
   Turn off err/grad.   ShiftErr        ....    0.0010
 Zerner damping         CNVZerner       .... off
 Static damping         CNVDamp         .... on
   Fraction old density DampFac         ....    0.7000
   Max. Damping (<1)    DampMax         ....    0.9800
   Min. Damping (>=0)   DampMin         ....    0.0000
   Turn off err/grad.   DampErr         ....    0.1000

SCF Procedure:
 Maximum # iterations   MaxIter         ....   125
 SCF integral mode      SCFMode         .... Direct
   Integral package                     .... SHARK and LIBINT hybrid scheme
 Reset frequency        DirectResetFreq ....    20
 Integral Threshold     Thresh          ....  3.000e-16 Eh
 Primitive CutOff       TCut            ....  3.000e-16 Eh

Convergence Tolerance:
 Convergence Check Mode ConvCheckMode   .... All-Criteria
 Convergence forced     ConvForced      .... 0
 Energy Change          TolE            ....  1.000e-14 Eh
 Max Density Change     TolMaxP         ....  1.000e-14
 RMS Density Change     TolRMSP         ....  1.000e-14
 Orbital Gradient       TolG            ....  1.000e-09
 Orbital Rotation angle TolX            ....  1.000e-09
 DIIS Error             TolErr          ....  1.000e-14

------------------------------
INITIAL GUESS: MODEL POTENTIAL
------------------------------
Loading Hartree-Fock densities                     ... done
Calculating cut-offs                               ... done
Initializing the effective Hamiltonian             ... done
Setting up the integral package (SHARK)            ... done
Starting the Coulomb interaction                   ... done (   0.4 sec)
Making the grid                                    ... done (   0.1 sec)
Mapping shells                                     ... done
Starting the XC term evaluation                    ... done (   0.1 sec)
  promolecular density results
     # of electrons  =     47.996250833
     EX              =    -56.692866780
     EC              =     -1.232449851
     EX+EC           =    -57.925316631
Transforming the Hamiltonian                       ... done (   0.1 sec)
Diagonalizing the Hamiltonian                      ... done (   0.1 sec)
Back transforming the eigenvectors                 ... done (   0.0 sec)
Now organizing SCF variables                       ... done
                      ------------------
                      INITIAL GUESS DONE (   0.9 sec)
                      ------------------
             **** ENERGY FILE WAS UPDATED (run.en.tmp) ****
Finished Guess after   1.8 sec
Maximum memory used throughout the entire GUESS-calculation: 29.5 MB


           ************************************************************
           *        Program running with 24 parallel MPI-processes    *
           *              working on a common directory               *
           ************************************************************

-------------------------------------------------------------------------------------------
                                      ORCA LEAN-SCF
                              memory conserving SCF solver
-------------------------------------------------------------------------------------------

----------------------------------------D-I-I-S--------------------------------------------
Iteration    Energy (Eh)           Delta-E    RMSDP     MaxDP     DIISErr   Damp  Time(sec)
-------------------------------------------------------------------------------------------
               ***  Starting incremental Fock matrix formation  ***
    1    -732.2010789523874337     0.00e+00  1.28e-03  1.24e-02  9.79e-02  0.700   6.9
    2    -732.2149369479457164    -1.39e-02  1.04e-03  1.02e-02  7.13e-02  0.700   4.0
                               ***Turning on AO-DIIS***
    3    -732.2248820926799908    -9.95e-03  7.94e-04  7.25e-03  4.95e-02  0.700   3.9
    4    -732.2317849300595753    -6.90e-03  1.87e-03  1.76e-02  3.46e-02  0.000   3.7
                              *** Initializing SOSCF ***
---------------------------------------S-O-S-C-F--------------------------------------
Iteration    Energy (Eh)           Delta-E    RMSDP     MaxDP     MaxGrad    Time(sec)
--------------------------------------------------------------------------------------
    5    -732.2478765927182849    -1.61e-02  7.59e-05  8.57e-04  1.28e-03     4.0
               *** Restarting incremental Fock matrix formation ***
    6    -732.2478866278456735    -1.00e-05  4.40e-05  4.30e-04  1.75e-04     6.1
    7    -732.2478880088428923    -1.38e-06  1.29e-05  1.13e-04  6.50e-05     5.5
    8    -732.2478881126767192    -1.04e-07  2.43e-06  2.62e-05  1.01e-05     5.4
    9    -732.2478881168729004    -4.20e-09  2.76e-07  4.81e-06  1.24e-06     5.2
   10    -732.2478881169656688    -9.28e-11  4.60e-08  4.37e-07  4.00e-07     4.9
   11    -732.2478881169656688     0.00e+00  8.42e-09  1.26e-07  3.54e-08     4.8
                          ***Energy convergence achieved***
   12    -732.2478881169663509    -6.82e-13  2.45e-09  1.81e-08  5.94e-09     4.5
   13    -732.2478881169647593     1.59e-12  8.79e-10  9.23e-09  1.33e-09     4.4
   14    -732.2478881169670331    -2.27e-12  2.88e-10  4.00e-09  1.02e-09     4.2
   15    -732.2478881169663509     6.82e-13  8.42e-11  1.00e-09  1.00e-09     3.8
                    ***Orbital Rotation convergence achieved***
   16    -732.2478881169652141     1.14e-12  0.00e+00  0.00e+00  1.00e-09     3.4
                           ***RMSP convergence achieved***
                           ***MAXP convergence achieved***
                       ***Gradient convergence achieved***
   17    -732.2478881169652141     0.00e+00  0.00e+00  0.00e+00  1.00e-09     1.2
                          ***Energy convergence achieved***

               *****************************************************
               *                     SUCCESS                       *
               *           SCF CONVERGED AFTER  17 CYCLES          *
               *****************************************************

Recomputing exchange energy using gridx3       ... done (    8.509 sec)
Old exchange energy                            :    -28.800493616 Eh
New exchange energy                            :    -28.800488089 Eh
Exchange energy change after final integration :      0.000005528 Eh
Total energy after final integration           :   -732.247882589 Eh
             **** ENERGY FILE WAS UPDATED (run.en.tmp) ****

----------------
TOTAL SCF ENERGY
----------------

Total Energy       :       -732.24788258937383 Eh          -19925.47788 eV

Components:
Nuclear Repulsion  :        170.92814844286016 Eh            4651.19138 eV
Electronic Energy  :       -903.17603655982521 Eh          -24576.66941 eV
One Electron Energy:      -1356.89430242857998 Eh          -36922.97110 eV
Two Electron Energy:        453.71826586875471 Eh           12346.30169 eV

Virial components:
Potential Energy   :      -1463.00765944111140 Eh          -39810.46234 eV
Kinetic Energy     :        730.75977685173757 Eh           19884.98446 eV
Virial Ratio       :          2.00203638156447

DFT components:
N(Alpha)           :       24.000002783338 electrons
N(Beta)            :       24.000002783338 electrons
N(Total)           :       48.000005566677 electrons
E(X)               :      -28.610596855454 Eh       
E(C)               :       -1.430907225997 Eh       
E(XC)              :      -30.041504081451 Eh       

---------------
SCF CONVERGENCE
---------------

  Last Energy change         ...    0.0000e+00  Tolerance :   1.0000e-14
  Last MAX-Density change    ...    0.0000e+00  Tolerance :   1.0000e-14
  Last RMS-Density change    ...    0.0000e+00  Tolerance :   1.0000e-14
  Last DIIS Error            ...    1.2838e-03  Tolerance :   1.0000e-14
  Last Orbital Gradient      ...    9.9994e-10  Tolerance :   1.0000e-09
  Last Orbital Rotation      ...    0.0000e+00  Tolerance :   1.0000e-09


----------------
ORBITAL ENERGIES
----------------

  NO   OCC          E(Eh)            E(eV) 
   0   2.0000     -56.941706     -1549.4626 
   1   2.0000     -56.941689     -1549.4621 
   2   2.0000     -56.940523     -1549.4304 
   3   2.0000      -4.436990      -120.7366 
   4   2.0000      -4.436961      -120.7358 
   5   2.0000      -4.435764      -120.7033 
   6   2.0000      -2.896946       -78.8299 
   7   2.0000      -2.896896       -78.8285 
   8   2.0000      -2.895906       -78.8016 
   9   2.0000      -2.895307       -78.7853 
  10   2.0000      -2.895193       -78.7822 
  11   2.0000      -2.893855       -78.7458 
  12   2.0000      -2.890536       -78.6555 
  13   2.0000      -2.890508       -78.6547 
  14   2.0000      -2.889243       -78.6203 
  15   2.0000      -0.607207       -16.5229 
  16   2.0000      -0.503490       -13.7007 
  17   2.0000      -0.500816       -13.6279 
  18   2.0000      -0.406691       -11.0666 
  19   2.0000      -0.399561       -10.8726 
  20   2.0000      -0.387228       -10.5370 
  21   2.0000      -0.379601       -10.3295 
  22   2.0000      -0.367329        -9.9955 
  23   2.0000      -0.360254        -9.8030 
  24   0.0000      -0.004368        -0.1189 
  25   0.0000       0.000327         0.0089 
  26   0.0000       0.008050         0.2190 
  27   0.0000       0.009363         0.2548 
  28   0.0000       0.033073         0.9000 
  29   0.0000       0.039357         1.0710 
  30   0.0000       0.042392         1.1535 
  31   0.0000       0.050882         1.3846 
  32   0.0000       0.066312         1.8044 
  33   0.0000       0.067201         1.8286 
  34   0.0000       0.068795         1.8720 
*Only the first 10 virtual orbitals were printed.
-------
TIMINGS
-------

Total SCF time: 0 days 0 hours 1 min 26 sec 

Total time                  ....      86.646 sec
Sum of individual times     ....      85.583 sec  ( 98.8%)

SCF preparation             ....       0.976 sec  (  1.1%)
Fock matrix formation       ....      79.102 sec  ( 91.3%)
  Startup                   ....       0.097 sec  (  0.1% of F)
  Split-RI-J                ....       4.001 sec  (  5.1% of F)
  Chain of spheres X        ....      61.708 sec  ( 78.0% of F)
  XC integration            ....      13.072 sec  ( 16.5% of F)
    XC Preparation          ....       0.000 sec  (  0.0% of XC)
    Basis function eval.    ....       2.645 sec  ( 20.2% of XC)
    Density eval.           ....       4.042 sec  ( 30.9% of XC)
    XC-Functional eval.     ....       0.125 sec  (  1.0% of XC)
    XC-Potential eval.      ....       5.075 sec  ( 38.8% of XC)
Diagonalization             ....       0.000 sec  (  0.0%)
Density matrix formation    ....       0.459 sec  (  0.5%)
Total Energy calculation    ....       0.214 sec  (  0.2%)
Population analysis         ....       0.000 sec  (  0.0%)
Orbital Transformation      ....       0.535 sec  (  0.6%)
Orbital Orthonormalization  ....       0.000 sec  (  0.0%)
DIIS solution               ....       1.862 sec  (  2.1%)
SOSCF solution              ....       2.419 sec  (  2.8%)
Finished LeanSCF after  86.7 sec

Maximum memory used throughout the entire LEANSCF-calculation: 44.2 MB


           ************************************************************
           *        Program running with 24 parallel MPI-processes    *
           *              working on a common directory               *
           ************************************************************

------------------------------------------------------------------------------
                                ORCA  MP2 
------------------------------------------------------------------------------

Freezing NCore=30 chemical core electrons

----------------------
RI-MP2 ENERGY+GRADIENT
----------------------
Dimension of the orbital basis            ...  480
Dimension of the AuxC basis               ... 1005
Memory devoted to MP2                     ... 4096 MB   
Data format for matrix containers         ... DOUBLE
Compression type for matrix containers    ... UNCOMPRESSED
Overall scaling of the MP2 energy         ...   1.250e-01

-----------------------
SHARK RI TRANSFORMATION
-----------------------

Number of basis functions                ...    480
Number of aux functions                  ...   1005
Number of operators                      ...      1
Generation of IJK                        ... YES
Generation of IAK                        ... YES
Generation of ABK                        ... NO
Orbital Range Operator  0:    0-  23 to   24- 479

Aux basis identifier                     ...   AUXC
Contraction scheme used                  ... SEGMENTED
Do orthogonalization                     ... YES
All operator combinations                ... NO
Transpose (ia|K)                         ... NO
Integral generator used                  ... LIBINT
Starting integral generation + trafo... 
Half trafo (segmented) done. Total time =  1.0 sec. integrals=  0.6 sec trafo=  0.3 sec
Integral generation and half transformation done (  1.0 sec)

Reading or making V^(-1/2)          ... done (  0.0 sec)
Sorting IJK integrals               ... done (  0.2 sec)
Sorting IAK integrals               ... done (  0.5 sec)

SHARK RI integral transformation done. Total time =  1.6 sec.

Opening buffers                              ... done
Frozen core precalculation                   ... done

Starting loop over batches of integrals:

Operator 0  - window                       ... ( 15- 23)x( 24-479)
Operator 0  - Memory available             ...  4096 MB
Operator 0  - Memory needed per MO         ...   3.5 MB
Operator 0  - Number of orbitals per batch ... 1
Operator 0  - Number of batches            ... 1

OPERATOR  0   PASS   0:  MOs    15 ...   15 +   16 ...   16 +   17 ...   17 +   18 ...   18
                            +   19 ...   19 +   20 ...   20 +   21 ...   21 +   22 ...   22
                            +   23 ...   23
  Reading integrals       ... ok
Closing buffer GIPV ( 0.03 GB; CompressionRatio= 1.00)
Time spent in pair loops =     3.379 sec
Deleting buffers (Ka|jb) ...done

-----------------------------------------------
 RI-MP2 CORRELATION ENERGY:     -0.050954871 Eh
-----------------------------------------------


---------------------
MP2 DENSITY FORMATION
---------------------

Completing the external part of the density      ... done
Storing the unrelaxed density                    ... done

Re-sorting 3-index density container for op 0    ... done
Computing external part of the Lagrangian        ... done
Calculating the xc-kernel                        ... done
Calculating G(D)                                 ... done
Completing the Lagrangian                        ... done
Solving the Z-vector equations                   ... Using XC Grid                  ... (run.grid_cpscf.tmp) 
Recalculating density on grid  ... (run.grho_cpscf0.tmp) done
Calculating the xc-kernel      ... (run.fxc_cpscf0.tmp) done

-------------------
SHARK CP-SCF DRIVER
-------------------

Dimension of the orbital basis          ...    480
Dimension of the CPSCF-problem          ...  10944
Number of operators                     ...      1
Max. number of iterations               ...    128
Convergence Tolerance                   ... 3.0e-06
Number of perturbations                 ...      1
Perturbation type                       ... REAL

----------------------------
POPLE LINEAR EQUATION SOLVER
----------------------------

  ITERATION   0:   ||err||_max =   8.8887e-03 (   2.1 sec)
  ITERATION   1:   ||err||_max =   9.4482e-04 (   2.1 sec)
  ITERATION   2:   ||err||_max =   1.7965e-04 (   2.2 sec)
  ITERATION   3:   ||err||_max =   2.0956e-05 (   2.1 sec)
  ITERATION   4:   ||err||_max =   4.8170e-06 (   2.1 sec)
  ITERATION   5:   ||err||_max =   8.6700e-07 (   2.2 sec)
done
Finalizing the relaxed density                   ... done
Transforming P to the AO basis                   ... done
Storing the relaxed density                      ... done

------------------------------------
ENERGY WEIGHTED DENSITY FINALIZATION
------------------------------------

Gathering the parts of the W-matrix              ... done
Forming the Z-density                            ... done
Transforming Z to the AO basis                   ... done
Calculating G(Z)                                 ... done
Finalizing the W-matrix                          ... done
Transforming W to the AO basis and storing       ... done

----------------------------------
MP2 DERIVATIVE INTEGRAL GENERATION
----------------------------------

Input SCF Electron Density              ... run.scfp
Input Correlated Electron Density       ... run.pmp2re
Input Energy Weighted Density           ... run.wmp2.tmp

Nuclear repulsion gradient              ... done (  0.0 sec)
HCore & Overlap gradient  (SHARK)       ... done (  0.2 sec)
Two-electron RIJ gradient terms         ... done (  4.2 sec)

-----------------------------------------------------------
MP2 COSX Grid Generation
-----------------------------------------------------------

General Integration Accuracy     IntAcc      ... 4.871
Radial Grid Type                 RadialGrid  ... OptM3 with GC (2021)
Angular Grid (max. ang.)         AngularGrid ... 4 (Lebedev-302)
Angular grid pruning method      GridPruning ... 4 (adaptive)
Weight generation scheme         WeightScheme... mBecke (2022)
Basis function cutoff            BFCut       ... 3.0000e-16
Integration weight cutoff        WCut        ... 1.0000e-14
Partially contracted basis set               ... on
Rotationally invariant grid construction     ... off
Angular grids for H and He will be reduced by one unit

Total number of grid points                  ...    59622
Total number of batches                      ...      469
Average number of points per batch           ...      127
Average number of grid points per atom       ...     4968
UseSFitting                                  ... on
Two-electron COSX gradient terms        ... 
Integration Timings:
Total Time                  =    19.5 sec
Basis fcn evaluation        =     0.1 sec
Density evaluation          =     0.4 sec
A evaluation                =    17.5 sec
A derivative evaluation     =     0.0 sec
S-fit derivative evaluation =     0.1 sec
anal. over. der. evaluation =     0.0 sec
num. over. der. evaluation  =     0.3 sec
K(P) evaluation             =     0.2 sec
finalize                    =     0.0 sec

done ( 20.7 sec)
DFT XC gradient                         ... done (  5.4 sec)

-------
TIMINGS
-------

Total time                :   70.483 sec
Integral trafo            :    1.864 sec (  2.6%)
FC preparation            :    0.858 sec (  1.2%)
I/O of integrals          :    0.438 sec (  0.6%)
K(i,j) operators          :    0.412 sec (  0.6%)
T(i,j) pair energies      :    0.043 sec (  0.1%)
V**(-1/2)                 :    0.598 sec (  0.8%)
Gamma(ia|P)               :    0.411 sec (  0.6%)
Gamma-Trafo               :    0.254 sec (  0.4%)
D(virtual)                :    0.041 sec (  0.1%)
D(internal)               :    0.198 sec (  0.3%)
W(virtual)                :    0.081 sec (  0.1%)
W(internal)               :    0.155 sec (  0.2%)
L(virtual)                :    1.243 sec (  1.8%)
L(internal)               :    0.016 sec (  0.0%)
XC kernel                 :    0.174 sec (  0.2%)
G(D)                      :    5.656 sec (  8.0%)
G(Z)                      :    5.630 sec (  8.0%)
Z-vector solution         :   13.052 sec ( 18.5%)
3-index derivative        :    4.089 sec (  5.8%)
2-index derivative        :    0.120 sec (  0.2%)
Fock matrix gradient      :   30.509 sec ( 43.3%)


---------------------------------------
MP2 TOTAL ENERGY:     -732.298837460 Eh
---------------------------------------

The final MP2 gradient
  0:   0.00069025   0.00015183  -0.00025034
  1:  -0.00000270  -0.00000379   0.00009985
  2:   0.00257048  -0.00076791  -0.00072740
  3:  -0.00323982  -0.00260781  -0.00177246
  4:  -0.00258867   0.00077645  -0.00071190
  5:  -0.00376697   0.00166578   0.00200149
  6:  -0.00003109  -0.00000323   0.00277231
  7:   0.00322837   0.00260129  -0.00180606
  8:  -0.00067614  -0.00015593  -0.00023492
  9:   0.00380340  -0.00160774   0.00197822
 10:  -0.00394182  -0.00171630  -0.00066662
 11:   0.00395452   0.00166545  -0.00069609

-----------------------------------
NORM OF THE MP2 GRADIENT:  0.012041
-----------------------------------

Maximum memory used throughout the entire MP2-calculation: 166.9 MB

-------------------------   --------------------
FINAL SINGLE POINT ENERGY      -732.298837460371
-------------------------   --------------------

------------------------------------------------------------------------------
                         ORCA GEOMETRY RELAXATION STEP
------------------------------------------------------------------------------

Reading the OPT-File                    .... done
Getting information on internals        .... done
Copying old internal coords+grads       .... done
Making the new internal coordinates     .... (2022 redundants) done
Validating the new internal coordinates .... (2022 redundants) done
Calculating the B-matrix                .... done
Calculating the G,G- and P matrices     .... done
Transforming gradient to internals      .... done
Projecting the internal gradient        .... done
Number of atoms                         ....  12
Number of internal coordinates          .... 117
Current Energy                          ....  -732.298837460 Eh
Current gradient norm                   ....     0.012040833 Eh/bohr
Maximum allowed component of the step   ....  0.300
Current trust radius                    ....  0.300
Evaluating the initial hessian          ....  (Almloef) done
Projecting the Hessian                  .... done
Forming the augmented Hessian           .... done
Diagonalizing the augmented Hessian     .... done
Last element of RFO vector              ....  0.999157102
Lowest eigenvalues of augmented Hessian:
 -0.000445281  0.018991915  0.022454115  0.032491969  0.059300219
Length of the computed step             ....  0.041084414
The final length of the internal step   ....  0.041084414
Converting the step to Cartesian space:
 Initial RMS(Int)=    0.0037982554
Transforming coordinates:
 Iter   0:  RMS(Cart)=    0.0070984641 RMS(Int)=    0.0037983391
done
Storing new coordinates                 .... done

                                .--------------------.
          ----------------------|Geometry convergence|-------------------------
          Item                value                   Tolerance       Converged
          ---------------------------------------------------------------------
          RMS gradient        0.0011190178            0.0000080000      NO
          MAX gradient        0.0045688461            0.0000300000      NO
          RMS step            0.0037982554            0.0001000000      NO
          MAX step            0.0134071827            0.0002000000      NO
          -------------------------------------------------------------------------
          ........................................................
          Max(Bonds)      0.0071      Max(Angles)    0.10
          Max(Dihed)        0.08      Max(Improp)    0.00
          ---------------------------------------------------------------------

The optimization has not yet converged - more geometry cycles are needed


    ---------------------------------------------------------------------------
                         Redundant Internal Coordinates
                            (Angstroem and degrees)

        Definition                    Value    dE/dq     Step     New-Value
    ----------------------------------------------------------------------------
     1. B(Al  1,Al  0)                3.0622  0.001509 -0.0065    3.0557   
     2. B(H   2,Al  1)                1.7226  0.001283 -0.0044    1.7182   
     3. B(H   3,Al  1)                1.5864  0.004515 -0.0059    1.5806   
     4. B(H   4,Al  1)                1.7227  0.001358 -0.0044    1.7183   
     5. B(H   4,Al  0)                1.7220  0.001472 -0.0045    1.7175   
     6. B(H   5,Al  0)                1.5868  0.004569 -0.0059    1.5809   
     7. B(H   6,Al  0)                1.7159  0.001619 -0.0046    1.7112   
     8. B(H   7,Al  1)                1.5864  0.004517 -0.0059    1.5805   
     9. B(Al  8,H   6)                1.7159  0.001601 -0.0046    1.7113   
    10. B(Al  8,H   2)                1.7220  0.001393 -0.0045    1.7175   
    11. B(Al  8,Al  1)                3.0659  0.001546 -0.0066    3.0594   
    12. B(Al  8,Al  0)                3.0732  0.001691 -0.0071    3.0662   
    13. B(H   9,Al  8)                1.5868  0.004568 -0.0059    1.5809   
    14. B(H  10,Al  8)                1.5874  0.004350 -0.0057    1.5818   
    15. B(H  11,Al  0)                1.5875  0.004346 -0.0057    1.5818   
    16. A(H   4,Al  0,H   6)           98.09  0.000492   -0.05     98.03   
    17. A(Al  1,Al  0,H   4)           27.26  0.000329   -0.05     27.21   
    18. A(Al  1,Al  0,Al  8)           59.96 -0.000011    0.00     59.97   
    19. A(Al  8,Al  0,H  11)          103.57  0.000038   -0.01    103.56   
    20. A(H   4,Al  0,H   5)          104.41 -0.000452    0.07    104.48   
    21. A(H   6,Al  0,H  11)          106.77  0.000066   -0.01    106.75   
    22. A(Al  1,Al  0,H   5)          131.50 -0.000131    0.03    131.53   
    23. A(Al  1,Al  0,H  11)           88.79  0.000007   -0.00     88.78   
    24. A(H   5,Al  0,H  11)          128.88  0.000137   -0.03    128.85   
    25. A(H   5,Al  0,H   6)          105.88 -0.000358    0.05    105.93   
    26. A(H   4,Al  0,Al  8)           74.24  0.000178   -0.02     74.21   
    27. A(Al  1,Al  0,H   6)           86.38  0.000401   -0.04     86.34   
    28. A(H   5,Al  0,Al  8)          122.51 -0.000127    0.03    122.54   
    29. A(H   4,Al  0,H  11)          108.63  0.000229   -0.03    108.60   
    30. A(H   6,Al  0,Al  8)           26.43  0.000412   -0.04     26.38   
    31. A(H   2,Al  1,H   7)          104.77 -0.000320    0.04    104.81   
    32. A(H   3,Al  1,H   4)          104.76 -0.000342    0.05    104.81   
    33. A(Al  0,Al  1,H   3)          127.35 -0.000059    0.01    127.35   
    34. A(H   2,Al  1,H   4)           95.84  0.000529   -0.09     95.76   
    35. A(H   4,Al  1,Al  8)           74.44  0.000227   -0.04     74.40   
    36. A(H   3,Al  1,Al  8)           98.64 -0.000094    0.02     98.66   
    37. A(H   2,Al  1,H   3)          109.39  0.000020    0.01    109.40   
    38. A(H   2,Al  1,Al  8)           27.11  0.000290   -0.05     27.06   
    39. A(Al  0,Al  1,Al  8)           60.20  0.000032   -0.01     60.19   
    40. A(H   7,Al  1,Al  8)          127.35 -0.000088    0.01    127.36   
    41. A(Al  0,Al  1,H   4)           27.25  0.000346   -0.05     27.20   
    42. A(H   4,Al  1,H   7)          109.39  0.000048    0.01    109.39   
    43. A(Al  0,Al  1,H   7)           98.73 -0.000105    0.03     98.75   
    44. A(Al  0,Al  1,H   2)           74.23  0.000200   -0.04     74.19   
    45. A(H   3,Al  1,H   7)          128.07  0.000193   -0.04    128.03   
    46. A(Al  1,H   2,Al  8)          125.76 -0.000564    0.10    125.86   
    47. A(Al  0,H   4,Al  1)          125.49 -0.000675    0.10    125.58   
    48. A(Al  0,H   6,Al  8)          127.15 -0.000826    0.09    127.24   
    49. A(Al  1,Al  8,H   2)           27.12  0.000273   -0.05     27.08   
    50. A(Al  0,Al  8,H   2)           73.91  0.000142   -0.02     73.89   
    51. A(Al  0,Al  8,Al  1)           59.84 -0.000021    0.01     59.85   
    52. A(H   6,Al  8,H  10)          106.67  0.000029   -0.01    106.66   
    53. A(H   2,Al  8,H  10)          108.66  0.000142   -0.03    108.63   
    54. A(Al  1,Al  8,H  10)           89.05 -0.000041   -0.00     89.05   
    55. A(Al  0,Al  8,H  10)          104.32 -0.000004   -0.01    104.31   
    56. A(H   6,Al  8,H   9)          105.97 -0.000311    0.05    106.02   
    57. A(H   9,Al  8,H  10)          128.87  0.000182   -0.03    128.84   
    58. A(H   2,Al  8,H   9)          104.38 -0.000418    0.07    104.46   
    59. A(Al  1,Al  8,H   9)          131.31 -0.000152    0.03    131.34   
    60. A(Al  0,Al  8,H   9)          121.88 -0.000102    0.03    121.91   
    61. A(H   2,Al  8,H   6)           98.12  0.000479   -0.06     98.07   
    62. A(Al  1,Al  8,H   6)           86.26  0.000393   -0.04     86.22   
    63. A(Al  0,Al  8,H   6)           26.42  0.000415   -0.04     26.38   
    64. D(H   2,Al  1,Al  0,H   4)   -141.21 -0.000226    0.04   -141.17   
    65. D(H   3,Al  1,Al  0,H   6)     76.90 -0.000072    0.02     76.92   
    66. D(H   3,Al  1,Al  0,H   5)    -31.17  0.000076   -0.02    -31.19   
    67. D(H   3,Al  1,Al  0,Al  8)     77.33 -0.000065    0.02     77.35   
    68. D(H   2,Al  1,Al  0,Al  8)    -25.29 -0.000240    0.04    -25.25   
    69. D(H   3,Al  1,Al  0,H   4)    -38.59 -0.000050    0.02    -38.57   
    70. D(H   2,Al  1,Al  0,H   6)    -25.72 -0.000247    0.04    -25.68   
    71. D(H   2,Al  1,Al  0,H   5)   -133.79 -0.000099    0.00   -133.79   
    72. D(H   2,Al  1,Al  0,H  11)     81.16 -0.000198    0.03     81.19   
    73. D(H   3,Al  1,Al  0,H  11)   -176.22 -0.000023    0.01   -176.21   
    74. D(Al  8,H   2,Al  1,H   7)    149.52 -0.000038    0.02    149.54   
    75. D(Al  8,H   2,Al  1,H   3)    -70.23 -0.000039    0.01    -70.22   
    76. D(Al  8,H   2,Al  1,Al  0)     54.44 -0.000057    0.01     54.45   
    77. D(Al  8,H   2,Al  1,H   4)     37.68 -0.000191    0.03     37.70   
    78. D(Al  1,H   4,Al  0,H   5)   -174.27  0.000097   -0.03   -174.30   
    79. D(Al  0,H   4,Al  1,H   7)    -70.61 -0.000007    0.01    -70.61   
    80. D(Al  0,H   4,Al  1,Al  8)     54.11 -0.000052    0.00     54.12   
    81. D(Al  0,H   4,Al  1,H   3)    149.15 -0.000011    0.01    149.16   
    82. D(Al  0,H   4,Al  1,H   2)     37.31 -0.000130    0.02     37.33   
    83. D(Al  1,H   4,Al  0,H  11)     45.32  0.000109   -0.02     45.30   
    84. D(Al  1,H   4,Al  0,Al  8)    -54.01  0.000068   -0.01    -54.02   
    85. D(Al  1,H   4,Al  0,H   6)    -65.50 -0.000231    0.03    -65.47   
    86. D(Al  8,H   6,Al  0,H   4)     25.52  0.000332   -0.05     25.47   
    87. D(Al  8,H   6,Al  0,Al  1)      0.83  0.000002    0.00      0.83   
    88. D(Al  8,H   6,Al  0,H   5)    133.08 -0.000067    0.02    133.11   
    89. D(Al  8,H   6,Al  0,H  11)    -86.81 -0.000123    0.01    -86.79   
    90. D(Al  1,Al  8,Al  0,H  11)    -80.52  0.000018   -0.01    -80.53   
    91. D(Al  1,Al  8,Al  0,H   6)    179.04 -0.000003   -0.00    179.04   
    92. D(Al  1,Al  8,Al  0,H   5)    122.63 -0.000128    0.03    122.66   
    93. D(H   2,Al  8,Al  0,Al  1)     25.35  0.000232   -0.04     25.31   
    94. D(Al  1,Al  8,Al  0,H   4)     25.35  0.000281   -0.04     25.31   
    95. D(H   9,Al  8,H   6,Al  0)    131.19 -0.000087    0.03    131.22   
    96. D(H   2,Al  8,H   6,Al  0)     23.63  0.000269   -0.05     23.58   
    97. D(Al  1,Al  8,H   6,Al  0)     -0.83 -0.000002   -0.00     -0.83   
    98. D(H  10,Al  8,H   2,Al  1)     45.77  0.000082   -0.03     45.74   
    99. D(H   9,Al  8,H   2,Al  1)   -173.85  0.000088   -0.03   -173.88   
   100. D(H   6,Al  8,H   2,Al  1)    -64.97 -0.000188    0.02    -64.95   
   101. D(H   6,Al  8,Al  1,H   2)    115.98  0.000013   -0.00    115.98   
   102. D(H   6,Al  8,Al  1,Al  0)      0.43  0.000007   -0.00      0.43   
   103. D(H   2,Al  8,Al  1,H   7)    -38.10 -0.000064    0.02    -38.07   
   104. D(H   2,Al  8,Al  1,H   4)   -140.86 -0.000297    0.04   -140.82   
   105. D(H   2,Al  8,Al  1,H   3)    116.12  0.000015    0.01    116.13   
   106. D(H   2,Al  8,Al  1,Al  0)   -115.55 -0.000005    0.00   -115.55   
   107. D(Al  0,Al  8,Al  1,H   7)     77.46 -0.000058    0.02     77.48   
   108. D(Al  0,Al  8,Al  1,H   4)    -25.31 -0.000292    0.04    -25.27   
   109. D(Al  0,Al  8,H   2,Al  1)    -54.28  0.000078   -0.02    -54.29   
   110. D(Al  0,Al  8,Al  1,H   3)   -128.33  0.000021    0.00   -128.32   
   111. D(Al  0,Al  8,Al  1,H   2)    115.55  0.000005   -0.00    115.55   
   112. D(H   6,Al  8,Al  0,Al  1)   -179.04  0.000003    0.00   -179.04   
   113. D(H   2,Al  8,Al  0,H  11)    -55.17  0.000250   -0.05    -55.22   
   114. D(H   2,Al  8,Al  0,H   6)   -155.61  0.000229   -0.04   -155.65   
   115. D(H   2,Al  8,Al  0,H   5)    147.98  0.000104   -0.01    147.96   
   116. D(H  10,Al  8,H   6,Al  0)    -88.72 -0.000076    0.01    -88.70   
   117. D(H   2,Al  8,Al  0,H   4)     50.70  0.000513   -0.08     50.61   
    ----------------------------------------------------------------------------

Geometry step timings:
Preparation and reading OPT file:      0.000 s ( 0.397 %)
Internal coordinates            :      0.000 s ( 0.751 %)
B/P matrices and projection     :      0.002 s (15.536 %)
Hessian update/contruction      :      0.001 s ( 7.477 %)
Making the step                 :      0.008 s (64.203 %)
Converting the step to Cartesian:      0.000 s ( 2.236 %)
Storing new data                :      0.000 s ( 0.498 %)
Checking convergence            :      0.000 s ( 0.515 %)
Final printing                  :      0.001 s ( 8.380 %)
Total time                      :      0.012 s

Time for energy+gradient        :    172.550 s
Time for complete geometry iter :    173.437 s

         *************************************************************
         *                GEOMETRY OPTIMIZATION CYCLE   2            *
         *************************************************************
---------------------------------
CARTESIAN COORDINATES (ANGSTROEM)
---------------------------------
  Al    -0.229260    1.515166    2.563521
  Al     0.000141   -0.000510   -0.079833
  H      0.869596   -0.933430    1.071708
  H     -1.100009   -0.904937   -0.765315
  H     -0.859977    0.938974    1.073513
  H     -1.468236    2.178988    3.287064
  H      0.004080    0.000974    3.325855
  H      1.094510    0.900176   -0.779298
  Al     0.255460   -1.512428    2.567530
  H      1.507787   -2.157250    3.285245
  H     -1.175770   -2.137937    2.317948
  H      1.208618    2.120525    2.302423

----------------------------
CARTESIAN COORDINATES (A.U.)
----------------------------
  NO LB      ZA    FRAG     MASS         X           Y           Z
   0 Al   13.0000    0    26.982   -0.433239    2.863249    4.844353
   1 Al   13.0000    0    26.982    0.000266   -0.000963   -0.150863
   2 H     1.0000    0     1.008    1.643299   -1.763928    2.025235
   3 H     1.0000    0     1.008   -2.078715   -1.710083   -1.446235
   4 H     1.0000    0     1.008   -1.625122    1.774403    2.028646
   5 H     1.0000    0     1.008   -2.774564    4.117691    6.211651
   6 H     1.0000    0     1.008    0.007709    0.001841    6.284955
   7 H     1.0000    0     1.008    2.068323    1.701085   -1.472660
   8 Al   13.0000    0    26.982    0.482750   -2.858075    4.851928
   9 H     1.0000    0     1.008    2.849304   -4.076612    6.208214
  10 H     1.0000    0     1.008   -2.221883   -4.040116    4.380287
  11 H     1.0000    0     1.008    2.283958    4.007211    4.350948

--------------------------------
INTERNAL COORDINATES (ANGSTROEM)
--------------------------------
 Al     0   0   0     0.000000000000     0.00000000     0.00000000
 Al     1   0   0     3.055686593165     0.00000000     0.00000000
 H      2   1   0     1.718238002181    74.18985922     0.00000000
 H      2   1   3     1.580570155947   127.35452817   102.60232212
 H      1   2   3     1.717534830264    27.21491662   218.82948709
[...]
      2      -0.001762   0.000444   0.004710  -0.011358  -0.009480   0.007874
      3      -0.000264   0.009697  -0.000433   0.000026  -0.021411  -0.027089
      4      -0.000329   0.011482  -0.000341   0.000037  -0.015232  -0.022480
      5      -0.004468  -0.000280  -0.018093  -0.001409   0.000368   0.000225
      6       0.004098   0.008450  -0.011827  -0.011232   0.004897  -0.004669
      7      -0.048673  -0.048072   0.071291   0.034363  -0.041391   0.001342
      8       0.086278   0.079380  -0.125968  -0.064451   0.065113  -0.005792
      9       0.040165  -0.155637   0.477277   0.077624   0.269223   0.366544
     10       0.032348  -0.127571   0.395370   0.065820   0.224705   0.301654
     11       0.023051  -0.101286   0.297887   0.047227   0.176803   0.232052
     12      -0.003705   0.007209   0.010595   0.010679   0.003813  -0.004624
     13       0.051709  -0.044497  -0.071761  -0.035093  -0.038906   0.001624
     14       0.090924  -0.072885  -0.126066  -0.065208  -0.060584   0.006392
     15       0.190414  -0.130052   0.077096  -0.511498  -0.438111   0.274280
     16      -0.100645   0.071404  -0.041844   0.283595   0.243749  -0.150984
     17      -0.111832   0.072994  -0.043698   0.305544   0.258875  -0.161024
     18      -0.001148   0.035203   0.000167   0.000353   0.028902  -0.009321
     19       0.008192  -0.246707  -0.000631  -0.002276  -0.140716   0.031983
     20      -0.002440   0.000290  -0.001281  -0.001702   0.000198  -0.000072
     21      -0.031625  -0.158906  -0.465077  -0.078247   0.280144   0.366516
     22      -0.025289  -0.130318  -0.385663  -0.066349   0.234015   0.301889
     23       0.017944   0.105957   0.298147   0.048963  -0.188594  -0.238390
     24      -0.013610  -0.015703   0.004582  -0.026724   0.017535  -0.020553
     25      -0.012189  -0.006970  -0.001811   0.006238  -0.005085   0.000245
     26      -0.001612  -0.000307   0.004893  -0.011085   0.009355  -0.007835
     27      -0.183033  -0.149617  -0.086980   0.509979  -0.445873   0.279645
     28       0.092783   0.078748   0.045516  -0.271991   0.238613  -0.148081
     29      -0.105813  -0.083020  -0.048603   0.299337  -0.258801   0.161215
     30       0.573686   0.571941  -0.061841   0.205119  -0.030578   0.276046
     31       0.253520   0.253504  -0.026095   0.095718  -0.016993   0.123183
     32       0.100289   0.101617  -0.011446   0.034075   0.000176   0.047951
     33      -0.613872   0.538240   0.060012  -0.201767  -0.031846   0.273859
     34      -0.261416   0.229767   0.024170  -0.090966  -0.017010   0.117833
     35       0.111504  -0.099227  -0.011743   0.034702   0.000289  -0.049401


-----------
IR SPECTRUM
-----------

 Mode   freq       eps      Int      T**2         TX        TY        TZ
       cm**-1   L/(mol*cm) km/mol    a.u.
----------------------------------------------------------------------------
  7:    137.06   0.000434    2.19  0.000989  ( 0.000876 -0.000173 -0.031434)
  8:    165.32   0.000045    0.23  0.000084  ( 0.004379  0.008051  0.000232)
  9:    237.26   0.000656    3.32  0.000863  (-0.000106 -0.000003 -0.029385)
 10:    318.00   0.002293   11.59  0.002250  (-0.040696  0.024354  0.000620)
 11:    342.67   0.000114    0.57  0.000104  (-0.000520  0.000132  0.010164)
 12:    416.78   0.001436    7.26  0.001075  (-0.021247  0.024979 -0.000016)
 13:    435.11   0.000285    1.44  0.000204  ( 0.000042  0.000121  0.014287)
 14:    452.49   0.001825    9.22  0.001258  ( 0.000210 -0.000202  0.035473)
 15:    506.65   0.000784    3.96  0.000483  (-0.021635  0.003818  0.000264)
 16:    527.71   0.010179   51.44  0.006019  ( 0.067679 -0.037930 -0.000341)
 17:    598.15   0.026331  133.07  0.013737  (-0.000594 -0.000532  0.117204)
 18:    709.95   0.146161  738.64  0.064246  ( 0.007930  0.252856 -0.015702)
 19:    711.15   0.110565  558.75  0.048518  ( 0.002678  0.018296  0.219489)
 20:    754.98   0.000889    4.49  0.000368  ( 0.001741 -0.001606  0.019026)
 21:    762.96   0.033307  168.32  0.013623  (-0.092952  0.070563 -0.001929)
 22:    781.98   0.031710  160.25  0.012655  (-0.030089 -0.108275 -0.005081)
 23:    790.04   0.031656  159.97  0.012504  (-0.002642 -0.003340  0.111739)
 24:   1095.21   0.037924  191.65  0.010806  (-0.013247  0.003848  0.103032)
 25:   1101.42   0.043995  222.33  0.012465  ( 0.105256 -0.035247  0.011990)
 26:   1153.23   0.000082    0.41  0.000022  (-0.003009  0.001088  0.003444)
 27:   1774.93   0.006546   33.08  0.001151  ( 0.005348 -0.033447 -0.001887)
 28:   1843.08   0.212993  1076.38  0.036063  ( 0.000805  0.001533  0.189895)
 29:   1868.65   0.220052  1112.05  0.036749  ( 0.025763 -0.189948  0.002152)
 30:   1987.98   0.002100   10.61  0.000330  ( 0.001381 -0.000656 -0.018093)
 31:   1991.27   0.008111   40.99  0.001271  (-0.033414  0.012425 -0.000511)
 32:   1993.89   0.000547    2.77  0.000086  ( 0.000066 -0.000708 -0.009229)
 33:   1998.40   0.008700   43.97  0.001359  (-0.000078 -0.000713 -0.036851)
 34:   1998.55   0.010595   53.54  0.001654  ( 0.021048 -0.034804  0.000228)
 35:   2004.64   0.077244  390.36  0.012025  (-0.104263 -0.033967  0.000412)

* The epsilon (eps) is given for a Dirac delta lineshape.
** The dipole moment derivative (T) already includes vibrational overlap.

--------------
RAMAN SPECTRUM  
--------------

 Mode    freq (cm**-1)   Activity   Depolarization
-------------------------------------------------------------------
   7:       137.06      2.354883      0.180871
   8:       165.32      0.480200      0.745463
   9:       237.26      2.911551      0.745706
  10:       318.00      2.477214      0.749614
  11:       342.67     12.796005      0.225853
  12:       416.78      3.901588      0.749982
  13:       435.11      2.252034      0.689647
  14:       452.49      4.406849      0.746406
  15:       506.65      0.245264      0.749966
  16:       527.71      2.147081      0.749957
  17:       598.15      1.431539      0.227151
  18:       709.95      2.761707      0.749960
  19:       711.15      7.937291      0.747343
  20:       754.98      4.187909      0.749998
  21:       762.96      2.841985      0.749981
  22:       781.98      1.610085      0.749573
  23:       790.04      4.614662      0.590078
  24:      1095.21      4.967081      0.380896
  25:      1101.42      7.151142      0.722521
  26:      1153.23     92.241345      0.030865
  27:      1774.93      6.425516      0.749996
  28:      1843.08     16.353953      0.729417
  29:      1868.65     24.125228      0.749997
  30:      1987.98    500.264116      0.035668
  31:      1991.27     13.923312      0.689191
  32:      1993.89    313.781804      0.015137
  33:      1998.40    188.316431      0.311029
  34:      1998.55     85.579017      0.749554
  35:      2004.64     49.954236      0.749994

The first frequency considered to be a vibration is 7
The total number of vibrations considered is 29


--------------------------
THERMOCHEMISTRY AT 298.15K
--------------------------

Temperature         ...   298.15 K
Pressure            ...     1.00 atm
Total Mass          ...    90.02 AMU
Quasi RRHO          ...     True
Cut-Off Frequency   ...     1.00 cm^-1

Throughout the following assumptions are being made:
  (1) The electronic state is orbitally nondegenerate
  (2) There are no thermally accessible electronically excited states
  (3) Hindered rotations indicated by low frequency modes are not
      treated as such but are treated as vibrations and this may
      cause some error
  (4) All equations used are the standard statistical mechanics
      equations for an ideal gas
  (5) All vibrations are strictly harmonic

freq.     137.06  E(vib)   ...       0.42 
freq.     165.32  E(vib)   ...       0.39 
freq.     237.26  E(vib)   ...       0.32 
freq.     318.00  E(vib)   ...       0.25 
freq.     342.67  E(vib)   ...       0.23 
freq.     416.78  E(vib)   ...       0.18 
freq.     435.11  E(vib)   ...       0.17 
freq.     452.49  E(vib)   ...       0.16 
freq.     506.65  E(vib)   ...       0.14 
freq.     527.71  E(vib)   ...       0.13 
freq.     598.15  E(vib)   ...       0.10 
freq.     709.95  E(vib)   ...       0.07 
freq.     711.15  E(vib)   ...       0.07 
freq.     754.98  E(vib)   ...       0.06 
freq.     762.96  E(vib)   ...       0.06 
freq.     781.98  E(vib)   ...       0.05 
freq.     790.04  E(vib)   ...       0.05 
freq.    1095.21  E(vib)   ...       0.02 
freq.    1101.42  E(vib)   ...       0.02 
freq.    1153.23  E(vib)   ...       0.01 
freq.    1774.93  E(vib)   ...       0.00 
freq.    1843.08  E(vib)   ...       0.00 
freq.    1868.65  E(vib)   ...       0.00 
freq.    1987.98  E(vib)   ...       0.00 
freq.    1991.27  E(vib)   ...       0.00 
freq.    1993.89  E(vib)   ...       0.00 
freq.    1998.40  E(vib)   ...       0.00 
freq.    1998.55  E(vib)   ...       0.00 
freq.    2004.64  E(vib)   ...       0.00 

------------
INNER ENERGY
------------

The inner energy is: U= E(el) + E(ZPE) + E(vib) + E(rot) + E(trans)
    E(el)   - is the total energy from the electronic structure calculation
              = E(kin-el) + E(nuc-el) + E(el-el) + E(nuc-nuc)
    E(ZPE)  - the the zero temperature vibrational energy from the frequency calculation
    E(vib)  - the the finite temperature correction to E(ZPE) due to population
              of excited vibrational states
    E(rot)  - is the rotational thermal energy
    E(trans)- is the translational thermal energy

Summary of contributions to the inner energy U:
Electronic energy                ...   -732.29958528 Eh
Zero point energy                ...      0.06711381 Eh      42.11 kcal/mol
Thermal vibrational correction   ...      0.00461413 Eh       2.90 kcal/mol
Thermal rotational correction    ...      0.00141627 Eh       0.89 kcal/mol
Thermal translational correction ...      0.00141627 Eh       0.89 kcal/mol
-----------------------------------------------------------------------
Total thermal energy                   -732.22502480 Eh


Summary of corrections to the electronic energy:
(perhaps to be used in another calculation)
Total thermal correction                  0.00744667 Eh       4.67 kcal/mol
Non-thermal (ZPE) correction              0.06711381 Eh      42.11 kcal/mol
-----------------------------------------------------------------------
Total correction                          0.07456048 Eh      46.79 kcal/mol


--------
ENTHALPY
--------

The enthalpy is H = U + kB*T
                kB is Boltzmann's constant
Total thermal energy              ...   -732.22502480 Eh 
Thermal Enthalpy correction       ...      0.00094421 Eh       0.59 kcal/mol
-----------------------------------------------------------------------
Total Enthalpy                    ...   -732.22408059 Eh


Note: Only C1 symmetry has been detected, increase convergence thresholds 
      if your molecule has a higher symmetry. Symmetry factor of 1.0 is   
      used for the rotational entropy correction. 
 

Note: Rotational entropy computed according to Herzberg 
Infrared and Raman Spectra, Chapter V,1, Van Nostrand Reinhold, 1945 
Point Group:  C1, Symmetry Number:   1  
Rotational constants in cm-1:     0.107407     0.106607     0.057517 

Vibrational entropy computed according to the QRRHO of S. Grimme
Chem.Eur.J. 2012 18 9955 using a reference frequency of 100.0 cm-1


-------
ENTROPY
-------

The entropy contributions are T*S = T*(S(el)+S(vib)+S(rot)+S(trans))
     S(el)   - electronic entropy
     S(vib)  - vibrational entropy
     S(rot)  - rotational entropy
     S(trans)- translational entropy
The entropies will be listed as multiplied by the temperature to get
units of energy

Electronic entropy                ...      0.00000000 Eh      0.00 kcal/mol
Vibrational entropy               ...      0.00738330 Eh      4.63 kcal/mol
Rotational entropy                ...      0.01296907 Eh      8.14 kcal/mol
Translational entropy             ...      0.01872231 Eh     11.75 kcal/mol
-----------------------------------------------------------------------
Final entropy term                ...      0.03907467 Eh     24.52 kcal/mol

In case the symmetry of your molecule has not been determined correctly
or in case you have a reason to use a different symmetry number we print 
out the resulting rotational entropy values for sn=1,12:

 non-linear molecules -----------------------------------
|  sn= 1 | S(rot)=       0.01296907 Eh      8.14 kcal/mol|
|  sn= 2 | S(rot)=       0.01231461 Eh      7.73 kcal/mol|
|  sn= 3 | S(rot)=       0.01193178 Eh      7.49 kcal/mol|
|  sn= 4 | S(rot)=       0.01166015 Eh      7.32 kcal/mol|
|  sn= 5 | S(rot)=       0.01144947 Eh      7.18 kcal/mol|
|  sn= 6 | S(rot)=       0.01127732 Eh      7.08 kcal/mol|
|  sn= 7 | S(rot)=       0.01113177 Eh      6.99 kcal/mol|
|  sn= 8 | S(rot)=       0.01100570 Eh      6.91 kcal/mol|
|  sn= 9 | S(rot)=       0.01089449 Eh      6.84 kcal/mol|
|  sn=10 | S(rot)=       0.01079501 Eh      6.77 kcal/mol|
|  sn=11 | S(rot)=       0.01070502 Eh      6.72 kcal/mol|
|  sn=12 | S(rot)=       0.01062286 Eh      6.67 kcal/mol|
 linear molecules ---------------------------------------
|  Dinfh | S(rot)=       0.00802208 Eh      5.03 kcal/mol|
|  Cinfv | S(rot)=       0.00867654 Eh      5.44 kcal/mol|
 --------------------------------------------------------


-------------------
GIBBS FREE ENERGY
-------------------

The Gibbs free energy is G = H - T*S

Total enthalpy                    ...   -732.22408059 Eh 
Total entropy correction          ...     -0.03907467 Eh    -24.52 kcal/mol
-----------------------------------------------------------------------
Final Gibbs free energy         ...   -732.26315526 Eh

For completeness - the Gibbs free energy minus the electronic energy
G-E(el)                           ...      0.03643002 Eh     22.86 kcal/mol



--------------------------------
SUGGESTED CITATIONS FOR THIS RUN
--------------------------------

Below you find a list of papers that are relevant to this ORCA run
We neither can nor want to force you to cite these papers, but we appreciate if you do
You receive ORCA, which is the product of decades of hard work by many enthusiastic individuals, for free
The only thing we kindly ask in return is that you cite our papers,
We deeply appreciate it, if you show your appreciation for ORCA by not just citing the generic ORCA reference.

Please note that relegating all ORCA citations to the supporting information does *not* help us.
SI sections are not indexed - citations you put there will not count into any citation statistics
But we need these citations in order to attract the funding resources that allow us to do what we are doing

Therefore, if you are a happy ORCA user, please consider citing a few of the papers listed below in the main body of your paper

In addition to the list printed below, the program has created the file run.bibtex that contains the list in bibtex format
You can import this file easily into all common literature databanks and citation aid programs


List of essential papers. We consider these as the minimum necessary citations

  1. Neese, F.
     Software update: the ORCA program system, version 6.0
     WIRES Comput. Molec. Sci. 2025 15(1), e70019
     doi.org/10.1002/wcms.7019

List of papers to cite with high priority. The work reported in these papers was absolutely
necessary for this run to complete.
Our perspective: the developers of density functionals and basis sets usually get cited in chemistry papers
Good! But without the algorithms to do something with them, the functionals or basis sets would not do anything.
Hence, in our opinion, the algorithm design and method developments papers are equally worthy of getting cited

  1. Neese, F.
     An improvement of the resolution of the identity approximation for the formation of the Coulomb matrix
     J. Comp. Chem. 2003 24(14), 1740-1747
     doi.org/10.1002/jcc.10318
  2. Neese, F.; Schwabe, T.; Grimme, S.
     Analytic derivatives for perturbatively corrected 'double hybrid' density functionals: Theory, implementation, and applications
     J. Chem. Phys. 2007 126(12), Art. No. 124115
     doi.org/10.1063/1.2712433
  3. Neese, F.; Wennmohs, F.; Hansen, A.; Becker, U.
     Efficient, approximate and parallel Hartree-Fock and hybrid DFT calculations. A 'chain-of-spheres' algorithm for the Hartree-Fock exchange
     Chem. Phys. 2009 356(1-3), 98-109
     doi.org/10.1016/j.chemphys.2008.10.036
  4. Kossmann, S.; Neese, F.
     Efficient Structure Optimization with Second-Order Many-Body Perturbation Theory: The RIJCOSX-MP2 Method
     J. Theo. Comp. Chem. 2010 6 , 2325-2338
     doi.org/10.1021/ct100199k
  5. Helmich-Paris, B.; de Souza, B.; Neese, F.; Izsák, R.
     An improved chain of spheres for exchange algorithm
     J. Chem. Phys. 2021 155(10), 104109
     doi.org/10.1063/5.0058766
  6. Neese, F.
     The SHARK Integral Generation and Digestion System
     J. Comp. Chem. 2022 44(3), 381
     doi.org/10.1002/jcc.26942

List of suggested additional citations. These are papers that are important in the 'surrounding' of 
of this run, or papers that preceded the highly important papers. If you like your results we are grateful for a citation.

  1. Izsak, R.; Neese, F.
     An overlap fitted chain of spheres exchange method
     J. Chem. Phys. 2011 135 , 144105
     doi.org/10.1063/1.3646921
  2. Izsak, R.; Hansen, A.; Neese, F.
     The resolution of identity and chain of spheres approximations for the LPNO-CCSD singles Fock term
     Molec. Phys. 2012 110 , 2413-2417
     doi.org/10.1080/00268976.2012.687466
  3. Neese, F.
     The ORCA program system
     WIRES Comput. Molec. Sci. 2012 2(1), 73-78
     doi.org/10.1002/wcms.81
  4. Izsak, R.; Neese, F.; Klopper, W.
     Robust fitting techniques in the chain of spheres approximation to the Fock exchange: The role of the complementary space
     J. Chem. Phys. 2013 139 , 
     doi.org/10.1063/1.4819264
  5. Neese, F.
     Software update: the ORCA program system, version 4.0
     WIRES Comput. Molec. Sci. 2018 8(1), 1-6
     doi.org/10.1002/wcms.1327
  6. Stoychev, G.L.; Auer, A.A.; Neese, F.
     Efficient and Accurate Prediction of Nuclear Magnetic Resonance Shielding Tensors with Double-Hybrid Density Functional Theory
     J. Chem. Theory Comput. 2018 14(9), 4756-4771
     doi.org/10.1021/acs.jctc.8b00624
  7. Neese, F.; Wennmohs, F.; Becker, U.; Riplinger, C.
     The ORCA quantum chemistry program package
     J. Chem. Phys. 2020 152(22), 224108
     doi.org/10.1063/5.0004608
  8. Neese, F.
     Software update: The ORCA program system—Version 5.0
     WIRES Comput. Molec. Sci. 2022 12(1), e1606
     doi.org/10.1002/wcms.1606

List of optional additional citations

  1. Neese, F.
     Approximate second-order SCF convergence for spin unrestricted wavefunctions
     Chem. Phys. Lett. 2000 325(1-3), 93-98
     doi.org/10.1016/s0009-2614(00)00662-x

List of possible but less essential additional citations

  1. Stoychev, G.L.
      Efficient approximations for the ab initio calculation of nuclear magnetic resonance shielding tensors (Dissertation)
      Rheinische Friedrich-Wilhelms-Universität Bonn   2022

Timings for individual modules:

Sum of individual times          ...    20062.001 sec (= 334.367 min)
Startup calculation              ...       94.017 sec (=   1.567 min)   0.5 %
SCF iterations                   ...      783.955 sec (=  13.066 min)   3.9 %
SCF Response                     ...       31.327 sec (=   0.522 min)   0.2 %
MP2 Response                     ...       93.916 sec (=   1.565 min)   0.5 %
Property calculations            ...        1.393 sec (=   0.023 min)   0.0 %
MP2 module                       ...      937.213 sec (=  15.620 min)   4.7 %
Geometry relaxation              ...        0.221 sec (=   0.004 min)   0.0 %
Numerical frequency calculation  ...    18119.960 sec (= 301.999 min)  90.3 %
                             ****ORCA TERMINATED NORMALLY****
TOTAL RUN TIME: 0 days 5 hours 32 minutes 46 seconds 755 msec
