
     Program PWSCF v.7.4.1 starts on  1Jul2025 at 14:11:56 

     This program is part of the open-source Quantum ESPRESSO suite
     for quantum simulation of materials; please cite
         "P. Giannozzi et al., J. Phys.:Condens. Matter 21 395502 (2009);
         "P. Giannozzi et al., J. Phys.:Condens. Matter 29 465901 (2017);
         "P. Giannozzi et al., J. Chem. Phys. 152 154105 (2020);
          URL http://www.quantum-espresso.org", 
     in publications or presentations arising from this work. More details at
     http://www.quantum-espresso.org/quote

     Parallel version (MPI), running on    20 processors

     MPI processes distributed on     1 nodes
     93670 MiB available memory on the printing compute node when the environment starts

     Waiting for input...
     Reading input from standard input

     Current dimensions of program PWSCF are:
     Max number of different atomic species (ntypx) = 10
     Max number of k-points (npk) =  40000
     Max angular momentum in pseudopotentials (lmaxx) =  4
     file Si.pbe-mt_fhi.UPF: wavefunction(s)  4f renormalized

     IMPORTANT: XC functional enforced from input :
     Exchange-correlation= HSE
                           (   1   4  12   4   0   0   0)
     EXX-fraction              =        0.25
     Any further DFT definition will be discarded
     Please, verify this is what you really want


     K-points division:     npool     =       2
     R & G space division:  proc/nbgrp/npool/nimage =      10
     Subspace diagonalization in iterative solution of the eigenvalue problem:
     a serial algorithm will be used

     EXX: q-point mesh:     1    1    1
     EXX: setup a grid of 216 q-points centered on each k-point
     (set verbosity='high' to see the list)

     Parallelization info
     --------------------
     sticks:   dense  smooth     PW     G-vecs:    dense   smooth      PW
     Min          58      58     18                  925      925     168
     Max          59      59     19                  928      928     169
     Sum         583     583    187                 9257     9257    1687

     Using Slab Decomposition



     bravais-lattice index     =            2
     lattice parameter (alat)  =      10.2600  a.u.
     unit-cell volume          =     270.0114 (a.u.)^3
     number of atoms/cell      =            2
     number of atomic types    =            1
     number of electrons       =         8.00
     number of Kohn-Sham states=           20
     kinetic-energy cutoff     =      40.0000  Ry
     charge density cutoff     =     160.0000  Ry
     cutoff for Fock operator  =     160.0000  Ry
     scf convergence threshold =      1.0E-06
     mixing beta               =       0.6000
     number of iterations used =            8  plain     mixing
     Exchange-correlation= HSE
                           (   1   4  12   4   0   0   0)
     EXX-fraction              =        0.25

     celldm(1)=  10.260000  celldm(2)=   0.000000  celldm(3)=   0.000000
     celldm(4)=   0.000000  celldm(5)=   0.000000  celldm(6)=   0.000000

     crystal axes: (cart. coord. in units of alat)
               a(1) = (  -0.500000   0.000000   0.500000 )  
               a(2) = (   0.000000   0.500000   0.500000 )  
               a(3) = (  -0.500000   0.500000   0.000000 )  

     reciprocal axes: (cart. coord. in units 2 pi/alat)
               b(1) = ( -1.000000 -1.000000  1.000000 )  
               b(2) = (  1.000000  1.000000  1.000000 )  
               b(3) = ( -1.000000  1.000000 -1.000000 )  


     PseudoPot. # 1 for Si read from file:
     /home/clemens/pseudos/Si.pbe-mt_fhi.UPF
     MD5 check sum: 2f548285ada518390005852429903be6
     Pseudo is Norm-conserving, Zval =  4.0
     Generated using FHI98PP, converted with fhi2upf.x v.5.0.2
     Using radial grid of  495 points,  3 beta functions with: 
                l(1) =   0
                l(2) =   1
                l(3) =   3

     atomic species   valence    mass     pseudopotential
     Si                4.00    28.08600     Si( 1.00)

     No symmetry found



   Cartesian axes

     site n.     atom                  positions (alat units)
         1        Si     tau(   1) = (   0.0000000   0.0000000   0.0000000  )
         2        Si     tau(   2) = (   0.2500000   0.2500000   0.2500000  )

     number of k points=   216

     Number of k-points >= 100: set verbosity='high' to print them.

     Dense  grid:     9257 G-vectors     FFT dimensions: (  30,  30,  30)

     Estimated max dynamical RAM per process >     131.15 MB

     Estimated total dynamical RAM >       2.56 GB
     EXX: ACE will be initialized later

     Initial potential from superposition of free atoms

     starting charge       7.9986, renormalised to       8.0000
     Starting wfcs are   32 randomized atomic wfcs

     total cpu time spent up to now is        0.7 secs

     Self-consistent Calculation

     iteration #  1     ecut=    40.00 Ry     beta= 0.60
     Davidson diagonalization with overlap
     ethr =  1.00E-02,  avg # of iterations =  5.2

     Threshold (ethr) on eigenvalues was too large:
     Diagonalizing with lowered threshold

     Davidson diagonalization with overlap
     ethr =  7.30E-04,  avg # of iterations =  1.0

     total cpu time spent up to now is        3.4 secs

     total energy              =     -15.75845322 Ry
     estimated scf accuracy    <       0.05843755 Ry

     iteration #  2     ecut=    40.00 Ry     beta= 0.60
     Davidson diagonalization with overlap
     ethr =  7.30E-04,  avg # of iterations =  1.3

     total cpu time spent up to now is        4.3 secs

     total energy              =     -15.76009887 Ry
     estimated scf accuracy    <       0.00517510 Ry

     iteration #  3     ecut=    40.00 Ry     beta= 0.60
     Davidson diagonalization with overlap
     ethr =  6.47E-05,  avg # of iterations =  1.9

     total cpu time spent up to now is        5.3 secs

     total energy              =     -15.76030491 Ry
     estimated scf accuracy    <       0.00011286 Ry

     iteration #  4     ecut=    40.00 Ry     beta= 0.60
     Davidson diagonalization with overlap
     ethr =  1.41E-06,  avg # of iterations =  4.2

     total cpu time spent up to now is        6.6 secs

     End of self-consistent calculation

     Number of k-points >= 100: set verbosity='high' to print the bands.

     highest occupied, lowest unoccupied level (ev):     6.2380    6.9514

!    total energy              =     -15.76031323 Ry
     estimated scf accuracy    <       0.00000017 Ry

     convergence has been achieved in   4 iterations

     Using ACE for calculation of exact exchange

     EXX grid:     9257 G-vectors     FFT dimensions: (  30,  30,  30)
     ACE projected onto    20 (nbndproj) and applied to    20 (nbnd) bands

     EXX: now go back to refine exchange calculation

     total cpu time spent up to now is       14.6 secs

     Self-consistent Calculation

     iteration #  1     ecut=    40.00 Ry     beta= 0.60
     Davidson diagonalization with overlap
     ethr =  1.41E-06,  avg # of iterations =  5.3

     total cpu time spent up to now is       16.8 secs

     total energy              =     -15.83070621 Ry
     estimated scf accuracy    <       0.00008719 Ry

     iteration #  2     ecut=    40.00 Ry     beta= 0.60
     Davidson diagonalization with overlap
     ethr =  1.09E-06,  avg # of iterations =  1.0

     total cpu time spent up to now is       17.8 secs

     total energy              =     -15.83071379 Ry
     estimated scf accuracy    <       0.00000613 Ry

     iteration #  3     ecut=    40.00 Ry     beta= 0.60
     Davidson diagonalization with overlap
     ethr =  7.66E-08,  avg # of iterations =  1.4

     total cpu time spent up to now is       18.8 secs

     End of self-consistent calculation

     Number of k-points >= 100: set verbosity='high' to print the bands.

     highest occupied, lowest unoccupied level (ev):     5.0762    7.6292

!    total energy              =     -15.83071468 Ry
     estimated scf accuracy    <       0.00000023 Ry

     convergence has been achieved in   3 iterations

     Using ACE for calculation of exact exchange
     ACE projected onto    20 (nbndproj) and applied to    20 (nbnd) bands

     total energy              =     -15.83080690 Ry
     Harris-Foulkes estimate   =     -15.83080661 Ry
     est. exchange err (dexx)  =       0.00009221 Ry
     - averaged Fock potential =       1.79602726 Ry
     + Fock energy (ACE)       =      -0.89789629 Ry

     EXX: now go back to refine exchange calculation

     total cpu time spent up to now is       26.5 secs

     Self-consistent Calculation

     iteration #  1     ecut=    40.00 Ry     beta= 0.60
     Davidson diagonalization with overlap
     ethr =  7.66E-08,  avg # of iterations =  2.1

     total cpu time spent up to now is       27.5 secs

     total energy              =     -15.83081872 Ry
     estimated scf accuracy    <       0.00000109 Ry

     iteration #  2     ecut=    40.00 Ry     beta= 0.60
     Davidson diagonalization with overlap
     ethr =  1.37E-08,  avg # of iterations =  1.0

     total cpu time spent up to now is       28.5 secs

     End of self-consistent calculation

     Number of k-points >= 100: set verbosity='high' to print the bands.

     highest occupied, lowest unoccupied level (ev):     5.0540    7.6319

!    total energy              =     -15.83081882 Ry
     estimated scf accuracy    <       0.00000007 Ry

     convergence has been achieved in   2 iterations

     Using ACE for calculation of exact exchange
     ACE projected onto    20 (nbndproj) and applied to    20 (nbnd) bands

     total energy              =     -15.83082068 Ry
     Harris-Foulkes estimate   =     -15.83082067 Ry
     est. exchange err (dexx)  =       0.00000187 Ry
     - averaged Fock potential =       1.79573081 Ry
     + Fock energy (ACE)       =      -0.89783639 Ry

     EXX: now go back to refine exchange calculation

     total cpu time spent up to now is       36.2 secs

     Self-consistent Calculation

     iteration #  1     ecut=    40.00 Ry     beta= 0.60
     Davidson diagonalization with overlap
     ethr =  1.37E-08,  avg # of iterations =  2.0

     Threshold (ethr) on eigenvalues was too large:
     Diagonalizing with lowered threshold

     Davidson diagonalization with overlap
     ethr =  1.36E-10,  avg # of iterations =  1.7

     total cpu time spent up to now is       38.2 secs

     End of self-consistent calculation

     Number of k-points >= 100: set verbosity='high' to print the bands.

     highest occupied, lowest unoccupied level (ev):     5.0506    7.6317

!    total energy              =     -15.83082105 Ry
     estimated scf accuracy    <       0.00000001 Ry

     convergence has been achieved in   1 iterations

     Using ACE for calculation of exact exchange
     ACE projected onto    20 (nbndproj) and applied to    20 (nbnd) bands

!!   total energy              =     -15.83082113 Ry
     Harris-Foulkes estimate   =     -15.83082113 Ry
     est. exchange err (dexx)  =       0.00000008 Ry
     - averaged Fock potential =       1.79566698 Ry
     + Fock energy (ACE)       =      -0.89783067 Ry

     EXX self-consistency reached

     Writing all to output data dir ./pwscf.save/ :
     XML data file, charge density, pseudopotentials, collected wavefunctions

     init_run     :      0.64s CPU      0.68s WALL (       1 calls)
     electrons    :     13.62s CPU     14.10s WALL (       4 calls)

     Called by init_run:
     aceinit0     :      0.00s CPU      0.00s WALL (       1 calls)
     wfcinit      :      0.54s CPU      0.57s WALL (       1 calls)
     potinit      :      0.00s CPU      0.01s WALL (       1 calls)
     hinit0       :      0.09s CPU      0.10s WALL (       1 calls)

     Called by electrons:
     c_bands      :     12.40s CPU     12.83s WALL (      12 calls)
     sum_band     :      1.18s CPU      1.24s WALL (      12 calls)
     v_of_rho     :      0.03s CPU      0.03s WALL (      12 calls)
     mix_rho      :      0.00s CPU      0.00s WALL (      12 calls)

     Called by c_bands:
     init_us_2    :      0.13s CPU      0.13s WALL (    2700 calls)
     cegterg      :     11.78s CPU     12.20s WALL (    1296 calls)

     Called by *egterg:
     cdiaghg      :      2.38s CPU      2.43s WALL (    3773 calls)
     h_psi        :      7.11s CPU      7.42s WALL (    4421 calls)
     g_psi        :      0.03s CPU      0.03s WALL (    3017 calls)

     Called by h_psi:
     h_psi:calbec :      0.56s CPU      0.59s WALL (    4421 calls)
     vloc_psi     :      5.54s CPU      5.78s WALL (    4421 calls)
     add_vuspsi   :      0.46s CPU      0.48s WALL (    4421 calls)

     General routines
     calbec       :      1.23s CPU      1.29s WALL (    8679 calls)
     fft          :      0.10s CPU      0.10s WALL (     116 calls)
     ffts         :      0.00s CPU      0.00s WALL (      12 calls)
     fftw         :      5.99s CPU      6.25s WALL (  155450 calls)
     fftc         :     19.07s CPU     19.71s WALL (  345600 calls)
     fftcw        :      1.32s CPU      1.42s WALL (   25920 calls)

     Parallel routines

     EXX routines
     exx_grid     :      0.00s CPU      0.00s WALL (       1 calls)
     exxinit      :      4.13s CPU      5.65s WALL (       4 calls)
     vexx         :     24.06s CPU     24.87s WALL (     432 calls)
     matcalc      :      0.69s CPU      0.72s WALL (    4258 calls)
     aceupdate    :      0.03s CPU      0.03s WALL (     432 calls)
     vexxace      :      0.85s CPU      0.88s WALL (    3070 calls)
     aceinit      :     24.25s CPU     25.07s WALL (     432 calls)

     PWSCF        :     43.32s CPU     46.30s WALL


   This run was terminated on:  14:12:43   1Jul2025            

=------------------------------------------------------------------------------=
   JOB DONE.
=------------------------------------------------------------------------------=
